 Gaussian 09, Revision D.01,
 Gaussian 09:  ES64L-G09RevD.01 24-Apr-2013

 --------------------
 #p B2PLYPD3/Def2QZVP
 --------------------

 ---------
 butadiene
 ---------
 Symbolic Z-matrix:
 Charge =  0 Multiplicity = 1

                         Standard orientation:
 ---------------------------------------------------------------------
 Center     Atomic      Atomic             Coordinates (Angstroms)
 Number     Number       Type             X           Y           Z
 ---------------------------------------------------------------------
      1          6           0       -1.816504   -0.156715    0.060399
      2          6           0       -0.632482    0.418965   -0.086977
      3          6           0        0.631011   -0.358184   -0.017661
      4          6           0        1.854104    0.106184    0.034424
      5          1           0       -2.671659    0.496386    0.185871
      6          1           0       -2.002802   -1.202808   -0.132016
      7          1           0       -0.657021    1.543265   -0.004840
      8          1           0        0.431278   -1.416949   -0.082906
      9          1           0        2.012759    1.194770   -0.044243
     10          1           0        2.670674   -0.676158    0.137022
 ---------------------------------------------------------------------

 SCF Done:  E(RB2PLYPD3) =  -155.687196995     A.U. after   11 cycles
 E2(B2PLYPD3) =    -0.2259939982D+00 E(B2PLYPD3) =    -0.15591319099351D+03

 The electronic state is 1-A.
 Alpha  occ. eigenvalues --  -10.62915 -10.62294 -10.61826 -10.61359  -0.92866
 Alpha  occ. eigenvalues --   -0.85537  -0.69161  -0.63362  -0.54337  -0.53425
 Alpha  occ. eigenvalues --   -0.46230  -0.45564  -0.40561  -0.37751  -0.28208
 Alpha virt. eigenvalues --    0.02163   0.06936   0.07298   0.07824   0.09364
 Alpha virt. eigenvalues --    0.11724   0.11981   0.14683   0.15614   0.15982
 Alpha virt. eigenvalues --    0.18684   0.19414   0.21382   0.23245   0.24395

 Mulliken charges:
               1
     1  C   -0.168628
     2  C   -0.038680
     3  C   -0.020370
     4  C   -0.182068
     5  H    0.074326
     6  H    0.070766
     7  H    0.046865
     8  H    0.053310
     9  H    0.077060
    10  H    0.087419
 Sum of Mulliken charges =   0.00000

 Dipole moment (field-independent basis, Debye):
    X=             -0.1437    Y=             -0.0318    Z=             -0.0452  Tot=              0.1540
 Quadrupole moment (field-independent basis, Debye-Ang):
   XX=            -24.0567   YY=            -22.9621   ZZ=            -29.2104
   XY=             -0.0800   XZ=             -0.0441   YZ=              0.2322

 1\1\GINC-NODE12\SP\RB2PLYPD3-FC\def2QZVP\C4H6\BOITTIER\26-Aug-2020\0\\
 #p B2PLYPD3/Def2QZVP\\butadiene\\0,1\C,0,-3.819644,0.247787,-0.041572\
 C,0,-2.75022,-0.517681,0.117879\C,0,-1.373288,0.032217,0.035112\C,0,-0
 .246906,-0.633969,-0.006933\H,0,-4.773541,-0.252887,-0.1555\H,0,-3.825
 211,1.313761,0.130792\H,0,-2.965461,-1.622837,0.057044\H,0,-1.390226,1
 .11056,0.080075\H,0,-0.275191,-1.732008,0.092514\H,0,0.690399,-0.00370
 2,-0.123522\\Version=ES64L-G09RevD.01\State=1-A\HF=-155.687197\MP2=-15
 5.913191\RMSD=9.405e-09\PG=C01 [X(C4H6)]\\@

 Normal termination of Gaussian 09 at Wed Aug 26 15:07:18 2020.
