 Gaussian 09, Revision D.01,
 Gaussian 09:  ES64L-G09RevD.01 24-Apr-2013

 --------------------
 #p B2PLYPD3/Def2QZVP
 --------------------

 ---------
 butadiene
 ---------
 Symbolic Z-matrix:
 Charge =  0 Multiplicity = 1

                         Standard orientation:
 ---------------------------------------------------------------------
 Center     Atomic      Atomic             Coordinates (Angstroms)
 Number     Number       Type             X           Y           Z
 ---------------------------------------------------------------------
      1          6           0        1.835648    0.112220    0.012471
      2          6           0        0.600510   -0.401177   -0.017082
      3          6           0       -0.601264    0.412180   -0.031482
      4          6           0       -1.825942   -0.113840    0.004710
      5          1           0        2.651316   -0.561630    0.058121
      6          1           0        2.003355    1.190905   -0.002976
      7          1           0        0.465560   -1.473934   -0.011736
      8          1           0       -0.493232    1.500218    0.039180
      9          1           0       -1.938880   -1.211912    0.035742
     10          1           0       -2.741833    0.500056    0.069963
 ---------------------------------------------------------------------

 SCF Done:  E(RB2PLYPD3) =  -155.699128093     A.U. after   11 cycles
 E2(B2PLYPD3) =    -0.2259916575D+00 E(B2PLYPD3) =    -0.15592511975041D+03

 The electronic state is 1-A.
 Alpha  occ. eigenvalues --  -10.62526 -10.62437 -10.61894 -10.61324  -0.93054
 Alpha  occ. eigenvalues --   -0.84855  -0.69772  -0.63934  -0.54410  -0.53914
 Alpha  occ. eigenvalues --   -0.46285  -0.45526  -0.41328  -0.38160  -0.27622
 Alpha virt. eigenvalues --    0.01826   0.07036   0.07298   0.08026   0.09495
 Alpha virt. eigenvalues --    0.11730   0.12353   0.14618   0.15755   0.16181
 Alpha virt. eigenvalues --    0.18663   0.20337   0.21445   0.22964   0.24083

 Mulliken charges:
               1
     1  C   -0.180831
     2  C   -0.031587
     3  C   -0.026758
     4  C   -0.172824
     5  H    0.087802
     6  H    0.070786
     7  H    0.054107
     8  H    0.054194
     9  H    0.060259
    10  H    0.084852
 Sum of Mulliken charges =   0.00000

 Dipole moment (field-independent basis, Debye):
    X=             -0.0074    Y=             -0.0042    Z=              0.1384  Tot=              0.1386
 Quadrupole moment (field-independent basis, Debye-Ang):
   XX=            -23.7795   YY=            -22.9646   ZZ=            -29.3136
   XY=              0.0009   XZ=             -0.1596   YZ=              0.0240

 1\1\GINC-NODE27\SP\RB2PLYPD3-FC\def2QZVP\C4H6\BOITTIER\26-Aug-2020\0\\
 #p B2PLYPD3/Def2QZVP\\butadiene\\0,1\C,0,-3.836926,0.223784,0.004305\C
 ,0,-2.714019,-0.502153,0.050247\C,0,-1.385591,0.081966,0.040226\C,0,-0
 .275573,-0.656498,0.020837\H,0,-4.760627,-0.293524,-0.021007\H,0,-3.80
 7982,1.315009,-0.013511\H,0,-2.77407,-1.581354,0.077961\H,0,-1.296698,
 1.169046,-0.063916\H,0,-0.361956,-1.757411,0.023644\H,0,0.735385,-0.21
 952,-0.062808\\Version=ES64L-G09RevD.01\State=1-A\HF=-155.6991281\MP2=
 -155.9251198\RMSD=5.468e-09\PG=C01 [X(C4H6)]\\@

 Normal termination of Gaussian 09 at Wed Aug 26 20:16:32 2020.
