 Gaussian 09, Revision D.01,
 Gaussian 09:  ES64L-G09RevD.01 24-Apr-2013

 --------------------
 #p B2PLYPD3/Def2QZVP
 --------------------

 ---------
 butadiene
 ---------
 Symbolic Z-matrix:
 Charge =  0 Multiplicity = 1

                         Standard orientation:
 ---------------------------------------------------------------------
 Center     Atomic      Atomic             Coordinates (Angstroms)
 Number     Number       Type             X           Y           Z
 ---------------------------------------------------------------------
      1          6           0        1.838214   -0.119107    0.014762
      2          6           0        0.605556    0.407989   -0.006562
      3          6           0       -0.595158   -0.384558   -0.011072
      4          6           0       -1.832180    0.103481    0.001617
      5          1           0        2.718161    0.521396   -0.022289
      6          1           0        1.943575   -1.193395    0.070753
      7          1           0        0.453311    1.478380   -0.071695
      8          1           0       -0.480804   -1.465744   -0.080365
      9          1           0       -2.036172    1.172991    0.084571
     10          1           0       -2.696667   -0.560458    0.026553
 ---------------------------------------------------------------------

 SCF Done:  E(RB2PLYPD3) =  -155.700323021     A.U. after   11 cycles
 E2(B2PLYPD3) =    -0.2258840246D+00 E(B2PLYPD3) =    -0.15592620704534D+03

 The electronic state is 1-A.
 Alpha  occ. eigenvalues --  -10.62448 -10.62280 -10.61717 -10.61559  -0.93225
 Alpha  occ. eigenvalues --   -0.84865  -0.70134  -0.64007  -0.54508  -0.53922
 Alpha  occ. eigenvalues --   -0.46508  -0.45628  -0.41202  -0.38254  -0.27618
 Alpha virt. eigenvalues --    0.01640   0.07014   0.07395   0.08001   0.09676
 Alpha virt. eigenvalues --    0.11730   0.12362   0.14767   0.15827   0.15998
 Alpha virt. eigenvalues --    0.18708   0.20373   0.21517   0.22720   0.24007

 Mulliken charges:
               1
     1  C   -0.178868
     2  C   -0.032325
     3  C   -0.022683
     4  C   -0.177318
     5  H    0.089323
     6  H    0.069063
     7  H    0.055187
     8  H    0.050980
     9  H    0.063482
    10  H    0.083159
 Sum of Mulliken charges =   0.00000

 Dipole moment (field-independent basis, Debye):
    X=              0.0012    Y=              0.0067    Z=              0.0026  Tot=              0.0073
 Quadrupole moment (field-independent basis, Debye-Ang):
   XX=            -23.6168   YY=            -23.0989   ZZ=            -29.2602
   XY=             -0.0611   XZ=             -0.1891   YZ=             -0.0148

 1\1\GINC-NODE09\SP\RB2PLYPD3-FC\def2QZVP\C4H6\BOITTIER\26-Aug-2020\0\\
 #p B2PLYPD3/Def2QZVP\\butadiene\\0,1\C,0,-3.836544,0.234617,0.02966\C,
 0,-2.719285,-0.506637,0.027592\C,0,-1.395274,0.05578,0.00425\C,0,-0.26
 6608,-0.646879,0.035072\H,0,-4.817699,-0.237397,0.008144\H,0,-3.746204
 ,1.311445,0.054363\H,0,-2.762826,-1.588358,-0.006206\H,0,-1.312776,1.1
 37392,-0.096507\H,0,-0.258805,-1.732791,0.149444\H,0,0.703546,-0.14938
 5,0.043751\\Version=ES64L-G09RevD.01\State=1-A\HF=-155.700323\MP2=-155
 .926207\RMSD=5.525e-09\PG=C01 [X(C4H6)]\\@

 Normal termination of Gaussian 09 at Wed Aug 26 09:49:23 2020.
