 Gaussian 09, Revision D.01,
 Gaussian 09:  ES64L-G09RevD.01 24-Apr-2013

 --------------------
 #p B2PLYPD3/Def2QZVP
 --------------------

 ---------
 butadiene
 ---------
 Symbolic Z-matrix:
 Charge =  0 Multiplicity = 1

                         Standard orientation:
 ---------------------------------------------------------------------
 Center     Atomic      Atomic             Coordinates (Angstroms)
 Number     Number       Type             X           Y           Z
 ---------------------------------------------------------------------
      1          6           0       -1.833044    0.061317    0.054330
      2          6           0       -0.590053   -0.320102   -0.088366
      3          6           0        0.601795    0.424469   -0.056412
      4          6           0        1.827133   -0.155370    0.020891
      5          1           0       -2.752920   -0.524638    0.059814
      6          1           0       -2.065713    1.081908    0.207689
      7          1           0       -0.484391   -1.420865   -0.166624
      8          1           0        0.532890    1.495670   -0.063878
      9          1           0        1.999399   -1.243412    0.317963
     10          1           0        2.735744    0.549453    0.062373
 ---------------------------------------------------------------------

 SCF Done:  E(RB2PLYPD3) =  -155.683725333     A.U. after   12 cycles
 E2(B2PLYPD3) =    -0.2268302372D+00 E(B2PLYPD3) =    -0.15591055556966D+03

 The electronic state is 1-A.
 Alpha  occ. eigenvalues --  -10.63368 -10.62767 -10.61949 -10.60932  -0.93717
 Alpha  occ. eigenvalues --   -0.84854  -0.70394  -0.63885  -0.54930  -0.53732
 Alpha  occ. eigenvalues --   -0.46879  -0.44296  -0.40377  -0.38635  -0.27566
 Alpha virt. eigenvalues --    0.01017   0.06842   0.07442   0.07713   0.09959
 Alpha virt. eigenvalues --    0.11540   0.12317   0.14793   0.15906   0.16301
 Alpha virt. eigenvalues --    0.18979   0.20470   0.21378   0.21930   0.23121

 Mulliken charges:
               1
     1  C   -0.165590
     2  C   -0.008728
     3  C   -0.050271
     4  C   -0.163494
     5  H    0.084152
     6  H    0.048063
     7  H    0.045649
     8  H    0.063642
     9  H    0.074826
    10  H    0.071752
 Sum of Mulliken charges =   0.00000

 Dipole moment (field-independent basis, Debye):
    X=             -0.0683    Y=              0.0785    Z=              0.2943  Tot=              0.3121
 Quadrupole moment (field-independent basis, Debye-Ang):
   XX=            -23.4177   YY=            -23.4736   ZZ=            -29.1198
   XY=             -0.0019   XZ=              0.2757   YZ=             -0.1315

 1\1\GINC-NODE12\SP\RB2PLYPD3-FC\def2QZVP\C4H6\BOITTIER\26-Aug-2020\0\\
 #p B2PLYPD3/Def2QZVP\\butadiene\\0,1\C,0,-3.845835,0.175693,0.075871\C
 ,0,-2.691813,-0.428455,-0.0429\C,0,-1.385889,0.091611,-0.043197\C,0,-0
 .283612,-0.693482,0.067516\H,0,-4.855624,-0.235302,0.106768\H,0,-3.891
 484,1.227753,0.17759\H,0,-2.785082,-1.532869,-0.066138\H,0,-1.262172,1
 .156166,-0.10397\H,0,-0.307195,-1.778758,0.418775\H,0,0.736584,-0.1613
 47,0.077596\\Version=ES64L-G09RevD.01\State=1-A\HF=-155.6837253\MP2=-1
 55.9105556\RMSD=5.640e-09\PG=C01 [X(C4H6)]\\@

 Normal termination of Gaussian 09 at Wed Aug 26 12:06:07 2020.
