 Gaussian 09, Revision D.01,
 Gaussian 09:  ES64L-G09RevD.01 24-Apr-2013

 --------------------
 #p B2PLYPD3/Def2QZVP
 --------------------

 ---------
 butadiene
 ---------
 Symbolic Z-matrix:
 Charge =  0 Multiplicity = 1

                         Standard orientation:
 ---------------------------------------------------------------------
 Center     Atomic      Atomic             Coordinates (Angstroms)
 Number     Number       Type             X           Y           Z
 ---------------------------------------------------------------------
      1          6           0        1.833391    0.086861    0.049212
      2          6           0        0.587176   -0.369481   -0.017635
      3          6           0       -0.618201    0.434399   -0.085495
      4          6           0       -1.809838   -0.115973    0.030229
      5          1           0        2.574340   -0.583174   -0.002992
      6          1           0        2.048345    1.166141   -0.093830
      7          1           0        0.395052   -1.433565    0.002277
      8          1           0       -0.455633    1.471416    0.171384
      9          1           0       -1.729180   -1.211031   -0.008432
     10          1           0       -2.788096    0.375376    0.073732
 ---------------------------------------------------------------------

 SCF Done:  E(RB2PLYPD3) =  -155.684129828     A.U. after   11 cycles
 E2(B2PLYPD3) =    -0.2259249904D+00 E(B2PLYPD3) =    -0.15591005481798D+03

 The electronic state is 1-A.
 Alpha  occ. eigenvalues --  -10.62195 -10.62030 -10.61858 -10.60559  -0.93676
 Alpha  occ. eigenvalues --   -0.85484  -0.70240  -0.64076  -0.55392  -0.53689
 Alpha  occ. eigenvalues --   -0.47230  -0.45069  -0.41152  -0.38102  -0.27975
 Alpha virt. eigenvalues --    0.01780   0.07189   0.07408   0.08192   0.09101
 Alpha virt. eigenvalues --    0.11780   0.12796   0.14585   0.14891   0.16500
 Alpha virt. eigenvalues --    0.18632   0.19471   0.22022   0.22978   0.25143

 Mulliken charges:
               1
     1  C   -0.183557
     2  C   -0.023630
     3  C   -0.026868
     4  C   -0.165053
     5  H    0.088197
     6  H    0.064518
     7  H    0.041832
     8  H    0.060216
     9  H    0.050977
    10  H    0.093368
 Sum of Mulliken charges =   0.00000

 Dipole moment (field-independent basis, Debye):
    X=             -0.1552    Y=             -0.0282    Z=              0.0524  Tot=              0.1662
 Quadrupole moment (field-independent basis, Debye-Ang):
   XX=            -23.4576   YY=            -23.4612   ZZ=            -29.0382
   XY=             -0.1082   XZ=             -0.5986   YZ=              0.1617

 1\1\GINC-NODE36\SP\RB2PLYPD3-FC\def2QZVP\C4H6\BOITTIER\26-Aug-2020\0\\
 #p B2PLYPD3/Def2QZVP\\butadiene\\0,1\C,0,-3.840971,0.199755,-0.026639\
 C,0,-2.698315,-0.473623,0.055014\C,0,-1.365971,0.098622,0.089016\C,0,-
 0.295816,-0.664042,-0.008005\H,0,-4.691174,-0.321275,0.053112\H,0,-3.8
 54154,1.304745,0.075023\H,0,-2.703666,-1.554882,0.075852\H,0,-1.339063
 ,1.137476,-0.207425\H,0,-0.574468,-1.723719,0.073173\H,0,0.755199,-0.3
 61569,-0.072681\\Version=ES64L-G09RevD.01\State=1-A\HF=-155.6841298\MP
 2=-155.9100548\RMSD=3.983e-09\PG=C01 [X(C4H6)]\\@

 Normal termination of Gaussian 09 at Wed Aug 26 15:33:09 2020.
