 Gaussian 09, Revision D.01,
 Gaussian 09:  ES64L-G09RevD.01 24-Apr-2013

 --------------------
 #p B2PLYPD3/Def2QZVP
 --------------------

 ---------
 butadiene
 ---------
 Symbolic Z-matrix:
 Charge =  0 Multiplicity = 1

                         Standard orientation:
 ---------------------------------------------------------------------
 Center     Atomic      Atomic             Coordinates (Angstroms)
 Number     Number       Type             X           Y           Z
 ---------------------------------------------------------------------
      1          6           0       -1.845325   -0.132553    0.021482
      2          6           0       -0.609408    0.441740   -0.023774
      3          6           0        0.608024   -0.374052   -0.053672
      4          6           0        1.858692    0.089778    0.012281
      5          1           0       -2.777856    0.455743    0.037165
      6          1           0       -2.020081   -1.207711    0.045880
      7          1           0       -0.496570    1.513823   -0.013623
      8          1           0        0.462004   -1.486403    0.029319
      9          1           0        2.036589    1.150331    0.086738
     10          1           0        2.724023   -0.575262    0.076622
 ---------------------------------------------------------------------

 SCF Done:  E(RB2PLYPD3) =  -155.696183418     A.U. after   11 cycles
 E2(B2PLYPD3) =    -0.2268168676D+00 E(B2PLYPD3) =    -0.15592300028514D+03

 The electronic state is 1-A.
 Alpha  occ. eigenvalues --  -10.63337 -10.63021 -10.62434 -10.61574  -0.92459
 Alpha  occ. eigenvalues --   -0.84454  -0.69995  -0.63831  -0.54286  -0.53575
 Alpha  occ. eigenvalues --   -0.46837  -0.45002  -0.41072  -0.37781  -0.27522
 Alpha virt. eigenvalues --    0.01409   0.06958   0.07340   0.07952   0.09292
 Alpha virt. eigenvalues --    0.11556   0.12428   0.14538   0.15760   0.16258
 Alpha virt. eigenvalues --    0.18860   0.20395   0.21619   0.22793   0.23509

 Mulliken charges:
               1
     1  C   -0.167521
     2  C   -0.048966
     3  C   -0.018357
     4  C   -0.176775
     5  H    0.079824
     6  H    0.068256
     7  H    0.063224
     8  H    0.049915
     9  H    0.063093
    10  H    0.087306
 Sum of Mulliken charges =   0.00000

 Dipole moment (field-independent basis, Debye):
    X=             -0.0594    Y=              0.0136    Z=              0.1875  Tot=              0.1972
 Quadrupole moment (field-independent basis, Debye-Ang):
   XX=            -23.3716   YY=            -23.1480   ZZ=            -29.4642
   XY=              0.2385   XZ=              0.2550   YZ=             -0.0610

 1\1\GINC-NODE10\SP\RB2PLYPD3-FC\def2QZVP\C4H6\BOITTIER\26-Aug-2020\0\\
 #p B2PLYPD3/Def2QZVP\\butadiene\\0,1\C,0,-3.844803,0.246911,-0.006501\
 C,0,-2.731193,-0.537201,0.059777\C,0,-1.387359,0.048172,0.05955\C,0,-0
 .240227,-0.633997,0.010628\H,0,-4.867567,-0.165241,-0.00046\H,0,-3.824
 689,1.334389,-0.070441\H,0,-2.811905,-1.611828,0.089082\H,0,-1.332714,
 1.164956,-0.064314\H,0,-0.255296,-1.711255,-0.024758\H,0,0.729609,-0.1
 37265,-0.078203\\Version=ES64L-G09RevD.01\State=1-A\HF=-155.6961834\MP
 2=-155.9230003\RMSD=6.114e-09\PG=C01 [X(C4H6)]\\@

 Normal termination of Gaussian 09 at Wed Aug 26 09:31:44 2020.
