 Gaussian 09, Revision D.01,
 Gaussian 09:  ES64L-G09RevD.01 24-Apr-2013

 --------------------
 #p B2PLYPD3/Def2QZVP
 --------------------

 ---------
 butadiene
 ---------
 Symbolic Z-matrix:
 Charge =  0 Multiplicity = 1

                         Standard orientation:
 ---------------------------------------------------------------------
 Center     Atomic      Atomic             Coordinates (Angstroms)
 Number     Number       Type             X           Y           Z
 ---------------------------------------------------------------------
      1          6           0       -1.873007    0.081505    0.085304
      2          6           0       -0.648695   -0.347981   -0.051709
      3          6           0        0.623257    0.444292   -0.070767
      4          6           0        1.849259   -0.166314    0.040620
      5          1           0       -2.725722   -0.550007   -0.096915
      6          1           0       -2.034965    1.134050    0.051176
      7          1           0       -0.456327   -1.395827   -0.046997
      8          1           0        0.706298    1.515202   -0.094166
      9          1           0        1.975167   -1.207950    0.016516
     10          1           0        2.830668    0.435517    0.149697
 ---------------------------------------------------------------------

 SCF Done:  E(RB2PLYPD3) =  -155.684852865     A.U. after   12 cycles
 E2(B2PLYPD3) =    -0.2263205534D+00 E(B2PLYPD3) =    -0.15591117341854D+03

 The electronic state is 1-A.
 Alpha  occ. eigenvalues --  -10.63518 -10.62680 -10.62566 -10.60735  -0.92469
 Alpha  occ. eigenvalues --   -0.85121  -0.69672  -0.64651  -0.54629  -0.53721
 Alpha  occ. eigenvalues --   -0.46546  -0.45348  -0.40975  -0.37561  -0.28006
 Alpha virt. eigenvalues --    0.01489   0.06892   0.07713   0.07882   0.09321
 Alpha virt. eigenvalues --    0.11567   0.12551   0.14346   0.15630   0.16547
 Alpha virt. eigenvalues --    0.19225   0.19350   0.21496   0.23281   0.23650

 Mulliken charges:
               1
     1  C   -0.160752
     2  C   -0.030477
     3  C   -0.050150
     4  C   -0.172489
     5  H    0.082318
     6  H    0.061250
     7  H    0.062165
     8  H    0.064364
     9  H    0.071094
    10  H    0.072677
 Sum of Mulliken charges =   0.00000

 Dipole moment (field-independent basis, Debye):
    X=              0.1172    Y=             -0.0332    Z=             -0.1216  Tot=              0.1721
 Quadrupole moment (field-independent basis, Debye-Ang):
   XX=            -23.3308   YY=            -23.2516   ZZ=            -29.3038
   XY=              0.0366   XZ=              0.6934   YZ=              0.1123

 1\1\GINC-NODE30\SP\RB2PLYPD3-FC\def2QZVP\C4H6\BOITTIER\26-Aug-2020\0\\
 #p B2PLYPD3/Def2QZVP\\butadiene\\0,1\C,0,-3.880411,0.178224,0.094254\C
 ,0,-2.744417,-0.453273,-0.019316\C,0,-1.35851,0.115612,-0.058711\C,0,-
 0.25103,-0.685561,0.082487\H,0,-4.826127,-0.309203,-0.070585\H,0,-3.86
 5241,1.241087,0.021195\H,0,-2.728809,-1.517631,0.024374\H,0,-1.098698,
 1.156293,-0.120133\H,0,-0.299916,-1.73382,0.096729\H,0,0.816686,-0.251
 424,0.176131\\Version=ES64L-G09RevD.01\State=1-A\HF=-155.6848529\MP2=-
 155.9111734\RMSD=2.333e-09\PG=C01 [X(C4H6)]\\@

 Normal termination of Gaussian 09 at Wed Aug 26 14:44:43 2020.
