 Gaussian 09, Revision D.01,
 Gaussian 09:  ES64L-G09RevD.01 24-Apr-2013

 --------------------
 #p B2PLYPD3/Def2QZVP
 --------------------

 ---------
 butadiene
 ---------
 Symbolic Z-matrix:
 Charge =  0 Multiplicity = 1

                         Standard orientation:
 ---------------------------------------------------------------------
 Center     Atomic      Atomic             Coordinates (Angstroms)
 Number     Number       Type             X           Y           Z
 ---------------------------------------------------------------------
      1          6           0       -1.849465    0.105258    0.007290
      2          6           0       -0.611101   -0.388392   -0.009633
      3          6           0        0.607279    0.401674   -0.013619
      4          6           0        1.843357   -0.117799    0.018721
      5          1           0       -2.702171   -0.548146   -0.035260
      6          1           0       -1.987677    1.144873    0.067231
      7          1           0       -0.445127   -1.452001    0.008970
      8          1           0        0.457948    1.482988   -0.037744
      9          1           0        2.046997   -1.171019   -0.001369
     10          1           0        2.689606    0.538863   -0.018376
 ---------------------------------------------------------------------

 SCF Done:  E(RB2PLYPD3) =  -155.700098211     A.U. after   11 cycles
 E2(B2PLYPD3) =    -0.2254828287D+00 E(B2PLYPD3) =    -0.15592558103973D+03

 The electronic state is 1-A.
 Alpha  occ. eigenvalues --  -10.62661 -10.62228 -10.61478 -10.61082  -0.92996
 Alpha  occ. eigenvalues --   -0.85031  -0.70588  -0.64217  -0.54689  -0.54150
 Alpha  occ. eigenvalues --   -0.46881  -0.46198  -0.41064  -0.38039  -0.27656
 Alpha virt. eigenvalues --    0.01602   0.07000   0.07493   0.08133   0.09684
 Alpha virt. eigenvalues --    0.11746   0.12427   0.14900   0.15801   0.16064
 Alpha virt. eigenvalues --    0.18811   0.20582   0.21682   0.22917   0.23856

 Mulliken charges:
               1
     1  C   -0.182735
     2  C   -0.022833
     3  C   -0.033163
     4  C   -0.178021
     5  H    0.089924
     6  H    0.068505
     7  H    0.052428
     8  H    0.051272
     9  H    0.069958
    10  H    0.084667
 Sum of Mulliken charges =   0.00000

 Dipole moment (field-independent basis, Debye):
    X=              0.0205    Y=             -0.0110    Z=             -0.0299  Tot=              0.0378
 Quadrupole moment (field-independent basis, Debye-Ang):
   XX=            -23.4673   YY=            -23.0917   ZZ=            -29.2191
   XY=             -0.2384   XZ=             -0.1139   YZ=              0.0435

 1\1\GINC-NODE33\SP\RB2PLYPD3-FC\def2QZVP\C4H6\BOITTIER\26-Aug-2020\0\\
 #p B2PLYPD3/Def2QZVP\\butadiene\\0,1\C,0,-3.850993,0.223081,0.027137\C
 ,0,-2.722405,-0.486713,0.025203\C,0,-1.381266,0.069496,-0.00021\C,0,-0
 .259382,-0.663891,0.04783\H,0,-4.80798,-0.266227,0.00245\H,0,-3.798659
 ,1.271812,0.05747\H,0,-2.751434,-1.561853,0.074086\H,0,-1.332691,1.158
 876,-0.0551\H,0,-0.249655,-1.736715,0.05777\H,0,0.691497,-0.172444,-0.
 007195\\Version=ES64L-G09RevD.01\State=1-A\HF=-155.7000982\MP2=-155.92
 5581\RMSD=3.958e-09\PG=C01 [X(C4H6)]\\@

 Normal termination of Gaussian 09 at Wed Aug 26 20:06:57 2020.
