 Gaussian 09, Revision D.01,
 Gaussian 09:  ES64L-G09RevD.01 24-Apr-2013

 --------------------
 #p B2PLYPD3/Def2QZVP
 --------------------

 ---------
 butadiene
 ---------
 Symbolic Z-matrix:
 Charge =  0 Multiplicity = 1

                         Standard orientation:
 ---------------------------------------------------------------------
 Center     Atomic      Atomic             Coordinates (Angstroms)
 Number     Number       Type             X           Y           Z
 ---------------------------------------------------------------------
      1          6           0        1.838809   -0.121196    0.021070
      2          6           0        0.611012    0.415584   -0.038223
      3          6           0       -0.609331   -0.392802   -0.015830
      4          6           0       -1.853150    0.100095    0.010014
      5          1           0        2.747780    0.489675    0.092268
      6          1           0        2.016200   -1.161303   -0.008415
      7          1           0        0.520509    1.484172   -0.019718
      8          1           0       -0.438832   -1.447917   -0.036735
      9          1           0       -2.051457    1.166964    0.028230
     10          1           0       -2.718238   -0.541676    0.082175
 ---------------------------------------------------------------------

 SCF Done:  E(RB2PLYPD3) =  -155.699877793     A.U. after   11 cycles
 E2(B2PLYPD3) =    -0.2256446944D+00 E(B2PLYPD3) =    -0.15592552248694D+03

 The electronic state is 1-A.
 Alpha  occ. eigenvalues --  -10.62619 -10.62552 -10.61577 -10.61516  -0.92789
 Alpha  occ. eigenvalues --   -0.84819  -0.70264  -0.64582  -0.54586  -0.53936
 Alpha  occ. eigenvalues --   -0.46874  -0.45731  -0.41178  -0.37916  -0.27655
 Alpha virt. eigenvalues --    0.01669   0.06979   0.07529   0.08112   0.09459
 Alpha virt. eigenvalues --    0.11635   0.12501   0.14713   0.15879   0.16238
 Alpha virt. eigenvalues --    0.18896   0.20440   0.21830   0.22971   0.23578

 Mulliken charges:
               1
     1  C   -0.173606
     2  C   -0.032374
     3  C   -0.037778
     4  C   -0.173794
     5  H    0.079167
     6  H    0.066636
     7  H    0.060697
     8  H    0.059903
     9  H    0.066361
    10  H    0.084788
 Sum of Mulliken charges =   0.00000

 Dipole moment (field-independent basis, Debye):
    X=              0.0420    Y=             -0.0152    Z=              0.0864  Tot=              0.0972
 Quadrupole moment (field-independent basis, Debye-Ang):
   XX=            -23.3189   YY=            -23.1282   ZZ=            -29.2677
   XY=             -0.2825   XZ=             -0.0289   YZ=              0.0763

 1\1\GINC-NODE22\SP\RB2PLYPD3-FC\def2QZVP\C4H6\BOITTIER\26-Aug-2020\0\\
 #p B2PLYPD3/Def2QZVP\\butadiene\\0,1\C,0,-3.840591,0.235233,0.040235\C
 ,0,-2.729327,-0.514927,0.001679\C,0,-1.383621,0.061525,-0.000309\C,0,-
 0.248392,-0.645526,0.04479\H,0,-4.844172,-0.199805,0.129836\H,0,-3.828
 51,1.288716,-0.024466\H,0,-2.832039,-1.58118,0.056167\H,0,-1.362033,1.
 128813,-0.056922\H,0,-0.244745,-1.729453,0.09917\H,0,0.718115,-0.16744
 9,0.097334\\Version=ES64L-G09RevD.01\State=1-A\HF=-155.6998778\MP2=-15
 5.9255225\RMSD=4.303e-09\PG=C01 [X(C4H6)]\\@

 Normal termination of Gaussian 09 at Wed Aug 26 10:33:58 2020.
