 Gaussian 09, Revision D.01,
 Gaussian 09:  ES64L-G09RevD.01 24-Apr-2013

 --------------------
 #p B2PLYPD3/Def2QZVP
 --------------------

 ---------
 butadiene
 ---------
 Symbolic Z-matrix:
 Charge =  0 Multiplicity = 1

                         Standard orientation:
 ---------------------------------------------------------------------
 Center     Atomic      Atomic             Coordinates (Angstroms)
 Number     Number       Type             X           Y           Z
 ---------------------------------------------------------------------
      1          6           0       -1.856426    0.084760    0.013561
      2          6           0       -0.620975   -0.372926   -0.031053
      3          6           0        0.620870    0.427514   -0.030759
      4          6           0        1.840437   -0.137294    0.004762
      5          1           0       -2.685313   -0.562630    0.076032
      6          1           0       -1.955238    1.186390    0.029664
      7          1           0       -0.470668   -1.405780   -0.036314
      8          1           0        0.489848    1.506329    0.045787
      9          1           0        1.981358   -1.196079    0.104476
     10          1           0        2.736574    0.459445    0.041290
 ---------------------------------------------------------------------

 SCF Done:  E(RB2PLYPD3) =  -155.696639539     A.U. after   11 cycles
 E2(B2PLYPD3) =    -0.2253406640D+00 E(B2PLYPD3) =    -0.15592198020338D+03

 The electronic state is 1-A.
 Alpha  occ. eigenvalues --  -10.63012 -10.61761 -10.61672 -10.61107  -0.92845
 Alpha  occ. eigenvalues --   -0.85209  -0.70105  -0.64347  -0.55184  -0.53618
 Alpha  occ. eigenvalues --   -0.47410  -0.45462  -0.41002  -0.37854  -0.27935
 Alpha virt. eigenvalues --    0.01868   0.07018   0.07472   0.08186   0.09543
 Alpha virt. eigenvalues --    0.11713   0.12487   0.14568   0.15732   0.16246
 Alpha virt. eigenvalues --    0.18825   0.20297   0.21647   0.23050   0.23990

 Mulliken charges:
               1
     1  C   -0.180733
     2  C   -0.019651
     3  C   -0.042607
     4  C   -0.172301
     5  H    0.094889
     6  H    0.059052
     7  H    0.053633
     8  H    0.055164
     9  H    0.068789
    10  H    0.083764
 Sum of Mulliken charges =   0.00000

 Dipole moment (field-independent basis, Debye):
    X=              0.0696    Y=             -0.0648    Z=              0.2037  Tot=              0.2248
 Quadrupole moment (field-independent basis, Debye-Ang):
   XX=            -23.4935   YY=            -23.1281   ZZ=            -29.2009
   XY=              0.0440   XZ=              0.0924   YZ=             -0.0316

 1\1\GINC-NODE14\SP\RB2PLYPD3-FC\def2QZVP\C4H6\BOITTIER\26-Aug-2020\0\\
 #p B2PLYPD3/Def2QZVP\\butadiene\\0,1\C,0,-3.862843,0.1961,0.035678\C,0
 ,-2.727525,-0.473335,0.008942\C,0,-1.364062,0.095319,-0.013029\C,0,-0.
 263013,-0.674153,0.043705\H,0,-4.792652,-0.292755,0.116587\H,0,-3.7659
 23,1.297847,0.016368\H,0,-2.761604,-1.516147,0.03703\H,0,-1.302684,1.1
 82222,0.028716\H,0,-0.310583,-1.737478,0.177516\H,0,0.724366,-0.243827
 ,0.063537\\Version=ES64L-G09RevD.01\State=1-A\HF=-155.6966395\MP2=-155
 .9219802\RMSD=5.613e-09\PG=C01 [X(C4H6)]\\@

 Normal termination of Gaussian 09 at Wed Aug 26 09:11:30 2020.
