 Gaussian 09, Revision D.01,
 Gaussian 09:  ES64L-G09RevD.01 24-Apr-2013

 --------------------
 #p B2PLYPD3/Def2QZVP
 --------------------

 ---------
 butadiene
 ---------
 Symbolic Z-matrix:
 Charge =  0 Multiplicity = 1

                         Standard orientation:
 ---------------------------------------------------------------------
 Center     Atomic      Atomic             Coordinates (Angstroms)
 Number     Number       Type             X           Y           Z
 ---------------------------------------------------------------------
      1          6           0       -1.848282    0.064015    0.057643
      2          6           0       -0.609301   -0.305441   -0.110447
      3          6           0        0.620560    0.407449   -0.035326
      4          6           0        1.834441   -0.131858    0.013359
      5          1           0       -2.570976   -0.677213    0.284506
      6          1           0       -2.124533    1.133609    0.012938
      7          1           0       -0.574941   -1.411966   -0.108926
      8          1           0        0.480930    1.569323   -0.101754
      9          1           0        2.028930   -1.206112    0.052658
     10          1           0        2.776077    0.387375    0.309206
 ---------------------------------------------------------------------

 SCF Done:  E(RB2PLYPD3) =  -155.679422257     A.U. after   11 cycles
 E2(B2PLYPD3) =    -0.2265216126D+00 E(B2PLYPD3) =    -0.15590594386920D+03

 The electronic state is 1-A.
 Alpha  occ. eigenvalues --  -10.63797 -10.62309 -10.61917 -10.61171  -0.93579
 Alpha  occ. eigenvalues --   -0.85659  -0.70710  -0.62639  -0.55601  -0.53209
 Alpha  occ. eigenvalues --   -0.47959  -0.43853  -0.40488  -0.37793  -0.28051
 Alpha virt. eigenvalues --    0.01321   0.06930   0.07189   0.07734   0.10031
 Alpha virt. eigenvalues --    0.11358   0.12452   0.14559   0.15596   0.16285
 Alpha virt. eigenvalues --    0.18986   0.19885   0.21348   0.22625   0.23541

 Mulliken charges:
               1
     1  C   -0.171490
     2  C   -0.004543
     3  C   -0.039632
     4  C   -0.151413
     5  H    0.088403
     6  H    0.059341
     7  H    0.034685
     8  H    0.046197
     9  H    0.061194
    10  H    0.077258
 Sum of Mulliken charges =   0.00000

 Dipole moment (field-independent basis, Debye):
    X=              0.0325    Y=             -0.1044    Z=              0.3017  Tot=              0.3210
 Quadrupole moment (field-independent basis, Debye-Ang):
   XX=            -23.4044   YY=            -23.6055   ZZ=            -28.9896
   XY=             -0.1783   XZ=              0.1915   YZ=             -0.2362

 1\1\GINC-NODE39\SP\RB2PLYPD3-FC\def2QZVP\C4H6\BOITTIER\26-Aug-2020\0\\
 #p B2PLYPD3/Def2QZVP\\butadiene\\0,1\C,0,-3.859051,0.18055,0.078297\C,
 0,-2.7076,-0.415193,-0.059818\C,0,-1.369373,0.068956,-0.025721\C,0,-0.
 271483,-0.674967,0.063419\H,0,-4.701225,-0.402781,0.349667\H,0,-3.9394
 49,1.277158,-0.037166\H,0,-2.872102,-1.507479,0.013869\H,0,-1.298984,1
 .230244,-0.168252\H,0,-0.272396,-1.761839,0.173423\H,0,0.750086,-0.314
 929,0.329078\\Version=ES64L-G09RevD.01\State=1-A\HF=-155.6794223\MP2=-
 155.9059439\RMSD=6.549e-09\PG=C01 [X(C4H6)]\\@

 Normal termination of Gaussian 09 at Wed Aug 26 15:49:57 2020.
