 Gaussian 09, Revision D.01,
 Gaussian 09:  ES64L-G09RevD.01 24-Apr-2013

 --------------------
 #p B2PLYPD3/Def2QZVP
 --------------------

 ---------
 butadiene
 ---------
 Symbolic Z-matrix:
 Charge =  0 Multiplicity = 1

                         Standard orientation:
 ---------------------------------------------------------------------
 Center     Atomic      Atomic             Coordinates (Angstroms)
 Number     Number       Type             X           Y           Z
 ---------------------------------------------------------------------
      1          6           0       -1.843827    0.101821   -0.014788
      2          6           0       -0.613405   -0.380031    0.016707
      3          6           0        0.604595    0.401098    0.037724
      4          6           0        1.847238   -0.120985   -0.020241
      5          1           0       -2.682449   -0.562731   -0.037594
      6          1           0       -2.006110    1.186938   -0.020265
      7          1           0       -0.473413   -1.468406    0.013197
      8          1           0        0.490498    1.484999   -0.016633
      9          1           0        2.001871   -1.177000   -0.010315
     10          1           0        2.701993    0.524782   -0.044805
 ---------------------------------------------------------------------

 SCF Done:  E(RB2PLYPD3) =  -155.700199085     A.U. after   11 cycles
 E2(B2PLYPD3) =    -0.2257130021D+00 E(B2PLYPD3) =    -0.15592591208696D+03

 The electronic state is 1-A.
 Alpha  occ. eigenvalues --  -10.62701 -10.62314 -10.61522 -10.61358  -0.93027
 Alpha  occ. eigenvalues --   -0.85059  -0.70379  -0.63765  -0.54633  -0.54112
 Alpha  occ. eigenvalues --   -0.46638  -0.45833  -0.41047  -0.38184  -0.27696
 Alpha virt. eigenvalues --    0.01621   0.07019   0.07403   0.08045   0.09769
 Alpha virt. eigenvalues --    0.11708   0.12353   0.14768   0.15787   0.16115
 Alpha virt. eigenvalues --    0.18780   0.20337   0.21591   0.22825   0.23988

 Mulliken charges:
               1
     1  C   -0.177966
     2  C   -0.021327
     3  C   -0.031464
     4  C   -0.179932
     5  H    0.090611
     6  H    0.064866
     7  H    0.046316
     8  H    0.051324
     9  H    0.069519
    10  H    0.088053
 Sum of Mulliken charges =   0.00000

 Dipole moment (field-independent basis, Debye):
    X=              0.0152    Y=             -0.0156    Z=             -0.0680  Tot=              0.0714
 Quadrupole moment (field-independent basis, Debye-Ang):
   XX=            -23.5146   YY=            -23.0910   ZZ=            -29.2636
   XY=             -0.0342   XZ=             -0.0366   YZ=             -0.0624

 1\1\GINC-NODE37\SP\RB2PLYPD3-FC\def2QZVP\C4H6\BOITTIER\26-Aug-2020\0\\
 #p B2PLYPD3/Def2QZVP\\butadiene\\0,1\C,0,-3.847532,0.214156,0.001377\C
 ,0,-2.722937,-0.478615,0.051014\C,0,-1.384841,0.072401,0.047794\C,0,-0
 .255807,-0.665094,0.00939\H,0,-4.791532,-0.290121,-0.000485\H,0,-3.813
 251,1.31001,-0.040759\H,0,-2.779772,-1.573986,0.084241\H,0,-1.303583,1
 .156815,-0.043076\H,0,-0.292394,-1.730815,0.054984\H,0,0.700499,-0.183
 75,-0.035435\\Version=ES64L-G09RevD.01\State=1-A\HF=-155.7001991\MP2=-
 155.9259121\RMSD=5.686e-09\PG=C01 [X(C4H6)]\\@

 Normal termination of Gaussian 09 at Wed Aug 26 18:45:26 2020.
