 Gaussian 09, Revision D.01,
 Gaussian 09:  ES64L-G09RevD.01 24-Apr-2013

 --------------------
 #p B2PLYPD3/Def2QZVP
 --------------------

 ---------
 butadiene
 ---------
 Symbolic Z-matrix:
 Charge =  0 Multiplicity = 1

                         Standard orientation:
 ---------------------------------------------------------------------
 Center     Atomic      Atomic             Coordinates (Angstroms)
 Number     Number       Type             X           Y           Z
 ---------------------------------------------------------------------
      1          6           0        1.850380    0.107759    0.003856
      2          6           0        0.617347   -0.394633   -0.013150
      3          6           0       -0.618695    0.409139   -0.033595
      4          6           0       -1.840749   -0.119540    0.012168
      5          1           0        2.720881   -0.538857    0.069566
      6          1           0        1.987307    1.191258    0.021839
      7          1           0        0.463630   -1.459867   -0.013746
      8          1           0       -0.529951    1.488772    0.029301
      9          1           0       -1.986564   -1.195171    0.019579
     10          1           0       -2.705001    0.497514    0.057784
 ---------------------------------------------------------------------

 SCF Done:  E(RB2PLYPD3) =  -155.700632217     A.U. after   11 cycles
 E2(B2PLYPD3) =    -0.2254764655D+00 E(B2PLYPD3) =    -0.15592610868257D+03

 The electronic state is 1-A.
 Alpha  occ. eigenvalues --  -10.62597 -10.62519 -10.61605 -10.61308  -0.92751
 Alpha  occ. eigenvalues --   -0.85110  -0.69879  -0.64075  -0.54534  -0.54010
 Alpha  occ. eigenvalues --   -0.46798  -0.45643  -0.41032  -0.37934  -0.27903
 Alpha virt. eigenvalues --    0.01935   0.07022   0.07434   0.08086   0.09518
 Alpha virt. eigenvalues --    0.11690   0.12414   0.14600   0.15758   0.16218
 Alpha virt. eigenvalues --    0.18826   0.20259   0.21637   0.22994   0.23934

 Mulliken charges:
               1
     1  C   -0.174354
     2  C   -0.034243
     3  C   -0.030686
     4  C   -0.175536
     5  H    0.088315
     6  H    0.066175
     7  H    0.055318
     8  H    0.053962
     9  H    0.064028
    10  H    0.087022
 Sum of Mulliken charges =   0.00000

 Dipole moment (field-independent basis, Debye):
    X=             -0.0456    Y=             -0.0068    Z=              0.1386  Tot=              0.1461
 Quadrupole moment (field-independent basis, Debye-Ang):
   XX=            -23.4998   YY=            -23.0680   ZZ=            -29.2682
   XY=              0.0065   XZ=              0.0029   YZ=              0.0577

 1\1\GINC-NODE01\SP\RB2PLYPD3-FC\def2QZVP\C4H6\BOITTIER\26-Aug-2020\0\\
 #p B2PLYPD3/Def2QZVP\\butadiene\\0,1\C,0,-3.853846,0.216027,0.010213\C
 ,0,-2.728364,-0.494637,0.046325\C,0,-1.370129,0.07934,0.042343\C,0,-0.
 260329,-0.657336,0.016576\H,0,-4.824777,-0.269151,-0.035581\H,0,-3.798
 101,1.305514,-0.044137\H,0,-2.764437,-1.569685,0.082721\H,0,-1.267812,
 1.155056,-0.056673\H,0,-0.306041,-1.741487,0.045301\H,0,0.698807,-0.20
 3832,-0.047921\\Version=ES64L-G09RevD.01\State=1-A\HF=-155.7006322\MP2
 =-155.9261087\RMSD=3.344e-09\PG=C01 [X(C4H6)]\\@

 Normal termination of Gaussian 09 at Wed Aug 26 22:12:42 2020.
