 Gaussian 09, Revision D.01,
 Gaussian 09:  ES64L-G09RevD.01 24-Apr-2013

 --------------------
 #p B2PLYPD3/Def2QZVP
 --------------------

 ---------
 butadiene
 ---------
 Symbolic Z-matrix:
 Charge =  0 Multiplicity = 1

                         Standard orientation:
 ---------------------------------------------------------------------
 Center     Atomic      Atomic             Coordinates (Angstroms)
 Number     Number       Type             X           Y           Z
 ---------------------------------------------------------------------
      1          6           0       -1.838367   -0.130573   -0.020491
      2          6           0       -0.609990    0.412024    0.030857
      3          6           0        0.610262   -0.377075    0.015320
      4          6           0        1.845843    0.103079   -0.015880
      5          1           0       -2.702221    0.524817   -0.029554
      6          1           0       -2.009507   -1.192899    0.010482
      7          1           0       -0.510925    1.504069   -0.025809
      8          1           0        0.492022   -1.478458    0.009375
      9          1           0        2.009738    1.165768    0.011296
     10          1           0        2.674406   -0.568029   -0.034629
 ---------------------------------------------------------------------

 SCF Done:  E(RB2PLYPD3) =  -155.699965434     A.U. after   11 cycles
 E2(B2PLYPD3) =    -0.2257562729D+00 E(B2PLYPD3) =    -0.15592572170659D+03

 The electronic state is 1-A.
 Alpha  occ. eigenvalues --  -10.62829 -10.62469 -10.61675 -10.61050  -0.92909
 Alpha  occ. eigenvalues --   -0.85076  -0.70152  -0.63679  -0.54540  -0.54139
 Alpha  occ. eigenvalues --   -0.46573  -0.45612  -0.41096  -0.38123  -0.27719
 Alpha virt. eigenvalues --    0.01724   0.07017   0.07370   0.07996   0.09670
 Alpha virt. eigenvalues --    0.11709   0.12330   0.14784   0.15780   0.16125
 Alpha virt. eigenvalues --    0.18754   0.20300   0.21589   0.22838   0.24045

 Mulliken charges:
               1
     1  C   -0.175324
     2  C   -0.036653
     3  C   -0.019067
     4  C   -0.181035
     5  H    0.083847
     6  H    0.071798
     7  H    0.054112
     8  H    0.045892
     9  H    0.066493
    10  H    0.089938
 Sum of Mulliken charges =   0.00000

 Dipole moment (field-independent basis, Debye):
    X=             -0.0317    Y=             -0.0057    Z=             -0.0168  Tot=              0.0363
 Quadrupole moment (field-independent basis, Debye-Ang):
   XX=            -23.6116   YY=            -22.9962   ZZ=            -29.2874
   XY=              0.0518   XZ=              0.0172   YZ=             -0.0450

 1\1\GINC-NODE31\SP\RB2PLYPD3-FC\def2QZVP\C4H6\BOITTIER\26-Aug-2020\0\\
 #p B2PLYPD3/Def2QZVP\\butadiene\\0,1\C,0,-3.838749,0.240601,0.039152\C
 ,0,-2.726181,-0.51248,0.007227\C,0,-1.385355,0.047931,-0.00039\C,0,-0.
 254301,-0.642386,0.048209\H,0,-4.805028,-0.250676,0.067686\H,0,-3.8190
 51,1.314914,-0.02602\H,0,-2.821977,-1.602437,0.098907\H,0,-1.306525,1.
 152458,-0.029821\H,0,-0.281426,-1.717617,0.055261\H,0,0.680143,-0.1285
 1,0.046911\\Version=ES64L-G09RevD.01\State=1-A\HF=-155.6999654\MP2=-15
 5.9257217\RMSD=5.889e-09\PG=C01 [X(C4H6)]\\@

 Normal termination of Gaussian 09 at Wed Aug 26 18:32:49 2020.
