 Gaussian 09, Revision D.01,
 Gaussian 09:  ES64L-G09RevD.01 24-Apr-2013

 --------------------
 #p B2PLYPD3/Def2QZVP
 --------------------

 ---------
 butadiene
 ---------
 Symbolic Z-matrix:
 Charge =  0 Multiplicity = 1

                         Standard orientation:
 ---------------------------------------------------------------------
 Center     Atomic      Atomic             Coordinates (Angstroms)
 Number     Number       Type             X           Y           Z
 ---------------------------------------------------------------------
      1          6           0       -1.813876   -0.126667   -0.000739
      2          6           0       -0.588000    0.409815   -0.033233
      3          6           0        0.604075   -0.387406   -0.020735
      4          6           0        1.812671    0.099097    0.025397
      5          1           0       -2.731463    0.509965    0.200036
      6          1           0       -2.022884   -1.183165    0.020365
      7          1           0       -0.511786    1.516046   -0.096467
      8          1           0        0.507573   -1.457213   -0.046554
      9          1           0        1.982742    1.172157    0.041338
     10          1           0        2.686597   -0.526828    0.057144
 ---------------------------------------------------------------------

 SCF Done:  E(RB2PLYPD3) =  -155.695481635     A.U. after   11 cycles
 E2(B2PLYPD3) =    -0.2255341281D+00 E(B2PLYPD3) =    -0.15592101576319D+03

 The electronic state is 1-A.
 Alpha  occ. eigenvalues --  -10.62802 -10.61965 -10.61733 -10.60861  -0.93593
 Alpha  occ. eigenvalues --   -0.85126  -0.69821  -0.64061  -0.54936  -0.53875
 Alpha  occ. eigenvalues --   -0.46503  -0.44842  -0.41227  -0.38443  -0.27765
 Alpha virt. eigenvalues --    0.01925   0.06981   0.07368   0.07897   0.09725
 Alpha virt. eigenvalues --    0.11670   0.12482   0.14679   0.15771   0.16302
 Alpha virt. eigenvalues --    0.18753   0.20149   0.21914   0.22663   0.23778

 Mulliken charges:
               1
     1  C   -0.169622
     2  C   -0.033729
     3  C   -0.023961
     4  C   -0.170663
     5  H    0.072214
     6  H    0.066138
     7  H    0.059646
     8  H    0.056158
     9  H    0.060299
    10  H    0.083519
 Sum of Mulliken charges =   0.00000

 Dipole moment (field-independent basis, Debye):
    X=              0.0466    Y=             -0.0493    Z=              0.1154  Tot=              0.1338
 Quadrupole moment (field-independent basis, Debye-Ang):
   XX=            -23.6738   YY=            -23.0977   ZZ=            -29.1249
   XY=              0.1427   XZ=             -0.3710   YZ=              0.0423

 1\1\GINC-NODE34\SP\RB2PLYPD3-FC\def2QZVP\C4H6\BOITTIER\26-Aug-2020\0\\
 #p B2PLYPD3/Def2QZVP\\butadiene\\0,1\C,0,-3.815416,0.234879,0.009717\C
 ,0,-2.705974,-0.511996,0.0641\C,0,-1.389983,0.057232,0.033972\C,0,-0.2
 88587,-0.639749,0.008203\H,0,-4.832611,-0.232169,-0.176715\H,0,-3.8310
 52,1.310626,-0.0436\H,0,-2.829891,-1.611512,0.160339\H,0,-1.292533,1.1
 27246,0.027721\H,0,-0.314247,-1.72589,0.024788\H,0,0.683631,-0.182339,
 -0.037682\\Version=ES64L-G09RevD.01\State=1-A\HF=-155.6954816\MP2=-155
 .9210158\RMSD=5.935e-09\PG=C01 [X(C4H6)]\\@

 Normal termination of Gaussian 09 at Wed Aug 26 10:59:35 2020.
