 Gaussian 09, Revision D.01,
 Gaussian 09:  ES64L-G09RevD.01 24-Apr-2013

 --------------------
 #p B2PLYPD3/Def2QZVP
 --------------------

 ---------
 butadiene
 ---------
 Symbolic Z-matrix:
 Charge =  0 Multiplicity = 1

                         Standard orientation:
 ---------------------------------------------------------------------
 Center     Atomic      Atomic             Coordinates (Angstroms)
 Number     Number       Type             X           Y           Z
 ---------------------------------------------------------------------
      1          6           0        1.842058   -0.100152   -0.028852
      2          6           0        0.578471    0.377668    0.032661
      3          6           0       -0.603490   -0.415363    0.058175
      4          6           0       -1.828004    0.112145   -0.043216
      5          1           0        2.665683    0.622605   -0.055085
      6          1           0        2.125041   -1.123405   -0.051455
      7          1           0        0.391337    1.426126    0.074515
      8          1           0       -0.451587   -1.496515   -0.003844
      9          1           0       -1.928470    1.238825   -0.052626
     10          1           0       -2.736211   -0.513427   -0.024111
 ---------------------------------------------------------------------

 SCF Done:  E(RB2PLYPD3) =  -155.695190092     A.U. after   11 cycles
 E2(B2PLYPD3) =    -0.2266383933D+00 E(B2PLYPD3) =    -0.15592182848572D+03

 The electronic state is 1-A.
 Alpha  occ. eigenvalues --  -10.62447 -10.62345 -10.62275 -10.61705  -0.93365
 Alpha  occ. eigenvalues --   -0.84444  -0.70403  -0.64120  -0.54645  -0.53399
 Alpha  occ. eigenvalues --   -0.46614  -0.45399  -0.41170  -0.38353  -0.27343
 Alpha virt. eigenvalues --    0.01284   0.06947   0.07345   0.08028   0.09645
 Alpha virt. eigenvalues --    0.11719   0.12295   0.14831   0.15471   0.16241
 Alpha virt. eigenvalues --    0.18623   0.20045   0.21785   0.22570   0.24028

 Mulliken charges:
               1
     1  C   -0.184967
     2  C   -0.026123
     3  C   -0.026981
     4  C   -0.171631
     5  H    0.079191
     6  H    0.074034
     7  H    0.055573
     8  H    0.054424
     9  H    0.058595
    10  H    0.087884
 Sum of Mulliken charges =   0.00000

 Dipole moment (field-independent basis, Debye):
    X=             -0.0294    Y=             -0.0452    Z=             -0.0376  Tot=              0.0657
 Quadrupole moment (field-independent basis, Debye-Ang):
   XX=            -23.6488   YY=            -23.1200   ZZ=            -29.3462
   XY=             -0.2743   XZ=             -0.0545   YZ=              0.0844

 1\1\GINC-NODE39\SP\RB2PLYPD3-FC\def2QZVP\C4H6\BOITTIER\26-Aug-2020\0\\
 #p B2PLYPD3/Def2QZVP\\butadiene\\0,1\C,0,-3.845421,0.222692,-0.014173\
 C,0,-2.692595,-0.479611,0.066503\C,0,-1.383641,0.080045,0.069051\C,0,-
 0.279015,-0.669144,-0.011554\H,0,-4.789226,-0.334655,-0.018785\H,0,-3.
 933155,1.279422,-0.071291\H,0,-2.703658,-1.542623,0.143433\H,0,-1.3319
 49,1.167943,-0.029015\H,0,-0.389965,-1.79453,0.016485\H,0,0.729787,-0.
 223203,-0.010631\\Version=ES64L-G09RevD.01\State=1-A\HF=-155.6951901\M
 P2=-155.9218285\RMSD=7.653e-09\PG=C01 [X(C4H6)]\\@

 Normal termination of Gaussian 09 at Wed Aug 26 09:18:10 2020.
