 Gaussian 09, Revision D.01,
 Gaussian 09:  ES64L-G09RevD.01 24-Apr-2013

 --------------------
 #p B2PLYPD3/Def2QZVP
 --------------------

 ---------
 butadiene
 ---------
 Symbolic Z-matrix:
 Charge =  0 Multiplicity = 1

                         Standard orientation:
 ---------------------------------------------------------------------
 Center     Atomic      Atomic             Coordinates (Angstroms)
 Number     Number       Type             X           Y           Z
 ---------------------------------------------------------------------
      1          6           0        1.828639    0.099503    0.011225
      2          6           0        0.603481   -0.389003   -0.019012
      3          6           0       -0.598303    0.414178   -0.026848
      4          6           0       -1.830628   -0.117073    0.018653
      5          1           0        2.696537   -0.549335   -0.014915
      6          1           0        1.963919    1.185833    0.134402
      7          1           0        0.454642   -1.453658   -0.031205
      8          1           0       -0.461266    1.463303   -0.081258
      9          1           0       -1.974981   -1.190001    0.064895
     10          1           0       -2.697978    0.498229    0.023972
 ---------------------------------------------------------------------

 SCF Done:  E(RB2PLYPD3) =  -155.700082337     A.U. after   11 cycles
 E2(B2PLYPD3) =    -0.2253653135D+00 E(B2PLYPD3) =    -0.15592544765050D+03

 The electronic state is 1-A.
 Alpha  occ. eigenvalues --  -10.62241 -10.61927 -10.61436 -10.61391  -0.93317
 Alpha  occ. eigenvalues --   -0.85009  -0.70190  -0.64392  -0.54722  -0.54016
 Alpha  occ. eigenvalues --   -0.46831  -0.45691  -0.41315  -0.38230  -0.27668
 Alpha virt. eigenvalues --    0.01816   0.07039   0.07436   0.08140   0.09644
 Alpha virt. eigenvalues --    0.11761   0.12443   0.14747   0.15821   0.16160
 Alpha virt. eigenvalues --    0.18697   0.20478   0.21518   0.22902   0.23994

 Mulliken charges:
               1
     1  C   -0.178618
     2  C   -0.021131
     3  C   -0.036198
     4  C   -0.178092
     5  H    0.087782
     6  H    0.062420
     7  H    0.052533
     8  H    0.058374
     9  H    0.066303
    10  H    0.086627
 Sum of Mulliken charges =   0.00000

 Dipole moment (field-independent basis, Debye):
    X=             -0.0322    Y=             -0.0121    Z=              0.0594  Tot=              0.0687
 Quadrupole moment (field-independent basis, Debye-Ang):
   XX=            -23.6171   YY=            -23.0761   ZZ=            -29.1689
   XY=              0.0307   XZ=              0.0365   YZ=              0.0493

 1\1\GINC-NODE16\SP\RB2PLYPD3-FC\def2QZVP\C4H6\BOITTIER\26-Aug-2020\0\\
 #p B2PLYPD3/Def2QZVP\\butadiene\\0,1\C,0,-3.832207,0.213669,0.004916\C
 ,0,-2.715972,-0.487945,0.053093\C,0,-1.388347,0.08359,0.038767\C,0,-0.
 273079,-0.663681,0.012584\H,0,-4.803365,-0.26572,0.049179\H,0,-3.76847
 8,1.302172,-0.152202\H,0,-2.762809,-1.561036,0.098639\H,0,-1.332499,1.
 141333,0.0603\H,0,-0.326026,-1.745895,-0.00003\H,0,0.691523,-0.216511,
 -0.009829\\Version=ES64L-G09RevD.01\State=1-A\HF=-155.7000823\MP2=-155
 .9254477\RMSD=5.781e-09\PG=C01 [X(C4H6)]\\@

 Normal termination of Gaussian 09 at Wed Aug 26 15:22:05 2020.
