 Gaussian 09, Revision D.01,
 Gaussian 09:  ES64L-G09RevD.01 24-Apr-2013

 --------------------
 #p B2PLYPD3/Def2QZVP
 --------------------

 ---------
 butadiene
 ---------
 Symbolic Z-matrix:
 Charge =  0 Multiplicity = 1

                         Standard orientation:
 ---------------------------------------------------------------------
 Center     Atomic      Atomic             Coordinates (Angstroms)
 Number     Number       Type             X           Y           Z
 ---------------------------------------------------------------------
      1          6           0       -1.831009   -0.116661    0.014491
      2          6           0       -0.609328    0.438053   -0.026155
      3          6           0        0.584959   -0.404609    0.019979
      4          6           0        1.843022    0.100735   -0.012663
      5          1           0       -2.760951    0.456411   -0.003824
      6          1           0       -1.853890   -1.219207   -0.120669
      7          1           0       -0.480543    1.483431    0.117197
      8          1           0        0.422340   -1.455851    0.074932
      9          1           0        2.059909    1.179061   -0.056658
     10          1           0        2.687263   -0.548956    0.015109
 ---------------------------------------------------------------------

 SCF Done:  E(RB2PLYPD3) =  -155.695430928     A.U. after   11 cycles
 E2(B2PLYPD3) =    -0.2266099395D+00 E(B2PLYPD3) =    -0.15592204086729D+03

 The electronic state is 1-A.
 Alpha  occ. eigenvalues --  -10.62734 -10.62431 -10.62018 -10.61760  -0.92840
 Alpha  occ. eigenvalues --   -0.84417  -0.69805  -0.64588  -0.54560  -0.53495
 Alpha  occ. eigenvalues --   -0.46517  -0.45362  -0.41642  -0.37802  -0.27434
 Alpha virt. eigenvalues --    0.01570   0.07078   0.07387   0.08103   0.08996
 Alpha virt. eigenvalues --    0.11695   0.12511   0.14548   0.15522   0.16311
 Alpha virt. eigenvalues --    0.18646   0.19926   0.21646   0.23013   0.24112

 Mulliken charges:
               1
     1  C   -0.173551
     2  C   -0.029436
     3  C   -0.040346
     4  C   -0.180149
     5  H    0.086308
     6  H    0.058422
     7  H    0.066407
     8  H    0.060654
     9  H    0.067129
    10  H    0.084563
 Sum of Mulliken charges =   0.00000

 Dipole moment (field-independent basis, Debye):
    X=             -0.0154    Y=              0.0354    Z=              0.0209  Tot=              0.0439
 Quadrupole moment (field-independent basis, Debye-Ang):
   XX=            -23.6463   YY=            -23.0751   ZZ=            -29.3586
   XY=              0.0354   XZ=              0.0943   YZ=              0.1407

 1\1\GINC-NODE01\SP\RB2PLYPD3-FC\def2QZVP\C4H6\BOITTIER\26-Aug-2020\0\\
 #p B2PLYPD3/Def2QZVP\\butadiene\\0,1\C,0,-3.829592,0.233959,0.005632\C
 ,0,-2.729064,-0.532876,0.057264\C,0,-1.401567,0.077558,-0.00316\C,0,-0
 .256305,-0.647499,0.039605\H,0,-4.848196,-0.160001,0.033575\H,0,-3.651
 245,1.324521,0.120815\H,0,-2.792898,-1.58664,-0.06706\H,0,-1.370435,1.
 139687,-0.077242\H,0,-0.239027,-1.746321,0.103263\H,0,0.691937,-0.1627
 92,0.000754\\Version=ES64L-G09RevD.01\State=1-A\HF=-155.6954309\MP2=-1
 55.9220409\RMSD=5.298e-09\PG=C01 [X(C4H6)]\\@

 Normal termination of Gaussian 09 at Wed Aug 26 09:55:43 2020.
