 Gaussian 09, Revision D.01,
 Gaussian 09:  ES64L-G09RevD.01 24-Apr-2013

 --------------------
 #p B2PLYPD3/Def2QZVP
 --------------------

 ---------
 butadiene
 ---------
 Symbolic Z-matrix:
 Charge =  0 Multiplicity = 1

                         Standard orientation:
 ---------------------------------------------------------------------
 Center     Atomic      Atomic             Coordinates (Angstroms)
 Number     Number       Type             X           Y           Z
 ---------------------------------------------------------------------
      1          6           0        1.847294   -0.117291   -0.028710
      2          6           0        0.607107    0.395941    0.043812
      3          6           0       -0.612108   -0.386293    0.018460
      4          6           0       -1.844760    0.118263   -0.041957
      5          1           0        2.756373    0.477070   -0.000125
      6          1           0        2.028394   -1.120073   -0.134246
      7          1           0        0.514547    1.482375    0.073453
      8          1           0       -0.560879   -1.502757    0.156168
      9          1           0       -2.064419    1.166820   -0.058646
     10          1           0       -2.659222   -0.567155    0.013766
 ---------------------------------------------------------------------

 SCF Done:  E(RB2PLYPD3) =  -155.695324584     A.U. after   11 cycles
 E2(B2PLYPD3) =    -0.2257277050D+00 E(B2PLYPD3) =    -0.15592105228887D+03

 The electronic state is 1-A.
 Alpha  occ. eigenvalues --  -10.62892 -10.62798 -10.61167 -10.61093  -0.92855
 Alpha  occ. eigenvalues --   -0.85117  -0.70692  -0.63877  -0.54855  -0.54228
 Alpha  occ. eigenvalues --   -0.46504  -0.45784  -0.41182  -0.37931  -0.27651
 Alpha virt. eigenvalues --    0.01534   0.07021   0.07485   0.07898   0.09678
 Alpha virt. eigenvalues --    0.11587   0.12513   0.14813   0.15716   0.16459
 Alpha virt. eigenvalues --    0.18890   0.20277   0.22014   0.22332   0.23848

 Mulliken charges:
               1
     1  C   -0.169940
     2  C   -0.037062
     3  C   -0.027097
     4  C   -0.177637
     5  H    0.080153
     6  H    0.068925
     7  H    0.057820
     8  H    0.051303
     9  H    0.069931
    10  H    0.083605
 Sum of Mulliken charges =   0.00000

 Dipole moment (field-independent basis, Debye):
    X=              0.0137    Y=             -0.0061    Z=              0.0748  Tot=              0.0763
 Quadrupole moment (field-independent basis, Debye-Ang):
   XX=            -23.2651   YY=            -23.1412   ZZ=            -29.2093
   XY=             -0.1815   XZ=             -0.2815   YZ=             -0.0385

 1\1\GINC-NODE21\SP\RB2PLYPD3-FC\def2QZVP\C4H6\BOITTIER\26-Aug-2020\0\\
 #p B2PLYPD3/Def2QZVP\\butadiene\\0,1\C,0,-3.850231,0.225672,-0.012376\
 C,0,-2.719631,-0.495714,0.077485\C,0,-1.38184,0.059052,0.037901\C,0,-0
 .257186,-0.655748,-0.005376\H,0,-4.849673,-0.198668,0.027088\H,0,-3.85
 2158,1.241765,-0.14299\H,0,-2.819609,-1.580429,0.133915\H,0,-1.235824,
 1.170174,0.148202\H,0,-0.225403,-1.72668,0.004315\H,0,0.665167,-0.1230
 81,0.036854\\Version=ES64L-G09RevD.01\State=1-A\HF=-155.6953246\MP2=-1
 55.9210523\RMSD=5.836e-09\PG=C01 [X(C4H6)]\\@

 Normal termination of Gaussian 09 at Wed Aug 26 09:05:43 2020.
