 Gaussian 09, Revision D.01,
 Gaussian 09:  ES64L-G09RevD.01 24-Apr-2013

 --------------------
 #p B2PLYPD3/Def2QZVP
 --------------------

 ---------
 butadiene
 ---------
 Symbolic Z-matrix:
 Charge =  0 Multiplicity = 1

                         Standard orientation:
 ---------------------------------------------------------------------
 Center     Atomic      Atomic             Coordinates (Angstroms)
 Number     Number       Type             X           Y           Z
 ---------------------------------------------------------------------
      1          6           0        1.824904    0.106905    0.050574
      2          6           0        0.601658   -0.426852   -0.081908
      3          6           0       -0.589740    0.419035   -0.037816
      4          6           0       -1.804314   -0.130973    0.013602
      5          1           0        2.662573   -0.562467    0.236149
      6          1           0        1.961550    1.188565   -0.048674
      7          1           0        0.330442   -1.398027   -0.115546
      8          1           0       -0.473932    1.524917   -0.056194
      9          1           0       -2.032084   -1.142720    0.119582
     10          1           0       -2.643596    0.581046    0.197973
 ---------------------------------------------------------------------

 SCF Done:  E(RB2PLYPD3) =  -155.685942077     A.U. after   11 cycles
 E2(B2PLYPD3) =    -0.2261812197D+00 E(B2PLYPD3) =    -0.15591212329695D+03

 The electronic state is 1-A.
 Alpha  occ. eigenvalues --  -10.62646 -10.61906 -10.61769 -10.61151  -0.93269
 Alpha  occ. eigenvalues --   -0.84671  -0.70058  -0.64998  -0.54756  -0.53305
 Alpha  occ. eigenvalues --   -0.46680  -0.46480  -0.40842  -0.37778  -0.27453
 Alpha virt. eigenvalues --    0.01855   0.06925   0.07430   0.08145   0.09005
 Alpha virt. eigenvalues --    0.11935   0.12278   0.14893   0.15666   0.15963
 Alpha virt. eigenvalues --    0.18538   0.20396   0.21268   0.23136   0.24476

 Mulliken charges:
               1
     1  C   -0.178114
     2  C   -0.046494
     3  C   -0.016837
     4  C   -0.183162
     5  H    0.083742
     6  H    0.077410
     7  H    0.071579
     8  H    0.053674
     9  H    0.070496
    10  H    0.067707
 Sum of Mulliken charges =   0.00000

 Dipole moment (field-independent basis, Debye):
    X=              0.0266    Y=             -0.0510    Z=              0.2182  Tot=              0.2256
 Quadrupole moment (field-independent basis, Debye-Ang):
   XX=            -24.4085   YY=            -22.7952   ZZ=            -29.1438
   XY=              0.4931   XZ=             -0.2047   YZ=             -0.1987

 1\1\GINC-NODE28\SP\RB2PLYPD3-FC\def2QZVP\C4H6\BOITTIER\26-Aug-2020\0\\
 #p B2PLYPD3/Def2QZVP\\butadiene\\0,1\C,0,-3.820803,0.232539,-0.033134\
 C,0,-2.718121,-0.51768,0.108438\C,0,-1.390007,0.090139,0.048705\C,0,-0
 .299562,-0.677655,0.006702\H,0,-4.769327,-0.271931,-0.206338\H,0,-3.75
 2891,1.322273,0.046729\H,0,-2.63272,-1.521662,0.159403\H,0,-1.297406,1
 .198357,0.047269\H,0,-0.264934,-1.715836,-0.081183\H,0,0.657123,-0.138
 094,-0.190747\\Version=ES64L-G09RevD.01\State=1-A\HF=-155.6859421\MP2=
 -155.9121233\RMSD=7.032e-09\PG=C01 [X(C4H6)]\\@

 Normal termination of Gaussian 09 at Wed Aug 26 14:43:50 2020.
