 Gaussian 09, Revision D.01,
 Gaussian 09:  ES64L-G09RevD.01 24-Apr-2013

 --------------------
 #p B2PLYPD3/Def2QZVP
 --------------------

 ---------
 butadiene
 ---------
 Symbolic Z-matrix:
 Charge =  0 Multiplicity = 1

                         Standard orientation:
 ---------------------------------------------------------------------
 Center     Atomic      Atomic             Coordinates (Angstroms)
 Number     Number       Type             X           Y           Z
 ---------------------------------------------------------------------
      1          6           0        1.827027   -0.122863    0.017430
      2          6           0        0.611126    0.437129   -0.009693
      3          6           0       -0.593037   -0.396439   -0.026456
      4          6           0       -1.835593    0.092817    0.036341
      5          1           0        2.738660    0.474265   -0.104551
      6          1           0        1.982622   -1.193040    0.134175
      7          1           0        0.448560    1.481622   -0.000686
      8          1           0       -0.436244   -1.471603   -0.088743
      9          1           0       -2.010030    1.179250    0.006215
     10          1           0       -2.780707   -0.534353   -0.052137
 ---------------------------------------------------------------------

 SCF Done:  E(RB2PLYPD3) =  -155.695288826     A.U. after   11 cycles
 E2(B2PLYPD3) =    -0.2263492973D+00 E(B2PLYPD3) =    -0.15592163812344D+03

 The electronic state is 1-A.
 Alpha  occ. eigenvalues --  -10.62670 -10.62579 -10.62198 -10.61911  -0.92907
 Alpha  occ. eigenvalues --   -0.84512  -0.69597  -0.64449  -0.54279  -0.53384
 Alpha  occ. eigenvalues --   -0.46972  -0.45200  -0.40900  -0.37874  -0.27645
 Alpha virt. eigenvalues --    0.01691   0.06951   0.07347   0.08051   0.09227
 Alpha virt. eigenvalues --    0.11673   0.12459   0.14472   0.15809   0.16128
 Alpha virt. eigenvalues --    0.18830   0.20368   0.21585   0.22819   0.23521

 Mulliken charges:
               1
     1  C   -0.171100
     2  C   -0.040468
     3  C   -0.029487
     4  C   -0.169707
     5  H    0.080825
     6  H    0.069266
     7  H    0.066827
     8  H    0.057812
     9  H    0.058090
    10  H    0.077942
 Sum of Mulliken charges =   0.00000

 Dipole moment (field-independent basis, Debye):
    X=              0.0719    Y=              0.0135    Z=             -0.1207  Tot=              0.1411
 Quadrupole moment (field-independent basis, Debye-Ang):
   XX=            -23.5746   YY=            -23.1582   ZZ=            -29.3409
   XY=             -0.3308   XZ=              0.1418   YZ=             -0.0955

 1\1\GINC-NODE07\SP\RB2PLYPD3-FC\def2QZVP\C4H6\BOITTIER\26-Aug-2020\0\\
 #p B2PLYPD3/Def2QZVP\\butadiene\\0,1\C,0,-3.824683,0.239589,0.035801\C
 ,0,-2.731152,-0.532916,0.022834\C,0,-1.395442,0.066827,-0.01338\C,0,-0
 .262477,-0.638858,0.061855\H,0,-4.830249,-0.1843,-0.072233\H,0,-3.7824
 13,1.322678,0.126628\H,0,-2.761407,-1.589034,0.057108\H,0,-1.354134,1.
 150774,-0.101654\H,0,-0.288845,-1.739295,0.058025\H,0,0.780665,-0.1965
 43,-0.041215\\Version=ES64L-G09RevD.01\State=1-A\HF=-155.6952888\MP2=-
 155.9216381\RMSD=6.462e-09\PG=C01 [X(C4H6)]\\@

 Normal termination of Gaussian 09 at Wed Aug 26 10:21:44 2020.
