 Gaussian 09, Revision D.01,
 Gaussian 09:  ES64L-G09RevD.01 24-Apr-2013

 --------------------
 #p B2PLYPD3/Def2QZVP
 --------------------

 ---------
 butadiene
 ---------
 Symbolic Z-matrix:
 Charge =  0 Multiplicity = 1

                         Standard orientation:
 ---------------------------------------------------------------------
 Center     Atomic      Atomic             Coordinates (Angstroms)
 Number     Number       Type             X           Y           Z
 ---------------------------------------------------------------------
      1          6           0       -1.839326    0.102125   -0.024826
      2          6           0       -0.601940   -0.408823    0.000469
      3          6           0        0.595539    0.378444    0.027254
      4          6           0        1.841646   -0.102271   -0.008488
      5          1           0       -2.780470   -0.435661    0.013861
      6          1           0       -1.953529    1.209004   -0.084111
      7          1           0       -0.473553   -1.440943    0.180074
      8          1           0        0.532101    1.476716    0.100859
      9          1           0        2.003662   -1.152825   -0.155306
     10          1           0        2.696277    0.526863   -0.021832
 ---------------------------------------------------------------------

 SCF Done:  E(RB2PLYPD3) =  -155.696111308     A.U. after   11 cycles
 E2(B2PLYPD3) =    -0.2259467087D+00 E(B2PLYPD3) =    -0.15592205801716D+03

 The electronic state is 1-A.
 Alpha  occ. eigenvalues --  -10.62504 -10.62341 -10.62096 -10.61109  -0.93291
 Alpha  occ. eigenvalues --   -0.84930  -0.70493  -0.64156  -0.55077  -0.54006
 Alpha  occ. eigenvalues --   -0.47155  -0.44792  -0.41355  -0.38098  -0.27623
 Alpha virt. eigenvalues --    0.01443   0.07077   0.07541   0.07972   0.09582
 Alpha virt. eigenvalues --    0.11586   0.12634   0.14562   0.15579   0.16530
 Alpha virt. eigenvalues --    0.18815   0.20031   0.21671   0.22714   0.23791

 Mulliken charges:
               1
     1  C   -0.168459
     2  C   -0.039805
     3  C   -0.021513
     4  C   -0.177402
     5  H    0.087835
     6  H    0.056170
     7  H    0.065722
     8  H    0.048871
     9  H    0.061598
    10  H    0.086984
 Sum of Mulliken charges =   0.00000

 Dipole moment (field-independent basis, Debye):
    X=             -0.0395    Y=             -0.0040    Z=              0.0454  Tot=              0.0603
 Quadrupole moment (field-independent basis, Debye-Ang):
   XX=            -23.1231   YY=            -23.4162   ZZ=            -29.1661
   XY=              0.0764   XZ=             -0.3404   YZ=             -0.0487

 1\1\GINC-NODE27\SP\RB2PLYPD3-FC\def2QZVP\C4H6\BOITTIER\26-Aug-2020\0\\
 #p B2PLYPD3/Def2QZVP\\butadiene\\0,1\C,0,-3.84229,0.217675,-0.000854\C
 ,0,-2.716414,-0.505841,0.041082\C,0,-1.397039,0.054256,0.040004\C,0,-0
 .257581,-0.643152,0.019896\H,0,-4.864314,-0.140921,0.056919\H,0,-3.756
 601,1.324455,-0.097991\H,0,-2.773924,-1.537617,0.255893\H,0,-1.262041,
 1.147932,0.075939\H,0,-0.287546,-1.710059,-0.090915\H,0,0.695885,-0.17
 8369,-0.015622\\Version=ES64L-G09RevD.01\State=1-A\HF=-155.6961113\MP2
 =-155.922058\RMSD=3.344e-09\PG=C01 [X(C4H6)]\\@

 Normal termination of Gaussian 09 at Wed Aug 26 10:17:46 2020.
