 Gaussian 09, Revision D.01,
 Gaussian 09:  ES64L-G09RevD.01 24-Apr-2013

 --------------------
 #p B2PLYPD3/Def2QZVP
 --------------------

 ---------
 butadiene
 ---------
 Symbolic Z-matrix:
 Charge =  0 Multiplicity = 1

                         Standard orientation:
 ---------------------------------------------------------------------
 Center     Atomic      Atomic             Coordinates (Angstroms)
 Number     Number       Type             X           Y           Z
 ---------------------------------------------------------------------
      1          6           0       -1.811718   -0.092511   -0.065654
      2          6           0       -0.617939    0.358119    0.011984
      3          6           0        0.592761   -0.417408    0.061800
      4          6           0        1.823760    0.120269   -0.026538
      5          1           0       -2.503613    0.600688   -0.032906
      6          1           0       -2.002961   -1.163514    0.114271
      7          1           0       -0.465476    1.494953    0.151834
      8          1           0        0.413920   -1.464535    0.020848
      9          1           0        1.907783    1.221385   -0.002188
     10          1           0        2.729171   -0.499792   -0.141408
 ---------------------------------------------------------------------

 SCF Done:  E(RB2PLYPD3) =  -155.678356277     A.U. after   12 cycles
 E2(B2PLYPD3) =    -0.2254136510D+00 E(B2PLYPD3) =    -0.15590376992796D+03

 The electronic state is 1-A.
 Alpha  occ. eigenvalues --  -10.62336 -10.62172 -10.61918 -10.59505  -0.93917
 Alpha  occ. eigenvalues --   -0.85821  -0.70530  -0.63162  -0.55457  -0.53861
 Alpha  occ. eigenvalues --   -0.47134  -0.45440  -0.40857  -0.38211  -0.28064
 Alpha virt. eigenvalues --    0.01964   0.07011   0.07216   0.08125   0.09744
 Alpha virt. eigenvalues --    0.11811   0.12408   0.14817   0.15354   0.16334
 Alpha virt. eigenvalues --    0.18683   0.19848   0.21576   0.23151   0.24656

 Mulliken charges:
               1
     1  C   -0.179771
     2  C    0.007009
     3  C   -0.042481
     4  C   -0.170951
     5  H    0.086607
     6  H    0.063596
     7  H    0.026142
     8  H    0.053672
     9  H    0.067007
    10  H    0.089169
 Sum of Mulliken charges =   0.00000

 Dipole moment (field-independent basis, Debye):
    X=              0.0281    Y=             -0.0258    Z=              0.1558  Tot=              0.1604
 Quadrupole moment (field-independent basis, Debye-Ang):
   XX=            -23.9136   YY=            -23.1405   ZZ=            -28.9977
   XY=             -0.0040   XZ=             -0.7337   YZ=              0.0866

 1\1\GINC-NODE28\SP\RB2PLYPD3-FC\def2QZVP\C4H6\BOITTIER\26-Aug-2020\0\\
 #p B2PLYPD3/Def2QZVP\\butadiene\\0,1\C,0,-3.815525,0.206532,0.072045\C
 ,0,-2.724457,-0.457113,0.014173\C,0,-1.391858,0.081817,-0.044598\C,0,-
 0.280707,-0.670126,0.065788\H,0,-4.622758,-0.348642,0.050314\H,0,-3.80
 6425,1.289702,-0.134482\H,0,-2.78273,-1.605711,-0.097726\H,0,-1.375657
 ,1.144667,-0.029659\H,0,-0.400075,-1.768241,0.067989\H,0,0.722732,-0.2
 23963,0.172971\\Version=ES64L-G09RevD.01\State=1-A\HF=-155.6783563\MP2
 =-155.9037699\RMSD=3.867e-09\PG=C01 [X(C4H6)]\\@

 Normal termination of Gaussian 09 at Wed Aug 26 13:13:41 2020.
