 Gaussian 09, Revision D.01,
 Gaussian 09:  ES64L-G09RevD.01 24-Apr-2013

 --------------------
 #p B2PLYPD3/Def2QZVP
 --------------------

 ---------
 butadiene
 ---------
 Symbolic Z-matrix:
 Charge =  0 Multiplicity = 1

                         Standard orientation:
 ---------------------------------------------------------------------
 Center     Atomic      Atomic             Coordinates (Angstroms)
 Number     Number       Type             X           Y           Z
 ---------------------------------------------------------------------
      1          6           0       -1.842640    0.088225    0.041438
      2          6           0       -0.586475   -0.401378   -0.023074
      3          6           0        0.601442    0.439557   -0.027187
      4          6           0        1.829242   -0.135396    0.012261
      5          1           0       -2.750676   -0.488774   -0.106805
      6          1           0       -1.996068    1.141385    0.104506
      7          1           0       -0.461078   -1.452423   -0.060881
      8          1           0        0.460992    1.522812   -0.084632
      9          1           0        2.012842   -1.191255    0.112806
     10          1           0        2.724574    0.522204    0.014377
 ---------------------------------------------------------------------

 SCF Done:  E(RB2PLYPD3) =  -155.695797348     A.U. after   11 cycles
 E2(B2PLYPD3) =    -0.2266303823D+00 E(B2PLYPD3) =    -0.15592242773022D+03

 The electronic state is 1-A.
 Alpha  occ. eigenvalues --  -10.63189 -10.62431 -10.62181 -10.61364  -0.92766
 Alpha  occ. eigenvalues --   -0.84313  -0.70027  -0.64657  -0.54262  -0.53854
 Alpha  occ. eigenvalues --   -0.46779  -0.45247  -0.41576  -0.37776  -0.27260
 Alpha virt. eigenvalues --    0.01389   0.06998   0.07428   0.08034   0.09166
 Alpha virt. eigenvalues --    0.11679   0.12499   0.14705   0.15828   0.16274
 Alpha virt. eigenvalues --    0.18823   0.20156   0.21823   0.22948   0.23519

 Mulliken charges:
               1
     1  C   -0.175838
     2  C   -0.029981
     3  C   -0.040993
     4  C   -0.174738
     5  H    0.082435
     6  H    0.057533
     7  H    0.063501
     8  H    0.064834
     9  H    0.076092
    10  H    0.077156
 Sum of Mulliken charges =   0.00000

 Dipole moment (field-independent basis, Debye):
    X=              0.0481    Y=             -0.0025    Z=             -0.0537  Tot=              0.0722
 Quadrupole moment (field-independent basis, Debye-Ang):
   XX=            -23.6480   YY=            -23.0015   ZZ=            -29.3676
   XY=             -0.3311   XZ=              0.4210   YZ=              0.0126

 1\1\GINC-NODE10\SP\RB2PLYPD3-FC\def2QZVP\C4H6\BOITTIER\26-Aug-2020\0\\
 #p B2PLYPD3/Def2QZVP\\butadiene\\0,1\C,0,-3.848034,0.210216,0.053183\C
 ,0,-2.702325,-0.502079,0.010652\C,0,-1.380941,0.107546,-0.014564\C,0,-
 0.278588,-0.680074,0.049408\H,0,-4.846236,-0.196026,-0.080961\H,0,-3.8
 06707,1.275179,0.081649\H,0,-2.770802,-1.559032,0.007227\H,0,-1.321482
 ,1.195804,-0.10745\H,0,-0.290581,-1.747879,0.184706\H,0,0.721682,-0.19
 7054,0.034852\\Version=ES64L-G09RevD.01\State=1-A\HF=-155.6957973\MP2=
 -155.9224277\RMSD=6.697e-09\PG=C01 [X(C4H6)]\\@

 Normal termination of Gaussian 09 at Wed Aug 26 09:19:59 2020.
