 Gaussian 09, Revision D.01,
 Gaussian 09:  ES64L-G09RevD.01 24-Apr-2013

 --------------------
 #p B2PLYPD3/Def2QZVP
 --------------------

 ---------
 butadiene
 ---------
 Symbolic Z-matrix:
 Charge =  0 Multiplicity = 1

                         Standard orientation:
 ---------------------------------------------------------------------
 Center     Atomic      Atomic             Coordinates (Angstroms)
 Number     Number       Type             X           Y           Z
 ---------------------------------------------------------------------
      1          6           0       -1.838558    0.107471   -0.017414
      2          6           0       -0.604352   -0.403028    0.014730
      3          6           0        0.595983    0.388504    0.007604
      4          6           0        1.849580   -0.101024   -0.022418
      5          1           0       -2.710643   -0.511284   -0.019492
      6          1           0       -2.013635    1.179097   -0.015839
      7          1           0       -0.483646   -1.479263    0.096196
      8          1           0        0.437573    1.475764    0.049428
      9          1           0        2.051441   -1.147746   -0.057405
     10          1           0        2.702987    0.531890    0.052105
 ---------------------------------------------------------------------

 SCF Done:  E(RB2PLYPD3) =  -155.700246066     A.U. after   11 cycles
 E2(B2PLYPD3) =    -0.2258239616D+00 E(B2PLYPD3) =    -0.15592607002802D+03

 The electronic state is 1-A.
 Alpha  occ. eigenvalues --  -10.62733 -10.62441 -10.61501 -10.61357  -0.93068
 Alpha  occ. eigenvalues --   -0.84834  -0.70745  -0.64008  -0.54927  -0.53933
 Alpha  occ. eigenvalues --   -0.46847  -0.45716  -0.41255  -0.38110  -0.27505
 Alpha virt. eigenvalues --    0.01422   0.07035   0.07434   0.08072   0.09713
 Alpha virt. eigenvalues --    0.11644   0.12504   0.14822   0.15833   0.16236
 Alpha virt. eigenvalues --    0.18854   0.20422   0.21914   0.22723   0.23597

 Mulliken charges:
               1
     1  C   -0.174944
     2  C   -0.028061
     3  C   -0.028395
     4  C   -0.178509
     5  H    0.086430
     6  H    0.063717
     7  H    0.054923
     8  H    0.051440
     9  H    0.066564
    10  H    0.086834
 Sum of Mulliken charges =   0.00000

 Dipole moment (field-independent basis, Debye):
    X=             -0.0313    Y=             -0.0221    Z=              0.1087  Tot=              0.1152
 Quadrupole moment (field-independent basis, Debye-Ang):
   XX=            -23.2691   YY=            -23.1995   ZZ=            -29.2463
   XY=             -0.2452   XZ=              0.1094   YZ=              0.0453

 1\1\GINC-NODE06\SP\RB2PLYPD3-FC\def2QZVP\C4H6\BOITTIER\26-Aug-2020\0\\
 #p B2PLYPD3/Def2QZVP\\butadiene\\0,1\C,0,-3.839997,0.2277,0.002074\C,0
 ,-2.720055,-0.499039,0.051957\C,0,-1.395099,0.058769,0.025153\C,0,-0.2
 52427,-0.652694,0.012343\H,0,-4.810642,-0.220698,0.015549\H,0,-3.81587
 8,1.312863,-0.027533\H,0,-2.79824,-1.576395,0.164566\H,0,-1.35162,1.15
 7397,0.035372\H,0,-0.245748,-1.719247,0.007905\H,0,0.70265,-0.184886,0
 .07083\\Version=ES64L-G09RevD.01\State=1-A\HF=-155.7002461\MP2=-155.92
 607\RMSD=4.289e-09\PG=C01 [X(C4H6)]\\@

 Normal termination of Gaussian 09 at Wed Aug 26 18:40:15 2020.
