 Gaussian 09, Revision D.01,
 Gaussian 09:  ES64L-G09RevD.01 24-Apr-2013

 --------------------
 #p B2PLYPD3/Def2QZVP
 --------------------

 ---------
 butadiene
 ---------
 Symbolic Z-matrix:
 Charge =  0 Multiplicity = 1

                         Standard orientation:
 ---------------------------------------------------------------------
 Center     Atomic      Atomic             Coordinates (Angstroms)
 Number     Number       Type             X           Y           Z
 ---------------------------------------------------------------------
      1          6           0       -1.803686   -0.138607    0.024646
      2          6           0       -0.599642    0.436820   -0.048500
      3          6           0        0.601902   -0.377340   -0.104586
      4          6           0        1.837810    0.105669    0.044715
      5          1           0       -2.645082    0.468518    0.301733
      6          1           0       -1.947127   -1.241940    0.048925
      7          1           0       -0.606891    1.488924   -0.115747
      8          1           0        0.464826   -1.444704   -0.064022
      9          1           0        1.913298    1.186671    0.047761
     10          1           0        2.602669   -0.616724    0.283697
 ---------------------------------------------------------------------

 SCF Done:  E(RB2PLYPD3) =  -155.689709300     A.U. after   11 cycles
 E2(B2PLYPD3) =    -0.2262743208D+00 E(B2PLYPD3) =    -0.15591598362060D+03

 The electronic state is 1-A.
 Alpha  occ. eigenvalues --  -10.62268 -10.62191 -10.61526 -10.61284  -0.93284
 Alpha  occ. eigenvalues --   -0.85131  -0.69496  -0.64452  -0.55018  -0.53655
 Alpha  occ. eigenvalues --   -0.46178  -0.45084  -0.42206  -0.37860  -0.27481
 Alpha virt. eigenvalues --    0.01804   0.07027   0.07428   0.08011   0.09209
 Alpha virt. eigenvalues --    0.11838   0.12371   0.14555   0.15519   0.16244
 Alpha virt. eigenvalues --    0.18521   0.19949   0.21179   0.23559   0.24302

 Mulliken charges:
               1
     1  C   -0.169022
     2  C   -0.042092
     3  C   -0.024080
     4  C   -0.182069
     5  H    0.076198
     6  H    0.059863
     7  H    0.064490
     8  H    0.055886
     9  H    0.071117
    10  H    0.089708
 Sum of Mulliken charges =   0.00000

 Dipole moment (field-independent basis, Debye):
    X=             -0.0789    Y=              0.0049    Z=              0.3605  Tot=              0.3690
 Quadrupole moment (field-independent basis, Debye-Ang):
   XX=            -24.6007   YY=            -22.7697   ZZ=            -29.0689
   XY=             -0.2482   XZ=              0.0480   YZ=             -0.1580

 1\1\GINC-NODE22\SP\RB2PLYPD3-FC\def2QZVP\C4H6\BOITTIER\26-Aug-2020\0\\
 #p B2PLYPD3/Def2QZVP\\butadiene\\0,1\C,0,-3.806793,0.240726,-0.01921\C
 ,0,-2.722505,-0.533841,0.083525\C,0,-1.395969,0.057463,0.10281\C,0,-0.
 265512,-0.64239,-0.021007\H,0,-4.743817,-0.220982,-0.268486\H,0,-3.753
 76,1.349658,-0.096446\H,0,-2.914556,-1.563803,0.20096\H,0,-1.343116,1.
 129138,0.011038\H,0,-0.381682,-1.71868,0.027746\H,0,0.613049,-0.078297
 ,-0.292856\\Version=ES64L-G09RevD.01\State=1-A\HF=-155.6897093\MP2=-15
 5.9159836\RMSD=4.076e-09\PG=C01 [X(C4H6)]\\@

 Normal termination of Gaussian 09 at Wed Aug 26 14:47:56 2020.
