 Gaussian 09, Revision D.01,
 Gaussian 09:  ES64L-G09RevD.01 24-Apr-2013

 --------------------
 #p B2PLYPD3/Def2QZVP
 --------------------

 ---------
 butadiene
 ---------
 Symbolic Z-matrix:
 Charge =  0 Multiplicity = 1

                         Standard orientation:
 ---------------------------------------------------------------------
 Center     Atomic      Atomic             Coordinates (Angstroms)
 Number     Number       Type             X           Y           Z
 ---------------------------------------------------------------------
      1          6           0       -1.834549   -0.114034    0.016734
      2          6           0       -0.605216    0.407600   -0.020262
      3          6           0        0.603693   -0.400786   -0.013028
      4          6           0        1.837436    0.100474    0.007243
      5          1           0       -2.698183    0.538458    0.045534
      6          1           0       -2.003596   -1.195813   -0.047365
      7          1           0       -0.449169    1.490313   -0.003530
      8          1           0        0.450248   -1.474929    0.026394
      9          1           0        1.964805    1.182547    0.003428
     10          1           0        2.727714   -0.500097    0.031421
 ---------------------------------------------------------------------

 SCF Done:  E(RB2PLYPD3) =  -155.700743836     A.U. after   11 cycles
 E2(B2PLYPD3) =    -0.2258019326D+00 E(B2PLYPD3) =    -0.15592654576897D+03

 The electronic state is 1-A.
 Alpha  occ. eigenvalues --  -10.62652 -10.62409 -10.61731 -10.61438  -0.93019
 Alpha  occ. eigenvalues --   -0.84881  -0.70043  -0.63943  -0.54686  -0.53706
 Alpha  occ. eigenvalues --   -0.46839  -0.45448  -0.41042  -0.38161  -0.27713
 Alpha virt. eigenvalues --    0.01789   0.07033   0.07320   0.08099   0.09548
 Alpha virt. eigenvalues --    0.11707   0.12439   0.14650   0.15861   0.16073
 Alpha virt. eigenvalues --    0.18739   0.20467   0.21532   0.23037   0.23779

 Mulliken charges:
               1
     1  C   -0.176941
     2  C   -0.031031
     3  C   -0.024711
     4  C   -0.175974
     5  H    0.085986
     6  H    0.068588
     7  H    0.052791
     8  H    0.052193
     9  H    0.059980
    10  H    0.089121
 Sum of Mulliken charges =   0.00000

 Dipole moment (field-independent basis, Debye):
    X=             -0.0012    Y=             -0.0042    Z=              0.0243  Tot=              0.0247
 Quadrupole moment (field-independent basis, Debye-Ang):
   XX=            -23.5082   YY=            -23.1205   ZZ=            -29.2890
   XY=              0.1301   XZ=              0.0795   YZ=              0.0429

 1\1\GINC-NODE17\SP\RB2PLYPD3-FC\def2QZVP\C4H6\BOITTIER\26-Aug-2020\0\\
 #p B2PLYPD3/Def2QZVP\\butadiene\\0,1\C,0,-3.835741,0.228866,0.001813\C
 ,0,-2.721356,-0.506066,0.054263\C,0,-1.385851,0.06896,0.026462\C,0,-0.
 263652,-0.64828,0.02112\H,0,-4.803553,-0.256555,-0.010251\H,0,-3.80541
 ,1.324683,0.03641\H,0,-2.764458,-1.599171,0.067027\H,0,-1.341961,1.151
 662,-0.0422\H,0,-0.33476,-1.734999,0.054374\H,0,0.720736,-0.220157,-0.
 01834\\Version=ES64L-G09RevD.01\State=1-A\HF=-155.7007438\MP2=-155.926
 5458\RMSD=4.202e-09\PG=C01 [X(C4H6)]\\@

 Normal termination of Gaussian 09 at Wed Aug 26 20:17:33 2020.
