 Gaussian 09, Revision D.01,
 Gaussian 09:  ES64L-G09RevD.01 24-Apr-2013

 --------------------
 #p B2PLYPD3/Def2QZVP
 --------------------

 ---------
 butadiene
 ---------
 Symbolic Z-matrix:
 Charge =  0 Multiplicity = 1

                         Standard orientation:
 ---------------------------------------------------------------------
 Center     Atomic      Atomic             Coordinates (Angstroms)
 Number     Number       Type             X           Y           Z
 ---------------------------------------------------------------------
      1          6           0        1.828926    0.102710   -0.039527
      2          6           0        0.595551   -0.396981    0.018903
      3          6           0       -0.608708    0.415325    0.027682
      4          6           0       -1.821501   -0.112530   -0.030858
      5          1           0        2.691275   -0.499602    0.094002
      6          1           0        2.064024    1.156335   -0.122820
      7          1           0        0.501203   -1.456936    0.087177
      8          1           0       -0.532989    1.512433    0.162588
      9          1           0       -1.926443   -1.239241   -0.050636
     10          1           0       -2.762680    0.475863   -0.027509
 ---------------------------------------------------------------------

 SCF Done:  E(RB2PLYPD3) =  -155.695813602     A.U. after   11 cycles
 E2(B2PLYPD3) =    -0.2257770602D+00 E(B2PLYPD3) =    -0.15592159066189D+03

 The electronic state is 1-A.
 Alpha  occ. eigenvalues --  -10.62638 -10.62383 -10.62121 -10.61101  -0.93125
 Alpha  occ. eigenvalues --   -0.84993  -0.69782  -0.63906  -0.54688  -0.53836
 Alpha  occ. eigenvalues --   -0.46793  -0.44765  -0.41124  -0.38058  -0.27813
 Alpha virt. eigenvalues --    0.01910   0.07053   0.07344   0.07906   0.09555
 Alpha virt. eigenvalues --    0.11578   0.12491   0.14521   0.15727   0.16483
 Alpha virt. eigenvalues --    0.18808   0.19984   0.21759   0.22508   0.23865

 Mulliken charges:
               1
     1  C   -0.170503
     2  C   -0.035019
     3  C   -0.033661
     4  C   -0.165334
     5  H    0.080155
     6  H    0.062497
     7  H    0.061979
     8  H    0.059493
     9  H    0.055453
    10  H    0.084940
 Sum of Mulliken charges =   0.00000

 Dipole moment (field-independent basis, Debye):
    X=             -0.0010    Y=              0.0219    Z=              0.1640  Tot=              0.1655
 Quadrupole moment (field-independent basis, Debye-Ang):
   XX=            -23.3928   YY=            -23.1981   ZZ=            -29.2177
   XY=              0.0357   XZ=              0.1661   YZ=             -0.0703

 1\1\GINC-NODE17\SP\RB2PLYPD3-FC\def2QZVP\C4H6\BOITTIER\26-Aug-2020\0\\
 #p B2PLYPD3/Def2QZVP\\butadiene\\0,1\C,0,-3.834041,0.21334,0.052673\C,
 0,-2.710035,-0.500327,0.012554\C,0,-1.379975,0.082956,-0.017073\C,0,-0
 .28095,-0.651246,0.060506\H,0,-4.790527,-0.228795,-0.06525\H,0,-3.8767
 55,1.294027,0.103915\H,0,-2.806896,-1.561628,-0.023876\H,0,-1.258672,1
 .171412,-0.184787\H,0,-0.379093,-1.777468,0.114106\H,0,0.750251,-0.240
 97,0.042245\\Version=ES64L-G09RevD.01\State=1-A\HF=-155.6958136\MP2=-1
 55.9215907\RMSD=6.822e-09\PG=C01 [X(C4H6)]\\@

 Normal termination of Gaussian 09 at Wed Aug 26 22:18:38 2020.
