 Gaussian 09, Revision D.01,
 Gaussian 09:  ES64L-G09RevD.01 24-Apr-2013

 --------------------
 #p B2PLYPD3/Def2QZVP
 --------------------

 ---------
 butadiene
 ---------
 Symbolic Z-matrix:
 Charge =  0 Multiplicity = 1

                         Standard orientation:
 ---------------------------------------------------------------------
 Center     Atomic      Atomic             Coordinates (Angstroms)
 Number     Number       Type             X           Y           Z
 ---------------------------------------------------------------------
      1          6           0       -1.830863   -0.116018    0.023997
      2          6           0       -0.602324    0.410904   -0.017075
      3          6           0        0.590490   -0.396075   -0.014564
      4          6           0        1.840533    0.099554    0.013407
      5          1           0       -2.669137    0.528447   -0.016008
      6          1           0       -1.979116   -1.189832    0.011981
      7          1           0       -0.464642    1.487806   -0.055883
      8          1           0        0.410316   -1.432807   -0.017947
      9          1           0        2.005242    1.164154    0.070108
     10          1           0        2.710322   -0.547958   -0.026845
 ---------------------------------------------------------------------

 SCF Done:  E(RB2PLYPD3) =  -155.699786083     A.U. after   11 cycles
 E2(B2PLYPD3) =    -0.2257256707D+00 E(B2PLYPD3) =    -0.15592551175348D+03

 The electronic state is 1-A.
 Alpha  occ. eigenvalues --  -10.62335 -10.62099 -10.61613 -10.61297  -0.93228
 Alpha  occ. eigenvalues --   -0.84770  -0.70469  -0.64485  -0.54658  -0.54018
 Alpha  occ. eigenvalues --   -0.46598  -0.46088  -0.41504  -0.38140  -0.27443
 Alpha virt. eigenvalues --    0.01558   0.07032   0.07446   0.08165   0.09600
 Alpha virt. eigenvalues --    0.11779   0.12430   0.14829   0.15854   0.16059
 Alpha virt. eigenvalues --    0.18728   0.20560   0.21545   0.23043   0.23945

 Mulliken charges:
               1
     1  C   -0.181232
     2  C   -0.025599
     3  C   -0.030631
     4  C   -0.181049
     5  H    0.087410
     6  H    0.067125
     7  H    0.052691
     8  H    0.057875
     9  H    0.067018
    10  H    0.086393
 Sum of Mulliken charges =   0.00000

 Dipole moment (field-independent basis, Debye):
    X=             -0.0301    Y=              0.0007    Z=             -0.0542  Tot=              0.0620
 Quadrupole moment (field-independent basis, Debye-Ang):
   XX=            -23.6462   YY=            -23.0166   ZZ=            -29.2393
   XY=              0.1768   XZ=              0.1101   YZ=              0.0368

 1\1\GINC-NODE03\SP\RB2PLYPD3-FC\def2QZVP\C4H6\BOITTIER\26-Aug-2020\0\\
 #p B2PLYPD3/Def2QZVP\\butadiene\\0,1\C,0,-3.830172,0.234966,-0.003111\
 C,0,-2.719384,-0.50768,0.054057\C,0,-1.398481,0.065589,0.029465\C,0,-0
 .261105,-0.652221,0.016742\H,0,-4.772523,-0.242821,0.054609\H,0,-3.778
 269,1.317625,-0.021949\H,0,-2.782019,-1.589991,0.123777\H,0,-1.384815,
 1.117446,0.003032\H,0,-0.295336,-1.73012,-0.009337\H,0,0.71314,-0.1749
 71,0.039186\\Version=ES64L-G09RevD.01\State=1-A\HF=-155.6997861\MP2=-1
 55.9255118\RMSD=3.140e-09\PG=C01 [X(C4H6)]\\@

 Normal termination of Gaussian 09 at Wed Aug 26 22:12:40 2020.
