 Gaussian 09, Revision D.01,
 Gaussian 09:  ES64L-G09RevD.01 24-Apr-2013

 --------------------
 #p B2PLYPD3/Def2QZVP
 --------------------

 ---------
 butadiene
 ---------
 Symbolic Z-matrix:
 Charge =  0 Multiplicity = 1

                         Standard orientation:
 ---------------------------------------------------------------------
 Center     Atomic      Atomic             Coordinates (Angstroms)
 Number     Number       Type             X           Y           Z
 ---------------------------------------------------------------------
      1          6           0       -1.838273   -0.107694    0.025929
      2          6           0       -0.595468    0.407875   -0.024818
      3          6           0        0.602953   -0.417348   -0.007306
      4          6           0        1.834490    0.114927    0.011602
      5          1           0       -2.750252    0.500542   -0.048079
      6          1           0       -1.999089   -1.168975    0.041825
      7          1           0       -0.465836    1.485044   -0.026933
      8          1           0        0.478335   -1.472744   -0.039087
      9          1           0        1.988771    1.186941    0.074631
     10          1           0        2.725863   -0.517371   -0.034795
 ---------------------------------------------------------------------

 SCF Done:  E(RB2PLYPD3) =  -155.699696394     A.U. after   11 cycles
 E2(B2PLYPD3) =    -0.2261159590D+00 E(B2PLYPD3) =    -0.15592581235321D+03

 The electronic state is 1-A.
 Alpha  occ. eigenvalues --  -10.62738 -10.62466 -10.61750 -10.61692  -0.92893
 Alpha  occ. eigenvalues --   -0.84562  -0.69945  -0.64534  -0.54372  -0.53862
 Alpha  occ. eigenvalues --   -0.46504  -0.45565  -0.41485  -0.37961  -0.27470
 Alpha virt. eigenvalues --    0.01607   0.07000   0.07444   0.08054   0.09352
 Alpha virt. eigenvalues --    0.11674   0.12495   0.14634   0.15874   0.16187
 Alpha virt. eigenvalues --    0.18806   0.20428   0.21661   0.22936   0.23694

 Mulliken charges:
               1
     1  C   -0.173780
     2  C   -0.032705
     3  C   -0.035023
     4  C   -0.175216
     5  H    0.081684
     6  H    0.063297
     7  H    0.058728
     8  H    0.062700
     9  H    0.067490
    10  H    0.082823
 Sum of Mulliken charges =   0.00000

 Dipole moment (field-independent basis, Debye):
    X=              0.0157    Y=             -0.0215    Z=             -0.0519  Tot=              0.0584
 Quadrupole moment (field-independent basis, Debye-Ang):
   XX=            -23.5319   YY=            -23.0509   ZZ=            -29.3387
   XY=              0.1922   XZ=              0.0942   YZ=              0.0611

 1\1\GINC-NODE27\SP\RB2PLYPD3-FC\def2QZVP\C4H6\BOITTIER\26-Aug-2020\0\\
 #p B2PLYPD3/Def2QZVP\\butadiene\\0,1\C,0,-3.841418,0.222005,-0.00455\C
 ,0,-2.711946,-0.508116,0.06\C,0,-1.3843,0.086465,0.023342\C,0,-0.26917
 3,-0.659743,0.018657\H,0,-4.847956,-0.20957,0.083525\H,0,-3.808041,1.2
 94174,-0.046654\H,0,-2.778911,-1.590611,0.088688\H,0,-1.316216,1.14747
 ,0.029078\H,0,-0.311192,-1.743204,-0.017882\H,0,0.721866,-0.197858,0.0
 50341\\Version=ES64L-G09RevD.01\State=1-A\HF=-155.6996964\MP2=-155.925
 8124\RMSD=2.969e-09\PG=C01 [X(C4H6)]\\@

 Normal termination of Gaussian 09 at Wed Aug 26 21:03:12 2020.
