 Gaussian 09, Revision D.01,
 Gaussian 09:  ES64L-G09RevD.01 24-Apr-2013

 --------------------
 #p B2PLYPD3/Def2QZVP
 --------------------

 ---------
 butadiene
 ---------
 Symbolic Z-matrix:
 Charge =  0 Multiplicity = 1

                         Standard orientation:
 ---------------------------------------------------------------------
 Center     Atomic      Atomic             Coordinates (Angstroms)
 Number     Number       Type             X           Y           Z
 ---------------------------------------------------------------------
      1          6           0        1.836175    0.110797    0.015820
      2          6           0        0.603652   -0.409205   -0.009231
      3          6           0       -0.602545    0.389422   -0.022566
      4          6           0       -1.833520   -0.105735    0.003558
      5          1           0        2.769992   -0.475918   -0.017804
      6          1           0        1.949079    1.216816    0.066277
      7          1           0        0.473569   -1.487962   -0.068676
      8          1           0       -0.492607    1.469224   -0.025353
      9          1           0       -1.997970   -1.163982    0.115640
     10          1           0       -2.724639    0.530149    0.004430
 ---------------------------------------------------------------------

 SCF Done:  E(RB2PLYPD3) =  -155.699347342     A.U. after   11 cycles
 E2(B2PLYPD3) =    -0.2259521123D+00 E(B2PLYPD3) =    -0.15592529945466D+03

 The electronic state is 1-A.
 Alpha  occ. eigenvalues --  -10.62663 -10.62362 -10.62168 -10.61429  -0.93146
 Alpha  occ. eigenvalues --   -0.84851  -0.69846  -0.64018  -0.54521  -0.53780
 Alpha  occ. eigenvalues --   -0.46784  -0.44987  -0.41074  -0.38277  -0.27725
 Alpha virt. eigenvalues --    0.01724   0.06991   0.07384   0.07966   0.09617
 Alpha virt. eigenvalues --    0.11634   0.12489   0.14536   0.15818   0.16244
 Alpha virt. eigenvalues --    0.18768   0.20450   0.21500   0.22676   0.23732

 Mulliken charges:
               1
     1  C   -0.169799
     2  C   -0.034886
     3  C   -0.023552
     4  C   -0.174136
     5  H    0.087270
     6  H    0.059113
     7  H    0.055701
     8  H    0.052964
     9  H    0.063596
    10  H    0.083730
 Sum of Mulliken charges =   0.00000

 Dipole moment (field-independent basis, Debye):
    X=              0.0023    Y=             -0.0083    Z=              0.0501  Tot=              0.0508
 Quadrupole moment (field-independent basis, Debye-Ang):
   XX=            -23.3770   YY=            -23.2443   ZZ=            -29.2851
   XY=             -0.0004   XZ=             -0.2180   YZ=              0.0158

 1\1\GINC-NODE29\SP\RB2PLYPD3-FC\def2QZVP\C4H6\BOITTIER\26-Aug-2020\0\\
 #p B2PLYPD3/Def2QZVP\\butadiene\\0,1\C,0,-3.838349,0.222649,0.00422\C,
 0,-2.718303,-0.508038,0.045877\C,0,-1.388881,0.06239,0.033927\C,0,-0.2
 6621,-0.645188,0.023645\H,0,-4.861685,-0.186546,0.056394\H,0,-3.752322
 ,1.328925,-0.081361\H,0,-2.782511,-1.59029,0.139576\H,0,-1.304317,1.14
 4019,0.002396\H,0,-0.293902,-1.718772,-0.054745\H,0,0.724073,-0.178989
 ,0.002641\\Version=ES64L-G09RevD.01\State=1-A\HF=-155.6993473\MP2=-155
 .9252995\RMSD=3.323e-09\PG=C01 [X(C4H6)]\\@

 Normal termination of Gaussian 09 at Wed Aug 26 21:29:00 2020.
