 Gaussian 09, Revision D.01,
 Gaussian 09:  ES64L-G09RevD.01 24-Apr-2013

 --------------------
 #p B2PLYPD3/Def2QZVP
 --------------------

 ---------
 butadiene
 ---------
 Symbolic Z-matrix:
 Charge =  0 Multiplicity = 1

                         Standard orientation:
 ---------------------------------------------------------------------
 Center     Atomic      Atomic             Coordinates (Angstroms)
 Number     Number       Type             X           Y           Z
 ---------------------------------------------------------------------
      1          6           0       -1.847240   -0.118786   -0.018243
      2          6           0       -0.610161    0.408699    0.011768
      3          6           0        0.613685   -0.392455    0.001741
      4          6           0        1.845815    0.109542   -0.014873
      5          1           0       -2.751353    0.485672   -0.006927
      6          1           0       -1.960247   -1.181803    0.007739
      7          1           0       -0.533421    1.480046    0.072356
      8          1           0        0.494944   -1.463701    0.048411
      9          1           0        2.040053    1.179309   -0.031287
     10          1           0        2.697420   -0.541520    0.027349
 ---------------------------------------------------------------------

 SCF Done:  E(RB2PLYPD3) =  -155.700595830     A.U. after   11 cycles
 E2(B2PLYPD3) =    -0.2256250155D+00 E(B2PLYPD3) =    -0.15592622084513D+03

 The electronic state is 1-A.
 Alpha  occ. eigenvalues --  -10.62626 -10.62525 -10.61544 -10.61401  -0.92807
 Alpha  occ. eigenvalues --   -0.84974  -0.70058  -0.64276  -0.54465  -0.54214
 Alpha  occ. eigenvalues --   -0.46650  -0.45618  -0.41378  -0.37899  -0.27709
 Alpha virt. eigenvalues --    0.01730   0.07014   0.07515   0.08030   0.09557
 Alpha virt. eigenvalues --    0.11648   0.12469   0.14637   0.15916   0.16216
 Alpha virt. eigenvalues --    0.18858   0.20540   0.21521   0.22756   0.23898

 Mulliken charges:
               1
     1  C   -0.175165
     2  C   -0.034085
     3  C   -0.033531
     4  C   -0.174048
     5  H    0.086054
     6  H    0.063929
     7  H    0.057851
     8  H    0.056315
     9  H    0.067599
    10  H    0.085081
 Sum of Mulliken charges =   0.00000

 Dipole moment (field-independent basis, Debye):
    X=              0.0035    Y=              0.0019    Z=              0.1177  Tot=              0.1177
 Quadrupole moment (field-independent basis, Debye-Ang):
   XX=            -23.3949   YY=            -23.0897   ZZ=            -29.2786
   XY=              0.0140   XZ=              0.0136   YZ=             -0.0467

 1\1\GINC-NODE40\SP\RB2PLYPD3-FC\def2QZVP\C4H6\BOITTIER\26-Aug-2020\0\\
 #p B2PLYPD3/Def2QZVP\\butadiene\\0,1\C,0,-3.849741,0.228013,0.033397\C
 ,0,-2.724883,-0.509601,0.022152\C,0,-1.379147,0.063614,0.009214\C,0,-0
 .254501,-0.646596,0.043762\H,0,-4.846133,-0.207974,0.039444\H,0,-3.774
 061,1.292992,-0.026127\H,0,-2.838056,-1.579095,-0.004654\H,0,-1.307742
 ,1.137053,-0.071257\H,0,-0.251441,-1.732809,0.09408\H,0,0.698199,-0.15
 7186,-0.017352\\Version=ES64L-G09RevD.01\State=1-A\HF=-155.7005958\MP2
 =-155.9262208\RMSD=4.866e-09\PG=C01 [X(C4H6)]\\@

 Normal termination of Gaussian 09 at Wed Aug 26 21:55:50 2020.
