 Gaussian 09, Revision D.01,
 Gaussian 09:  ES64L-G09RevD.01 24-Apr-2013

 --------------------
 #p B2PLYPD3/Def2QZVP
 --------------------

 ---------
 butadiene
 ---------
 Symbolic Z-matrix:
 Charge =  0 Multiplicity = 1

                         Standard orientation:
 ---------------------------------------------------------------------
 Center     Atomic      Atomic             Coordinates (Angstroms)
 Number     Number       Type             X           Y           Z
 ---------------------------------------------------------------------
      1          6           0        1.833909   -0.115354   -0.016188
      2          6           0        0.602193    0.400647    0.019912
      3          6           0       -0.603604   -0.392099   -0.007256
      4          6           0       -1.830651    0.110085   -0.000872
      5          1           0        2.717886    0.514057   -0.035060
      6          1           0        1.945987   -1.179843    0.066755
      7          1           0        0.468004    1.476370   -0.013806
      8          1           0       -0.461297   -1.435648    0.018571
      9          1           0       -2.009763    1.168904    0.036140
     10          1           0       -2.671901   -0.563511   -0.046174
 ---------------------------------------------------------------------

 SCF Done:  E(RB2PLYPD3) =  -155.700280840     A.U. after   11 cycles
 E2(B2PLYPD3) =    -0.2252885994D+00 E(B2PLYPD3) =    -0.15592556943952D+03

 The electronic state is 1-A.
 Alpha  occ. eigenvalues --  -10.62267 -10.61848 -10.61419 -10.61215  -0.93350
 Alpha  occ. eigenvalues --   -0.85094  -0.70245  -0.64481  -0.54498  -0.54326
 Alpha  occ. eigenvalues --   -0.46756  -0.45877  -0.41325  -0.38262  -0.27677
 Alpha virt. eigenvalues --    0.01788   0.07020   0.07498   0.08115   0.09697
 Alpha virt. eigenvalues --    0.11783   0.12422   0.14845   0.15734   0.16188
 Alpha virt. eigenvalues --    0.18681   0.20259   0.21734   0.22973   0.24137

 Mulliken charges:
               1
     1  C   -0.179860
     2  C   -0.027014
     3  C   -0.028052
     4  C   -0.179193
     5  H    0.087202
     6  H    0.065123
     7  H    0.051629
     8  H    0.056047
     9  H    0.069502
    10  H    0.084616
 Sum of Mulliken charges =   0.00000

 Dipole moment (field-independent basis, Debye):
    X=             -0.0103    Y=             -0.0048    Z=              0.0388  Tot=              0.0405
 Quadrupole moment (field-independent basis, Debye-Ang):
   XX=            -23.6330   YY=            -23.0510   ZZ=            -29.1611
   XY=             -0.0629   XZ=              0.0536   YZ=             -0.0829

 1\1\GINC-NODE30\SP\RB2PLYPD3-FC\def2QZVP\C4H6\BOITTIER\26-Aug-2020\0\\
 #p B2PLYPD3/Def2QZVP\\butadiene\\0,1\C,0,-3.835065,0.228709,0.004194\C
 ,0,-2.716376,-0.499826,0.053758\C,0,-1.387566,0.061806,0.009465\C,0,-0
 .271072,-0.65299,0.028992\H,0,-4.818036,-0.231368,-0.000985\H,0,-3.753
 252,1.297601,0.062116\H,0,-2.778313,-1.582608,0.045335\H,0,-1.339436,1
 .114229,0.010741\H,0,-0.285557,-1.725604,0.090937\H,0,0.677636,-0.1432
 52,-0.031066\\Version=ES64L-G09RevD.01\State=1-A\HF=-155.7002808\MP2=-
 155.9255694\RMSD=3.610e-09\PG=C01 [X(C4H6)]\\@

 Normal termination of Gaussian 09 at Wed Aug 26 10:01:48 2020.
