 Gaussian 09, Revision D.01,
 Gaussian 09:  ES64L-G09RevD.01 24-Apr-2013

 --------------------
 #p B2PLYPD3/Def2QZVP
 --------------------

 ---------
 butadiene
 ---------
 Symbolic Z-matrix:
 Charge =  0 Multiplicity = 1

                         Standard orientation:
 ---------------------------------------------------------------------
 Center     Atomic      Atomic             Coordinates (Angstroms)
 Number     Number       Type             X           Y           Z
 ---------------------------------------------------------------------
      1          6           0        1.835904   -0.123398   -0.024734
      2          6           0        0.609668    0.404131    0.024931
      3          6           0       -0.607127   -0.381540    0.023072
      4          6           0       -1.844858    0.099564   -0.019914
      5          1           0        2.708665    0.523433   -0.071390
      6          1           0        1.977045   -1.183760    0.019604
      7          1           0        0.504237    1.498196    0.079126
      8          1           0       -0.433849   -1.434957    0.026976
      9          1           0       -2.023373    1.142600   -0.043657
     10          1           0       -2.694251   -0.538050   -0.030793
 ---------------------------------------------------------------------

 SCF Done:  E(RB2PLYPD3) =  -155.700381800     A.U. after   11 cycles
 E2(B2PLYPD3) =    -0.2252824198D+00 E(B2PLYPD3) =    -0.15592566421955D+03

 The electronic state is 1-A.
 Alpha  occ. eigenvalues --  -10.62550 -10.62143 -10.61489 -10.60954  -0.93147
 Alpha  occ. eigenvalues --   -0.85143  -0.70515  -0.64189  -0.54723  -0.54276
 Alpha  occ. eigenvalues --   -0.46827  -0.46039  -0.41143  -0.38124  -0.27720
 Alpha virt. eigenvalues --    0.01725   0.07011   0.07498   0.08094   0.09755
 Alpha virt. eigenvalues --    0.11726   0.12477   0.14830   0.15797   0.16175
 Alpha virt. eigenvalues --    0.18792   0.20479   0.21734   0.22898   0.23891

 Mulliken charges:
               1
     1  C   -0.180347
     2  C   -0.026604
     3  C   -0.028274
     4  C   -0.177792
     5  H    0.086747
     6  H    0.068047
     7  H    0.050310
     8  H    0.053057
     9  H    0.067233
    10  H    0.087623
 Sum of Mulliken charges =   0.00000

 Dipole moment (field-independent basis, Debye):
    X=              0.0081    Y=             -0.0023    Z=              0.0147  Tot=              0.0170
 Quadrupole moment (field-independent basis, Debye-Ang):
   XX=            -23.4182   YY=            -23.1326   ZZ=            -29.1734
   XY=             -0.1380   XZ=              0.0388   YZ=             -0.0419

 1\1\GINC-NODE20\SP\RB2PLYPD3-FC\def2QZVP\C4H6\BOITTIER\26-Aug-2020\0\\
 #p B2PLYPD3/Def2QZVP\\butadiene\\0,1\C,0,-3.836807,0.234954,-0.00616\C
 ,0,-2.724978,-0.502442,0.06086\C,0,-1.386943,0.051606,0.0371\C,0,-0.25
 5851,-0.64495,0.010137\H,0,-4.811676,-0.245775,-0.034595\H,0,-3.785151
 ,1.304267,0.006268\H,0,-2.817411,-1.595563,0.147881\H,0,-1.368313,1.11
 8661,0.009278\H,0,-0.267546,-1.703326,0.017825\H,0,0.694141,-0.170795,
 -0.018692\\Version=ES64L-G09RevD.01\State=1-A\HF=-155.7003818\MP2=-155
 .9256642\RMSD=3.648e-09\PG=C01 [X(C4H6)]\\@

 Normal termination of Gaussian 09 at Wed Aug 26 19:08:12 2020.
