 Gaussian 09, Revision D.01,
 Gaussian 09:  ES64L-G09RevD.01 24-Apr-2013

 --------------------
 #p B2PLYPD3/Def2QZVP
 --------------------

 ---------
 butadiene
 ---------
 Symbolic Z-matrix:
 Charge =  0 Multiplicity = 1

                         Standard orientation:
 ---------------------------------------------------------------------
 Center     Atomic      Atomic             Coordinates (Angstroms)
 Number     Number       Type             X           Y           Z
 ---------------------------------------------------------------------
      1          6           0       -1.818197   -0.102493   -0.040690
      2          6           0       -0.580120    0.377228    0.057371
      3          6           0        0.597292   -0.426657    0.006652
      4          6           0        1.830493    0.116884   -0.065814
      5          1           0       -2.806731    0.521273   -0.057749
      6          1           0       -2.002352   -1.139181   -0.143219
      7          1           0       -0.507538    1.453372    0.240507
      8          1           0        0.520761   -1.478421    0.264516
      9          1           0        1.790939    1.237108   -0.124673
     10          1           0        2.828113   -0.383926    0.075503
 ---------------------------------------------------------------------

 SCF Done:  E(RB2PLYPD3) =  -155.683613933     A.U. after   11 cycles
 E2(B2PLYPD3) =    -0.2273624734D+00 E(B2PLYPD3) =    -0.15591097640639D+03

 The electronic state is 1-A.
 Alpha  occ. eigenvalues --  -10.62759 -10.62625 -10.62547 -10.62059  -0.93472
 Alpha  occ. eigenvalues --   -0.84500  -0.69436  -0.64123  -0.54661  -0.53226
 Alpha  occ. eigenvalues --   -0.46767  -0.43904  -0.41569  -0.37598  -0.27632
 Alpha virt. eigenvalues --    0.01409   0.06977   0.07379   0.07612   0.09349
 Alpha virt. eigenvalues --    0.11420   0.12673   0.14157   0.15500   0.16458
 Alpha virt. eigenvalues --    0.18759   0.19542   0.21372   0.22407   0.23741

 Mulliken charges:
               1
     1  C   -0.167739
     2  C   -0.030683
     3  C   -0.037751
     4  C   -0.167634
     5  H    0.073802
     6  H    0.064890
     7  H    0.059180
     8  H    0.065424
     9  H    0.050960
    10  H    0.089550
 Sum of Mulliken charges =   0.00000

 Dipole moment (field-independent basis, Debye):
    X=             -0.0031    Y=             -0.0542    Z=              0.2901  Tot=              0.2952
 Quadrupole moment (field-independent basis, Debye-Ang):
   XX=            -23.2555   YY=            -23.6276   ZZ=            -29.2588
   XY=             -0.1374   XZ=              0.5937   YZ=             -0.0972

 1\1\GINC-NODE19\SP\RB2PLYPD3-FC\def2QZVP\C4H6\BOITTIER\26-Aug-2020\0\\
 #p B2PLYPD3/Def2QZVP\\butadiene\\0,1\C,0,-3.827958,0.202937,0.060546\C
 ,0,-2.694025,-0.489863,-0.021949\C,0,-1.393611,0.09648,-0.006778\C,0,-
 0.273967,-0.651642,0.083677\H,0,-4.910215,-0.236706,0.105363\H,0,-3.82
 6743,1.259036,0.122204\H,0,-2.812789,-1.568336,-0.162248\H,0,-1.287361
 ,1.134579,-0.306142\H,0,-0.508456,-1.744444,0.187266\H,0,0.794481,-0.3
 39363,-0.080424\\Version=ES64L-G09RevD.01\State=1-A\HF=-155.6836139\MP
 2=-155.9109764\RMSD=7.309e-09\PG=C01 [X(C4H6)]\\@

 Normal termination of Gaussian 09 at Wed Aug 26 15:23:06 2020.
