 Gaussian 09, Revision D.01,
 Gaussian 09:  ES64L-G09RevD.01 24-Apr-2013

 --------------------
 #p B2PLYPD3/Def2QZVP
 --------------------

 ---------
 butadiene
 ---------
 Symbolic Z-matrix:
 Charge =  0 Multiplicity = 1

                         Standard orientation:
 ---------------------------------------------------------------------
 Center     Atomic      Atomic             Coordinates (Angstroms)
 Number     Number       Type             X           Y           Z
 ---------------------------------------------------------------------
      1          6           0       -1.838390    0.103495    0.013270
      2          6           0       -0.600944   -0.381632   -0.019384
      3          6           0        0.608156    0.400737   -0.018685
      4          6           0        1.837901   -0.120177    0.004873
      5          1           0       -2.732226   -0.537785    0.066592
      6          1           0       -2.033300    1.158097    0.009976
      7          1           0       -0.495031   -1.450157   -0.048429
      8          1           0        0.515599    1.487247   -0.024030
      9          1           0        1.998378   -1.197486    0.043579
     10          1           0        2.706243    0.525547    0.071866
 ---------------------------------------------------------------------

 SCF Done:  E(RB2PLYPD3) =  -155.700569483     A.U. after   11 cycles
 E2(B2PLYPD3) =    -0.2256206496D+00 E(B2PLYPD3) =    -0.15592619013230D+03

 The electronic state is 1-A.
 Alpha  occ. eigenvalues --  -10.62521 -10.62224 -10.61649 -10.61498  -0.93195
 Alpha  occ. eigenvalues --   -0.85001  -0.70183  -0.64126  -0.54582  -0.54109
 Alpha  occ. eigenvalues --   -0.46603  -0.45407  -0.41191  -0.38295  -0.27689
 Alpha virt. eigenvalues --    0.01668   0.06971   0.07487   0.07963   0.09790
 Alpha virt. eigenvalues --    0.11660   0.12426   0.14715   0.15899   0.16169
 Alpha virt. eigenvalues --    0.18827   0.20592   0.21556   0.22564   0.23807

 Mulliken charges:
               1
     1  C   -0.173654
     2  C   -0.027093
     3  C   -0.032239
     4  C   -0.173995
     5  H    0.082149
     6  H    0.064065
     7  H    0.055507
     8  H    0.053896
     9  H    0.066205
    10  H    0.085158
 Sum of Mulliken charges =   0.00000

 Dipole moment (field-independent basis, Debye):
    X=              0.0035    Y=              0.0118    Z=              0.0842  Tot=              0.0851
 Quadrupole moment (field-independent basis, Debye-Ang):
   XX=            -23.4308   YY=            -23.1387   ZZ=            -29.2333
   XY=             -0.0586   XZ=              0.1024   YZ=             -0.0101

 1\1\GINC-NODE28\SP\RB2PLYPD3-FC\def2QZVP\C4H6\BOITTIER\26-Aug-2020\0\\
 #p B2PLYPD3/Def2QZVP\\butadiene\\0,1\C,0,-3.843554,0.214671,0.032296\C
 ,0,-2.712413,-0.483895,0.017748\C,0,-1.383293,0.07023,-0.002556\C,0,-0
 .265937,-0.660433,0.040164\H,0,-4.83716,-0.255186,0.103055\H,0,-3.8475
 06,1.286518,-0.003961\H,0,-2.79861,-1.554577,0.021882\H,0,-1.280852,1.
 155164,-0.041583\H,0,-0.299806,-1.747391,0.112426\H,0,0.703733,-0.1779
 65,0.08946\\Version=ES64L-G09RevD.01\State=1-A\HF=-155.7005695\MP2=-15
 5.9261901\RMSD=4.208e-09\PG=C01 [X(C4H6)]\\@

 Normal termination of Gaussian 09 at Wed Aug 26 21:53:11 2020.
