 Gaussian 09, Revision D.01,
 Gaussian 09:  ES64L-G09RevD.01 24-Apr-2013

 --------------------
 #p B2PLYPD3/Def2QZVP
 --------------------

 ---------
 butadiene
 ---------
 Symbolic Z-matrix:
 Charge =  0 Multiplicity = 1

                         Standard orientation:
 ---------------------------------------------------------------------
 Center     Atomic      Atomic             Coordinates (Angstroms)
 Number     Number       Type             X           Y           Z
 ---------------------------------------------------------------------
      1          6           0       -1.848691    0.102612   -0.018625
      2          6           0       -0.605466   -0.391980    0.029331
      3          6           0        0.608649    0.420173    0.006965
      4          6           0        1.846329   -0.112782   -0.005620
      5          1           0       -2.676377   -0.582385   -0.028670
      6          1           0       -2.038601    1.174611    0.047338
      7          1           0       -0.464035   -1.467415   -0.037646
      8          1           0        0.448383    1.500068   -0.038044
      9          1           0        1.979735   -1.206369    0.002471
     10          1           0        2.745970    0.473353   -0.017754
 ---------------------------------------------------------------------

 SCF Done:  E(RB2PLYPD3) =  -155.699547445     A.U. after   11 cycles
 E2(B2PLYPD3) =    -0.2262295181D+00 E(B2PLYPD3) =    -0.15592577696292D+03

 The electronic state is 1-A.
 Alpha  occ. eigenvalues --  -10.62943 -10.62580 -10.61928 -10.61562  -0.92715
 Alpha  occ. eigenvalues --   -0.84689  -0.70119  -0.63896  -0.54569  -0.53650
 Alpha  occ. eigenvalues --   -0.46642  -0.45613  -0.41158  -0.37910  -0.27602
 Alpha virt. eigenvalues --    0.01580   0.07027   0.07337   0.08093   0.09398
 Alpha virt. eigenvalues --    0.11670   0.12391   0.14642   0.15828   0.16044
 Alpha virt. eigenvalues --    0.18796   0.20349   0.21527   0.22929   0.23891

 Mulliken charges:
               1
     1  C   -0.180444
     2  C   -0.025464
     3  C   -0.036484
     4  C   -0.172571
     5  H    0.086485
     6  H    0.068475
     7  H    0.054068
     8  H    0.055082
     9  H    0.062465
    10  H    0.088389
 Sum of Mulliken charges =   0.00000

 Dipole moment (field-independent basis, Debye):
    X=              0.0247    Y=             -0.0022    Z=             -0.0355  Tot=              0.0433
 Quadrupole moment (field-independent basis, Debye-Ang):
   XX=            -23.5108   YY=            -23.0814   ZZ=            -29.3730
   XY=             -0.1663   XZ=             -0.0540   YZ=              0.0769

 1\1\GINC-NODE05\SP\RB2PLYPD3-FC\def2QZVP\C4H6\BOITTIER\26-Aug-2020\0\\
 #p B2PLYPD3/Def2QZVP\\butadiene\\0,1\C,0,-3.852108,0.218854,-0.000029\
 C,0,-2.718995,-0.491678,0.061029\C,0,-1.377848,0.086158,0.021065\C,0,-
 0.257328,-0.662497,0.022493\H,0,-4.79028,-0.304781,0.005014\H,0,-3.844
 344,1.30876,0.040515\H,0,-2.775061,-1.576196,0.019493\H,0,-1.33984,1.1
 75866,-0.049482\H,0,-0.324345,-1.761657,0.056421\H,0,0.733618,-0.24962
 ,-0.002314\\Version=ES64L-G09RevD.01\State=1-A\HF=-155.6995474\MP2=-15
 5.925777\RMSD=3.840e-09\PG=C01 [X(C4H6)]\\@

 Normal termination of Gaussian 09 at Wed Aug 26 22:37:04 2020.
