 Gaussian 09, Revision D.01,
 Gaussian 09:  ES64L-G09RevD.01 24-Apr-2013

 --------------------
 #p B2PLYPD3/Def2QZVP
 --------------------

 ---------
 butadiene
 ---------
 Symbolic Z-matrix:
 Charge =  0 Multiplicity = 1

                         Standard orientation:
 ---------------------------------------------------------------------
 Center     Atomic      Atomic             Coordinates (Angstroms)
 Number     Number       Type             X           Y           Z
 ---------------------------------------------------------------------
      1          6           0        1.849085    0.085006    0.051343
      2          6           0        0.586677   -0.383766   -0.050069
      3          6           0       -0.591993    0.459217   -0.057780
      4          6           0       -1.831821   -0.116670    0.014090
      5          1           0        2.647240   -0.680822    0.132189
      6          1           0        2.070344    1.169199    0.010021
      7          1           0        0.314659   -1.395610   -0.058114
      8          1           0       -0.409014    1.535982   -0.099367
      9          1           0       -1.796729   -1.251107   -0.049899
     10          1           0       -2.898192    0.359631    0.319662
 ---------------------------------------------------------------------

 SCF Done:  E(RB2PLYPD3) =  -155.675794649     A.U. after   11 cycles
 E2(B2PLYPD3) =    -0.2288270815D+00 E(B2PLYPD3) =    -0.15590462173075D+03

 The electronic state is 1-A.
 Alpha  occ. eigenvalues --  -10.64049 -10.63324 -10.62475 -10.62352  -0.93026
 Alpha  occ. eigenvalues --   -0.83723  -0.69150  -0.64525  -0.53400  -0.52771
 Alpha  occ. eigenvalues --   -0.46418  -0.44815  -0.41274  -0.37722  -0.27132
 Alpha virt. eigenvalues --    0.01083   0.06797   0.07136   0.07864   0.08974
 Alpha virt. eigenvalues --    0.11459   0.12367   0.14164   0.15651   0.16049
 Alpha virt. eigenvalues --    0.18288   0.20248   0.20946   0.22698   0.24362

 Mulliken charges:
               1
     1  C   -0.185895
     2  C   -0.027111
     3  C   -0.027857
     4  C   -0.168776
     5  H    0.085294
     6  H    0.075365
     7  H    0.058136
     8  H    0.056972
     9  H    0.048627
    10  H    0.085246
 Sum of Mulliken charges =   0.00000

 Dipole moment (field-independent basis, Debye):
    X=             -0.0194    Y=              0.0037    Z=              0.1617  Tot=              0.1629
 Quadrupole moment (field-independent basis, Debye-Ang):
   XX=            -23.9704   YY=            -23.2844   ZZ=            -29.5384
   XY=              0.2983   XZ=             -0.5644   YZ=              0.0537

 1\1\GINC-NODE23\SP\RB2PLYPD3-FC\def2QZVP\C4H6\BOITTIER\26-Aug-2020\0\\
 #p B2PLYPD3/Def2QZVP\\butadiene\\0,1\C,0,-3.85258,0.208641,-0.027641\C
 ,0,-2.699284,-0.485794,0.079003\C,0,-1.38393,0.122203,0.067739\C,0,-0.
 273888,-0.676311,0.003191\H,0,-4.780165,-0.395946,-0.09199\H,0,-3.8672
 72,1.315641,-0.005927\H,0,-2.620913,-1.530333,0.105158\H,0,-1.362401,1
 .214762,0.089751\H,0,-0.519763,-1.782908,0.088414\H,0,0.860743,-0.4130
 85,-0.314154\\Version=ES64L-G09RevD.01\State=1-A\HF=-155.6757946\MP2=-
 155.9046217\RMSD=9.030e-09\PG=C01 [X(C4H6)]\\@

 Normal termination of Gaussian 09 at Wed Aug 26 16:09:41 2020.
