 Gaussian 09, Revision D.01,
 Gaussian 09:  ES64L-G09RevD.01 24-Apr-2013

 --------------------
 #p B2PLYPD3/Def2QZVP
 --------------------

 ---------
 butadiene
 ---------
 Symbolic Z-matrix:
 Charge =  0 Multiplicity = 1

                         Standard orientation:
 ---------------------------------------------------------------------
 Center     Atomic      Atomic             Coordinates (Angstroms)
 Number     Number       Type             X           Y           Z
 ---------------------------------------------------------------------
      1          6           0        1.817383   -0.131970    0.030080
      2          6           0        0.594395    0.437767   -0.048045
      3          6           0       -0.600284   -0.388718   -0.013841
      4          6           0       -1.830517    0.090037    0.043051
      5          1           0        2.672137    0.486127   -0.053737
      6          1           0        2.005826   -1.176663    0.136242
      7          1           0        0.476649    1.490026   -0.030752
      8          1           0       -0.425965   -1.448240   -0.102673
      9          1           0       -1.970304    1.191913    0.094692
     10          1           0       -2.644202   -0.585862   -0.111237
 ---------------------------------------------------------------------

 SCF Done:  E(RB2PLYPD3) =  -155.695769492     A.U. after   11 cycles
 E2(B2PLYPD3) =    -0.2256646267D+00 E(B2PLYPD3) =    -0.15592143411905D+03

 The electronic state is 1-A.
 Alpha  occ. eigenvalues --  -10.62435 -10.61905 -10.61318 -10.61213  -0.93152
 Alpha  occ. eigenvalues --   -0.84920  -0.70204  -0.64434  -0.54734  -0.53870
 Alpha  occ. eigenvalues --   -0.47003  -0.45655  -0.41466  -0.37884  -0.27536
 Alpha virt. eigenvalues --    0.01731   0.07070   0.07406   0.08155   0.09442
 Alpha virt. eigenvalues --    0.11838   0.12346   0.14872   0.15656   0.16153
 Alpha virt. eigenvalues --    0.18757   0.20247   0.21473   0.22950   0.24213

 Mulliken charges:
               1
     1  C   -0.175450
     2  C   -0.044692
     3  C   -0.019652
     4  C   -0.181371
     5  H    0.080361
     6  H    0.071467
     7  H    0.063469
     8  H    0.055652
     9  H    0.062264
    10  H    0.087952
 Sum of Mulliken charges =   0.00000

 Dipole moment (field-independent basis, Debye):
    X=              0.1085    Y=             -0.0182    Z=             -0.1040  Tot=              0.1515
 Quadrupole moment (field-independent basis, Debye-Ang):
   XX=            -23.9583   YY=            -22.8661   ZZ=            -29.1704
   XY=             -0.2178   XZ=              0.3510   YZ=              0.0913

 1\1\GINC-NODE24\SP\RB2PLYPD3-FC\def2QZVP\C4H6\BOITTIER\26-Aug-2020\0\\
 #p B2PLYPD3/Def2QZVP\\butadiene\\0,1\C,0,-3.81581,0.251059,0.049364\C,
 0,-2.719178,-0.536513,-0.010072\C,0,-1.392553,0.056395,-0.004426\C,0,-
 0.271142,-0.638664,0.067998\H,0,-4.770296,-0.201414,-0.013082\H,0,-3.8
 07973,1.315521,0.120247\H,0,-2.797066,-1.591291,0.042721\H,0,-1.369414
 ,1.126361,-0.128934\H,0,-0.33627,-1.745106,0.156786\H,0,0.652019,-0.12
 9733,-0.109458\\Version=ES64L-G09RevD.01\State=1-A\HF=-155.6957695\MP2
 =-155.9214341\RMSD=7.564e-09\PG=C01 [X(C4H6)]\\@

 Normal termination of Gaussian 09 at Wed Aug 26 08:58:54 2020.
