 Gaussian 09, Revision D.01,
 Gaussian 09:  ES64L-G09RevD.01 24-Apr-2013

 --------------------
 #p B2PLYPD3/Def2QZVP
 --------------------

 ---------
 butadiene
 ---------
 Symbolic Z-matrix:
 Charge =  0 Multiplicity = 1

                         Standard orientation:
 ---------------------------------------------------------------------
 Center     Atomic      Atomic             Coordinates (Angstroms)
 Number     Number       Type             X           Y           Z
 ---------------------------------------------------------------------
      1          6           0       -1.845303   -0.116195    0.016851
      2          6           0       -0.609083    0.408511   -0.025594
      3          6           0        0.601226   -0.383505   -0.005986
      4          6           0        1.848441    0.097980    0.003447
      5          1           0       -2.721362    0.507645    0.037074
      6          1           0       -2.000441   -1.186192    0.020325
      7          1           0       -0.442033    1.497202   -0.030375
      8          1           0        0.480683   -1.457455   -0.057332
      9          1           0        2.047625    1.166750    0.047033
     10          1           0        2.663844   -0.568695    0.050971
 ---------------------------------------------------------------------

 SCF Done:  E(RB2PLYPD3) =  -155.700202615     A.U. after   11 cycles
 E2(B2PLYPD3) =    -0.2258562855D+00 E(B2PLYPD3) =    -0.15592605890007D+03

 The electronic state is 1-A.
 Alpha  occ. eigenvalues --  -10.62834 -10.62334 -10.61710 -10.61258  -0.92954
 Alpha  occ. eigenvalues --   -0.84895  -0.70538  -0.63883  -0.54776  -0.53909
 Alpha  occ. eigenvalues --   -0.46778  -0.45785  -0.41167  -0.38084  -0.27586
 Alpha virt. eigenvalues --    0.01518   0.07027   0.07399   0.08095   0.09670
 Alpha virt. eigenvalues --    0.11672   0.12400   0.14803   0.15792   0.16150
 Alpha virt. eigenvalues --    0.18800   0.20402   0.21764   0.22634   0.23921

 Mulliken charges:
               1
     1  C   -0.175102
     2  C   -0.033812
     3  C   -0.022120
     4  C   -0.181054
     5  H    0.087968
     6  H    0.068335
     7  H    0.052102
     8  H    0.051064
     9  H    0.064458
    10  H    0.088161
 Sum of Mulliken charges =   0.00000

 Dipole moment (field-independent basis, Debye):
    X=             -0.0232    Y=             -0.0211    Z=              0.0448  Tot=              0.0547
 Quadrupole moment (field-independent basis, Debye-Ang):
   XX=            -23.4552   YY=            -23.1003   ZZ=            -29.2818
   XY=              0.1732   XZ=              0.0716   YZ=              0.0605

 1\1\GINC-NODE19\SP\RB2PLYPD3-FC\def2QZVP\C4H6\BOITTIER\26-Aug-2020\0\\
 #p B2PLYPD3/Def2QZVP\\butadiene\\0,1\C,0,-3.844826,0.234928,0.001853\C
 ,0,-2.724531,-0.504692,0.05896\C,0,-1.390423,0.05317,0.020642\C,0,-0.2
 51638,-0.647267,0.024805\H,0,-4.819811,-0.219429,-0.003535\H,0,-3.8027
 56,1.314862,-0.028905\H,0,-2.758284,-1.605136,0.091511\H,0,-1.313424,1
 .132073,0.044625\H,0,-0.250338,-1.73519,0.008535\H,0,0.671258,-0.14147
 1,-0.038686\\Version=ES64L-G09RevD.01\State=1-A\HF=-155.7002026\MP2=-1
 55.9260589\RMSD=4.798e-09\PG=C01 [X(C4H6)]\\@

 Normal termination of Gaussian 09 at Wed Aug 26 22:10:08 2020.
