 Gaussian 09, Revision D.01,
 Gaussian 09:  ES64L-G09RevD.01 24-Apr-2013

 --------------------
 #p B2PLYPD3/Def2QZVP
 --------------------

 ---------
 butadiene
 ---------
 Symbolic Z-matrix:
 Charge =  0 Multiplicity = 1

                         Standard orientation:
 ---------------------------------------------------------------------
 Center     Atomic      Atomic             Coordinates (Angstroms)
 Number     Number       Type             X           Y           Z
 ---------------------------------------------------------------------
      1          6           0       -1.844093    0.093870   -0.003720
      2          6           0       -0.593730   -0.374346   -0.023573
      3          6           0        0.615551    0.421548   -0.014890
      4          6           0        1.831618   -0.136861    0.010627
      5          1           0       -2.733197   -0.542774    0.184929
      6          1           0       -2.022264    1.123903   -0.023452
      7          1           0       -0.486450   -1.440813   -0.066947
      8          1           0        0.521487    1.527600    0.002273
      9          1           0        1.999028   -1.188044    0.013935
     10          1           0        2.665318    0.494866    0.078597
 ---------------------------------------------------------------------

 SCF Done:  E(RB2PLYPD3) =  -155.696252260     A.U. after   11 cycles
 E2(B2PLYPD3) =    -0.2256288436D+00 E(B2PLYPD3) =    -0.15592188110330D+03

 The electronic state is 1-A.
 Alpha  occ. eigenvalues --  -10.62901 -10.62245 -10.61212 -10.61092  -0.93061
 Alpha  occ. eigenvalues --   -0.85082  -0.70440  -0.64250  -0.54781  -0.54197
 Alpha  occ. eigenvalues --   -0.46455  -0.45890  -0.41493  -0.38002  -0.27553
 Alpha virt. eigenvalues --    0.01597   0.07004   0.07495   0.08021   0.09591
 Alpha virt. eigenvalues --    0.11705   0.12527   0.14796   0.15776   0.16248
 Alpha virt. eigenvalues --    0.18858   0.20222   0.21953   0.22852   0.23817

 Mulliken charges:
               1
     1  C   -0.176334
     2  C   -0.024366
     3  C   -0.037806
     4  C   -0.175775
     5  H    0.081342
     6  H    0.063063
     7  H    0.057985
     8  H    0.053741
     9  H    0.072798
    10  H    0.085352
 Sum of Mulliken charges =   0.00000

 Dipole moment (field-independent basis, Debye):
    X=              0.0910    Y=              0.0100    Z=              0.1467  Tot=              0.1729
 Quadrupole moment (field-independent basis, Debye-Ang):
   XX=            -23.5313   YY=            -23.0556   ZZ=            -29.1724
   XY=             -0.1655   XZ=             -0.2229   YZ=             -0.0378

 1\1\GINC-NODE17\SP\RB2PLYPD3-FC\def2QZVP\C4H6\BOITTIER\26-Aug-2020\0\\
 #p B2PLYPD3/Def2QZVP\\butadiene\\0,1\C,0,-3.851382,0.206073,0.021821\C
 ,0,-2.704619,-0.477986,0.016644\C,0,-1.372821,0.089398,0.000209\C,0,-0
 .275622,-0.675845,0.043221\H,0,-4.838635,-0.255675,0.23046\H,0,-3.8432
 3,1.250256,-0.030308\H,0,-2.789378,-1.547314,0.006849\H,0,-1.268152,1.
 194489,-0.01744\H,0,-0.298226,-1.739418,0.0796\H,0,0.657692,-0.201108,
 0.09123\\Version=ES64L-G09RevD.01\State=1-A\HF=-155.6962523\MP2=-155.9
 218811\RMSD=5.801e-09\PG=C01 [X(C4H6)]\\@

 Normal termination of Gaussian 09 at Wed Aug 26 09:05:30 2020.
