 Gaussian 09, Revision D.01,
 Gaussian 09:  ES64L-G09RevD.01 24-Apr-2013

 --------------------
 #p B2PLYPD3/Def2QZVP
 --------------------

 ---------
 butadiene
 ---------
 Symbolic Z-matrix:
 Charge =  0 Multiplicity = 1

                         Standard orientation:
 ---------------------------------------------------------------------
 Center     Atomic      Atomic             Coordinates (Angstroms)
 Number     Number       Type             X           Y           Z
 ---------------------------------------------------------------------
      1          6           0        1.841637    0.121746    0.031117
      2          6           0        0.606210   -0.412126   -0.031176
      3          6           0       -0.599354    0.371843   -0.026355
      4          6           0       -1.848442   -0.095185    0.015386
      5          1           0        2.715133   -0.513166    0.046454
      6          1           0        2.032703    1.172228   -0.010870
      7          1           0        0.466799   -1.474775   -0.018920
      8          1           0       -0.456345    1.466256   -0.052094
      9          1           0       -2.052483   -1.123435    0.002135
     10          1           0       -2.706110    0.555224    0.099465
 ---------------------------------------------------------------------

 SCF Done:  E(RB2PLYPD3) =  -155.699321139     A.U. after   11 cycles
 E2(B2PLYPD3) =    -0.2257166787D+00 E(B2PLYPD3) =    -0.15592503781758D+03

 The electronic state is 1-A.
 Alpha  occ. eigenvalues --  -10.62583 -10.62475 -10.61675 -10.61088  -0.93093
 Alpha  occ. eigenvalues --   -0.84885  -0.70823  -0.64245  -0.54740  -0.54175
 Alpha  occ. eigenvalues --   -0.46941  -0.45799  -0.41165  -0.38156  -0.27509
 Alpha virt. eigenvalues --    0.01404   0.06978   0.07520   0.08070   0.09740
 Alpha virt. eigenvalues --    0.11666   0.12498   0.14913   0.15844   0.16209
 Alpha virt. eigenvalues --    0.18847   0.20392   0.21954   0.22826   0.23649

 Mulliken charges:
               1
     1  C   -0.173138
     2  C   -0.039804
     3  C   -0.016995
     4  C   -0.180744
     5  H    0.082739
     6  H    0.070697
     7  H    0.058252
     8  H    0.048049
     9  H    0.065057
    10  H    0.085887
 Sum of Mulliken charges =   0.00000

 Dipole moment (field-independent basis, Debye):
    X=              0.0312    Y=             -0.0239    Z=              0.0178  Tot=              0.0431
 Quadrupole moment (field-independent basis, Debye-Ang):
   XX=            -23.2817   YY=            -23.1836   ZZ=            -29.2230
   XY=              0.3037   XZ=             -0.1754   YZ=             -0.0163

 1\1\GINC-NODE12\SP\RB2PLYPD3-FC\def2QZVP\C4H6\BOITTIER\26-Aug-2020\0\\
 #p B2PLYPD3/Def2QZVP\\butadiene\\0,1\C,0,-3.840473,0.240338,-0.011746\
 C,0,-2.722579,-0.507573,0.066491\C,0,-1.394487,0.043291,0.039375\C,0,-
 0.251503,-0.644387,0.011687\H,0,-4.815015,-0.225069,-0.00898\H,0,-3.83
 6915,1.308813,-0.000344\H,0,-2.778997,-1.57775,0.08514\H,0,-1.335758,1
 .145728,0.03328\H,0,-0.237985,-1.691793,0.054859\H,0,0.709808,-0.16371
 ,-0.090909\\Version=ES64L-G09RevD.01\State=1-A\HF=-155.6993211\MP2=-15
 5.9250378\RMSD=5.920e-09\PG=C01 [X(C4H6)]\\@

 Normal termination of Gaussian 09 at Wed Aug 26 20:59:40 2020.
