 Gaussian 09, Revision D.01,
 Gaussian 09:  ES64L-G09RevD.01 24-Apr-2013

 --------------------
 #p B2PLYPD3/Def2QZVP
 --------------------

 ---------
 butadiene
 ---------
 Symbolic Z-matrix:
 Charge =  0 Multiplicity = 1

                         Standard orientation:
 ---------------------------------------------------------------------
 Center     Atomic      Atomic             Coordinates (Angstroms)
 Number     Number       Type             X           Y           Z
 ---------------------------------------------------------------------
      1          6           0        1.821603   -0.131188   -0.004360
      2          6           0        0.594778    0.421891   -0.011055
      3          6           0       -0.607083   -0.392897   -0.053233
      4          6           0       -1.830497    0.099762    0.015037
      5          1           0        2.670858    0.506284    0.081875
      6          1           0        1.947700   -1.195377    0.062260
      7          1           0        0.558398    1.498562    0.016970
      8          1           0       -0.438091   -1.449183    0.054646
      9          1           0       -1.959524    1.201913    0.019887
     10          1           0       -2.652143   -0.547607    0.086025
 ---------------------------------------------------------------------

 SCF Done:  E(RB2PLYPD3) =  -155.696940921     A.U. after   11 cycles
 E2(B2PLYPD3) =    -0.2255577860D+00 E(B2PLYPD3) =    -0.15592249870689D+03

 The electronic state is 1-A.
 Alpha  occ. eigenvalues --  -10.62387 -10.62071 -10.61163 -10.61149  -0.93199
 Alpha  occ. eigenvalues --   -0.85143  -0.70001  -0.64245  -0.54790  -0.54235
 Alpha  occ. eigenvalues --   -0.46153  -0.45804  -0.41675  -0.38119  -0.27645
 Alpha virt. eigenvalues --    0.01900   0.07113   0.07385   0.08111   0.09445
 Alpha virt. eigenvalues --    0.11806   0.12385   0.14704   0.15676   0.16356
 Alpha virt. eigenvalues --    0.18643   0.20103   0.21491   0.23256   0.24333

 Mulliken charges:
               1
     1  C   -0.177876
     2  C   -0.032065
     3  C   -0.026428
     4  C   -0.178137
     5  H    0.081840
     6  H    0.065280
     7  H    0.054419
     8  H    0.056290
     9  H    0.066499
    10  H    0.090177
 Sum of Mulliken charges =   0.00000

 Dipole moment (field-independent basis, Debye):
    X=             -0.0025    Y=             -0.0027    Z=              0.2564  Tot=              0.2564
 Quadrupole moment (field-independent basis, Debye-Ang):
   XX=            -23.8954   YY=            -22.8917   ZZ=            -29.1823
   XY=              0.1076   XZ=              0.0283   YZ=             -0.1270

 1\1\GINC-NODE01\SP\RB2PLYPD3-FC\def2QZVP\C4H6\BOITTIER\26-Aug-2020\0\\
 #p B2PLYPD3/Def2QZVP\\butadiene\\0,1\C,0,-3.823281,0.239839,0.022239\C
 ,0,-2.715265,-0.523911,0.027408\C,0,-1.387089,0.061669,-0.028901\C,0,-
 0.271442,-0.640622,0.050068\H,0,-4.772711,-0.233597,0.119621\H,0,-3.75
 6733,1.310478,0.0685\H,0,-2.872097,-1.588984,0.075913\H,0,-1.364062,1.
 13299,0.058713\H,0,-0.341737,-1.747778,0.075988\H,0,0.652958,-0.149541
 ,0.109661\\Version=ES64L-G09RevD.01\State=1-A\HF=-155.6969409\MP2=-155
 .9224987\RMSD=6.288e-09\PG=C01 [X(C4H6)]\\@

 Normal termination of Gaussian 09 at Wed Aug 26 08:42:54 2020.
