 Gaussian 09, Revision D.01,
 Gaussian 09:  ES64L-G09RevD.01 24-Apr-2013

 --------------------
 #p B2PLYPD3/Def2QZVP
 --------------------

 ---------
 butadiene
 ---------
 Symbolic Z-matrix:
 Charge =  0 Multiplicity = 1

                         Standard orientation:
 ---------------------------------------------------------------------
 Center     Atomic      Atomic             Coordinates (Angstroms)
 Number     Number       Type             X           Y           Z
 ---------------------------------------------------------------------
      1          6           0        1.829308   -0.115012    0.028097
      2          6           0        0.601713    0.404037   -0.049557
      3          6           0       -0.611079   -0.394031   -0.044502
      4          6           0       -1.847640    0.097160    0.022835
      5          1           0        2.709988    0.511099    0.199280
      6          1           0        2.069817   -1.145484    0.004831
      7          1           0        0.556635    1.474358   -0.110021
      8          1           0       -0.417483   -1.447937   -0.056864
      9          1           0       -2.053616    1.184748    0.071106
     10          1           0       -2.699159   -0.529714    0.150422
 ---------------------------------------------------------------------

 SCF Done:  E(RB2PLYPD3) =  -155.697091850     A.U. after   11 cycles
 E2(B2PLYPD3) =    -0.2255457360D+00 E(B2PLYPD3) =    -0.15592263758593D+03

 The electronic state is 1-A.
 Alpha  occ. eigenvalues --  -10.62510 -10.62380 -10.61616 -10.61336  -0.93059
 Alpha  occ. eigenvalues --   -0.84978  -0.70442  -0.64467  -0.54944  -0.53839
 Alpha  occ. eigenvalues --   -0.46960  -0.45437  -0.41263  -0.37918  -0.27661
 Alpha virt. eigenvalues --    0.01670   0.06988   0.07510   0.08093   0.09566
 Alpha virt. eigenvalues --    0.11586   0.12517   0.14739   0.15876   0.16232
 Alpha virt. eigenvalues --    0.18937   0.20503   0.21619   0.23007   0.23480

 Mulliken charges:
               1
     1  C   -0.174464
     2  C   -0.025766
     3  C   -0.043519
     4  C   -0.167908
     5  H    0.075195
     6  H    0.063973
     7  H    0.061646
     8  H    0.061167
     9  H    0.064395
    10  H    0.085282
 Sum of Mulliken charges =   0.00000

 Dipole moment (field-independent basis, Debye):
    X=              0.0430    Y=             -0.0275    Z=              0.1646  Tot=              0.1723
 Quadrupole moment (field-independent basis, Debye-Ang):
   XX=            -23.3612   YY=            -23.1908   ZZ=            -29.1413
   XY=             -0.3200   XZ=             -0.0508   YZ=              0.0368

 1\1\GINC-NODE26\SP\RB2PLYPD3-FC\def2QZVP\C4H6\BOITTIER\26-Aug-2020\0\\
 #p B2PLYPD3/Def2QZVP\\butadiene\\0,1\C,0,-3.833185,0.231419,0.049784\C
 ,0,-2.720817,-0.504497,-0.00935\C,0,-1.383019,0.059276,-0.025486\C,0,-
 0.256303,-0.646539,0.059488\H,0,-4.812561,-0.218508,0.237678\H,0,-3.88
 2199,1.287283,-0.005046\H,0,-2.871488,-1.566468,-0.037468\H,0,-1.38160
 4,1.129961,-0.070013\H,0,-0.25156,-1.751503,0.14095\H,0,0.69549,-0.181
 585,0.170137\\Version=ES64L-G09RevD.01\State=1-A\HF=-155.6970918\MP2=-
 155.9226376\RMSD=3.820e-09\PG=C01 [X(C4H6)]\\@

 Normal termination of Gaussian 09 at Wed Aug 26 09:22:54 2020.
