 Gaussian 09, Revision D.01,
 Gaussian 09:  ES64L-G09RevD.01 24-Apr-2013

 --------------------
 #p B2PLYPD3/Def2QZVP
 --------------------

 ---------
 butadiene
 ---------
 Symbolic Z-matrix:
 Charge =  0 Multiplicity = 1

                         Standard orientation:
 ---------------------------------------------------------------------
 Center     Atomic      Atomic             Coordinates (Angstroms)
 Number     Number       Type             X           Y           Z
 ---------------------------------------------------------------------
      1          6           0        1.840578    0.067807   -0.063999
      2          6           0        0.617442   -0.319651    0.082749
      3          6           0       -0.606324    0.437116    0.030955
      4          6           0       -1.822244   -0.152406   -0.037975
      5          1           0        2.664537   -0.734649   -0.137127
      6          1           0        1.983894    1.178629   -0.118908
      7          1           0        0.373935   -1.366137    0.329437
      8          1           0       -0.492304    1.490073    0.167179
      9          1           0       -2.018632   -1.245458   -0.265706
     10          1           0       -2.688138    0.480345   -0.045257
 ---------------------------------------------------------------------

 SCF Done:  E(RB2PLYPD3) =  -155.681841073     A.U. after   11 cycles
 E2(B2PLYPD3) =    -0.2264988178D+00 E(B2PLYPD3) =    -0.15590833989088D+03

 The electronic state is 1-A.
 Alpha  occ. eigenvalues --  -10.62663 -10.62412 -10.61993 -10.61501  -0.93480
 Alpha  occ. eigenvalues --   -0.85070  -0.70030  -0.63337  -0.54046  -0.53295
 Alpha  occ. eigenvalues --   -0.47174  -0.45235  -0.40820  -0.37198  -0.28039
 Alpha virt. eigenvalues --    0.01679   0.06908   0.07278   0.07794   0.09739
 Alpha virt. eigenvalues --    0.11671   0.12032   0.14666   0.15086   0.15931
 Alpha virt. eigenvalues --    0.18423   0.20051   0.21007   0.22166   0.23980

 Mulliken charges:
               1
     1  C   -0.184132
     2  C   -0.008716
     3  C   -0.050060
     4  C   -0.176717
     5  H    0.094012
     6  H    0.063546
     7  H    0.048581
     8  H    0.057551
     9  H    0.073886
    10  H    0.082049
 Sum of Mulliken charges =   0.00000

 Dipole moment (field-independent basis, Debye):
    X=             -0.1211    Y=              0.0099    Z=             -0.0131  Tot=              0.1222
 Quadrupole moment (field-independent basis, Debye-Ang):
   XX=            -24.0385   YY=            -23.2241   ZZ=            -29.1160
   XY=              0.0448   XZ=              0.0697   YZ=              0.2253

 1\1\GINC-NODE08\SP\RB2PLYPD3-FC\def2QZVP\C4H6\BOITTIER\26-Aug-2020\0\\
 #p B2PLYPD3/Def2QZVP\\butadiene\\0,1\C,0,-3.847047,0.18539,0.080174\C,
 0,-2.715366,-0.424689,-0.041575\C,0,-1.374496,0.099605,-0.028764\C,0,-
 0.284863,-0.695669,0.076056\H,0,-4.802055,-0.449282,0.195683\H,0,-3.78
 6545,1.305106,0.072805\H,0,-2.66713,-1.509966,-0.229004\H,0,-1.297089,
 1.146647,-0.223672\H,0,-0.287834,-1.791947,0.364776\H,0,0.681277,-0.23
 0789,0.050386\\Version=ES64L-G09RevD.01\State=1-A\HF=-155.6818411\MP2=
 -155.9083399\RMSD=9.305e-09\PG=C01 [X(C4H6)]\\@

 Normal termination of Gaussian 09 at Wed Aug 26 12:32:14 2020.
