 Gaussian 09, Revision D.01,
 Gaussian 09:  ES64L-G09RevD.01 24-Apr-2013

 --------------------
 #p B2PLYPD3/Def2QZVP
 --------------------

 ---------
 butadiene
 ---------
 Symbolic Z-matrix:
 Charge =  0 Multiplicity = 1

                         Standard orientation:
 ---------------------------------------------------------------------
 Center     Atomic      Atomic             Coordinates (Angstroms)
 Number     Number       Type             X           Y           Z
 ---------------------------------------------------------------------
      1          6           0        1.834695   -0.109104    0.079464
      2          6           0        0.593293    0.361886   -0.078853
      3          6           0       -0.624760   -0.420783   -0.044168
      4          6           0       -1.830513    0.126061    0.041438
      5          1           0        2.606779    0.571544   -0.052769
      6          1           0        2.136480   -1.094878    0.103011
      7          1           0        0.644718    1.484860   -0.157760
      8          1           0       -0.503985   -1.438743   -0.067577
      9          1           0       -2.001243    1.210221    0.266469
     10          1           0       -2.719039   -0.481364   -0.078661
 ---------------------------------------------------------------------

 SCF Done:  E(RB2PLYPD3) =  -155.685120467     A.U. after   11 cycles
 E2(B2PLYPD3) =    -0.2255438228D+00 E(B2PLYPD3) =    -0.15591066428981D+03

 The electronic state is 1-A.
 Alpha  occ. eigenvalues --  -10.62688 -10.62031 -10.61881 -10.60142  -0.93166
 Alpha  occ. eigenvalues --   -0.85406  -0.70601  -0.64375  -0.55163  -0.54339
 Alpha  occ. eigenvalues --   -0.46836  -0.45266  -0.41324  -0.37742  -0.27703
 Alpha virt. eigenvalues --    0.01521   0.06991   0.07694   0.07855   0.09681
 Alpha virt. eigenvalues --    0.11596   0.12435   0.14979   0.16021   0.16153
 Alpha virt. eigenvalues --    0.19014   0.20377   0.20879   0.22551   0.24319

 Mulliken charges:
               1
     1  C   -0.166669
     2  C   -0.024301
     3  C   -0.052508
     4  C   -0.166409
     5  H    0.071041
     6  H    0.060381
     7  H    0.048143
     8  H    0.076166
     9  H    0.072840
    10  H    0.081316
 Sum of Mulliken charges =   0.00000

 Dipole moment (field-independent basis, Debye):
    X=             -0.0283    Y=             -0.0840    Z=             -0.0643  Tot=              0.1095
 Quadrupole moment (field-independent basis, Debye-Ang):
   XX=            -23.4683   YY=            -23.0962   ZZ=            -29.0359
   XY=             -0.1105   XZ=             -0.2710   YZ=              0.1420

 1\1\GINC-NODE03\SP\RB2PLYPD3-FC\def2QZVP\C4H6\BOITTIER\26-Aug-2020\0\\
 #p B2PLYPD3/Def2QZVP\\butadiene\\0,1\C,0,-3.842802,0.215275,0.091007\C
 ,0,-2.704458,-0.473559,-0.04187\C,0,-1.367338,0.082758,-0.034944\C,0,-
 0.276694,-0.66406,0.078929\H,0,-4.72326,-0.323501,-0.015741\H,0,-3.965
 885,1.238922,0.071601\H,0,-2.953422,-1.572174,-0.073523\H,0,-1.306721,
 1.104144,-0.101832\H,0,-0.299182,-1.750825,0.350271\H,0,0.704666,-0.22
 8509,-0.062829\\Version=ES64L-G09RevD.01\State=1-A\HF=-155.6851205\MP2
 =-155.9106643\RMSD=6.973e-09\PG=C01 [X(C4H6)]\\@

 Normal termination of Gaussian 09 at Wed Aug 26 14:41:46 2020.
