 Gaussian 09, Revision D.01,
 Gaussian 09:  ES64L-G09RevD.01 24-Apr-2013

 --------------------
 #p B2PLYPD3/Def2QZVP
 --------------------

 ---------
 butadiene
 ---------
 Symbolic Z-matrix:
 Charge =  0 Multiplicity = 1

                         Standard orientation:
 ---------------------------------------------------------------------
 Center     Atomic      Atomic             Coordinates (Angstroms)
 Number     Number       Type             X           Y           Z
 ---------------------------------------------------------------------
      1          6           0        1.853036    0.120678    0.040929
      2          6           0        0.631840   -0.420056   -0.039855
      3          6           0       -0.614386    0.374394   -0.061737
      4          6           0       -1.863254   -0.099513    0.037281
      5          1           0        2.781266   -0.481490    0.024192
      6          1           0        1.960529    1.231916    0.020263
      7          1           0        0.442631   -1.481606    0.026163
      8          1           0       -0.466973    1.436003   -0.015026
      9          1           0       -2.053723   -1.134770   -0.016954
     10          1           0       -2.707145    0.576930    0.101654
 ---------------------------------------------------------------------

 SCF Done:  E(RB2PLYPD3) =  -155.696582081     A.U. after   11 cycles
 E2(B2PLYPD3) =    -0.2260788807D+00 E(B2PLYPD3) =    -0.15592266096209D+03

 The electronic state is 1-A.
 Alpha  occ. eigenvalues --  -10.62904 -10.62530 -10.62438 -10.61348  -0.92596
 Alpha  occ. eigenvalues --   -0.84860  -0.70018  -0.64173  -0.54379  -0.53619
 Alpha  occ. eigenvalues --   -0.47140  -0.45652  -0.40656  -0.37786  -0.27871
 Alpha virt. eigenvalues --    0.01613   0.06951   0.07448   0.08110   0.09411
 Alpha virt. eigenvalues --    0.11689   0.12411   0.14569   0.15686   0.16021
 Alpha virt. eigenvalues --    0.18880   0.20100   0.21527   0.22949   0.24028

 Mulliken charges:
               1
     1  C   -0.166297
     2  C   -0.042401
     3  C   -0.024101
     4  C   -0.182117
     5  H    0.087879
     6  H    0.062882
     7  H    0.056998
     8  H    0.052220
     9  H    0.068338
    10  H    0.086600
 Sum of Mulliken charges =   0.00000

 Dipole moment (field-independent basis, Debye):
    X=              0.0111    Y=             -0.0177    Z=              0.0518  Tot=              0.0559
 Quadrupole moment (field-independent basis, Debye-Ang):
   XX=            -23.3405   YY=            -23.2420   ZZ=            -29.3440
   XY=              0.1664   XZ=             -0.1553   YZ=              0.0685

 1\1\GINC-NODE33\SP\RB2PLYPD3-FC\def2QZVP\C4H6\BOITTIER\26-Aug-2020\0\\
 #p B2PLYPD3/Def2QZVP\\butadiene\\0,1\C,0,-3.853161,0.232896,-0.024534\
 C,0,-2.746653,-0.512544,0.076458\C,0,-1.37928,0.048675,0.070652\C,0,-0
 .234721,-0.642322,-0.010422\H,0,-4.873286,-0.19421,0.013179\H,0,-3.761
 945,1.345612,-0.043864\H,0,-2.748901,-1.592485,0.048737\H,0,-1.336529,
 1.117267,-0.014256\H,0,-0.230386,-1.692362,0.081088\H,0,0.71529,-0.128
 903,-0.098466\\Version=ES64L-G09RevD.01\State=1-A\HF=-155.6965821\MP2=
 -155.922661\RMSD=4.747e-09\PG=C01 [X(C4H6)]\\@

 Normal termination of Gaussian 09 at Wed Aug 26 09:03:44 2020.
