 Gaussian 09, Revision D.01,
 Gaussian 09:  ES64L-G09RevD.01 24-Apr-2013

 --------------------
 #p B2PLYPD3/Def2QZVP
 --------------------

 ---------
 butadiene
 ---------
 Symbolic Z-matrix:
 Charge =  0 Multiplicity = 1

                         Standard orientation:
 ---------------------------------------------------------------------
 Center     Atomic      Atomic             Coordinates (Angstroms)
 Number     Number       Type             X           Y           Z
 ---------------------------------------------------------------------
      1          6           0       -1.847803   -0.124733   -0.001002
      2          6           0       -0.612279    0.412316   -0.005212
      3          6           0        0.604757   -0.388622   -0.008005
      4          6           0        1.840923    0.105148    0.010868
      5          1           0       -2.696615    0.537237   -0.029916
      6          1           0       -1.995042   -1.180598    0.088865
      7          1           0       -0.471424    1.475741   -0.004178
      8          1           0        0.504895   -1.464549   -0.040092
      9          1           0        2.062780    1.163411    0.033777
     10          1           0        2.681816   -0.555893   -0.028354
 ---------------------------------------------------------------------

 SCF Done:  E(RB2PLYPD3) =  -155.700566281     A.U. after   11 cycles
 E2(B2PLYPD3) =    -0.2255900735D+00 E(B2PLYPD3) =    -0.15592615635458D+03

 The electronic state is 1-A.
 Alpha  occ. eigenvalues --  -10.62590 -10.62323 -10.61535 -10.61228  -0.92868
 Alpha  occ. eigenvalues --   -0.84945  -0.70281  -0.64270  -0.54499  -0.54200
 Alpha  occ. eigenvalues --   -0.46517  -0.46082  -0.41303  -0.37955  -0.27604
 Alpha virt. eigenvalues --    0.01670   0.07004   0.07500   0.08084   0.09573
 Alpha virt. eigenvalues --    0.11716   0.12354   0.14858   0.15911   0.16062
 Alpha virt. eigenvalues --    0.18807   0.20585   0.21515   0.22763   0.24043

 Mulliken charges:
               1
     1  C   -0.178742
     2  C   -0.039707
     3  C   -0.025523
     4  C   -0.177772
     5  H    0.086435
     6  H    0.073942
     7  H    0.059543
     8  H    0.053710
     9  H    0.064929
    10  H    0.083184
 Sum of Mulliken charges =   0.00000

 Dipole moment (field-independent basis, Debye):
    X=              0.0117    Y=              0.0092    Z=              0.0163  Tot=              0.0221
 Quadrupole moment (field-independent basis, Debye-Ang):
   XX=            -23.5998   YY=            -22.9627   ZZ=            -29.2594
   XY=              0.1573   XZ=             -0.1314   YZ=             -0.0334

 1\1\GINC-NODE19\SP\RB2PLYPD3-FC\def2QZVP\C4H6\BOITTIER\26-Aug-2020\0\\
 #p B2PLYPD3/Def2QZVP\\butadiene\\0,1\C,0,-3.8458,0.239069,0.0165\C,0,-
 2.726606,-0.510448,0.040752\C,0,-1.385665,0.058962,0.022401\C,0,-0.258
 141,-0.648823,0.022252\H,0,-4.799481,-0.258749,0.063323\H,0,-3.801548,
 1.30095,-0.106206\H,0,-2.77874,-1.581414,0.072814\H,0,-1.290878,1.1358
 25,0.02111\H,0,-0.229719,-1.729912,0.032523\H,0,0.687767,-0.148403,0.0
 43538\\Version=ES64L-G09RevD.01\State=1-A\HF=-155.7005663\MP2=-155.926
 1564\RMSD=5.576e-09\PG=C01 [X(C4H6)]\\@

 Normal termination of Gaussian 09 at Wed Aug 26 21:49:19 2020.
