 Gaussian 09, Revision D.01,
 Gaussian 09:  ES64L-G09RevD.01 24-Apr-2013

 --------------------
 #p B2PLYPD3/Def2QZVP
 --------------------

 ---------
 butadiene
 ---------
 Symbolic Z-matrix:
 Charge =  0 Multiplicity = 1

                         Standard orientation:
 ---------------------------------------------------------------------
 Center     Atomic      Atomic             Coordinates (Angstroms)
 Number     Number       Type             X           Y           Z
 ---------------------------------------------------------------------
      1          6           0        1.824167    0.093641   -0.052876
      2          6           0        0.596987   -0.384258    0.037537
      3          6           0       -0.593887    0.435380    0.021354
      4          6           0       -1.820830   -0.134717   -0.036662
      5          1           0        2.603908   -0.606045    0.015342
      6          1           0        2.011302    1.175098   -0.047264
      7          1           0        0.467237   -1.416666    0.206963
      8          1           0       -0.480451    1.522657    0.103809
      9          1           0       -1.924026   -1.209203   -0.163872
     10          1           0       -2.716587    0.473886    0.068899
 ---------------------------------------------------------------------

 SCF Done:  E(RB2PLYPD3) =  -155.695737888     A.U. after   11 cycles
 E2(B2PLYPD3) =    -0.2258312938D+00 E(B2PLYPD3) =    -0.15592156918131D+03

 The electronic state is 1-A.
 Alpha  occ. eigenvalues --  -10.62729 -10.61832 -10.61640 -10.60847  -0.93245
 Alpha  occ. eigenvalues --   -0.84880  -0.69955  -0.64237  -0.54652  -0.53925
 Alpha  occ. eigenvalues --   -0.46251  -0.46054  -0.41678  -0.37785  -0.27532
 Alpha virt. eigenvalues --    0.01753   0.07123   0.07367   0.08035   0.09465
 Alpha virt. eigenvalues --    0.11797   0.12321   0.14762   0.15622   0.16210
 Alpha virt. eigenvalues --    0.18713   0.20163   0.21383   0.22626   0.24474

 Mulliken charges:
               1
     1  C   -0.178562
     2  C   -0.026824
     3  C   -0.036922
     4  C   -0.181552
     5  H    0.083359
     6  H    0.067814
     7  H    0.059366
     8  H    0.057898
     9  H    0.070032
    10  H    0.085389
 Sum of Mulliken charges =   0.00000

 Dipole moment (field-independent basis, Debye):
    X=             -0.0170    Y=             -0.0199    Z=              0.2100  Tot=              0.2116
 Quadrupole moment (field-independent basis, Debye-Ang):
   XX=            -24.0251   YY=            -22.8709   ZZ=            -29.1761
   XY=              0.0721   XZ=              0.1140   YZ=              0.0797

 1\1\GINC-NODE03\SP\RB2PLYPD3-FC\def2QZVP\C4H6\BOITTIER\26-Aug-2020\0\\
 #p B2PLYPD3/Def2QZVP\\butadiene\\0,1\C,0,-3.828103,0.209925,0.064629\C
 ,0,-2.708681,-0.486196,-0.004963\C,0,-1.38853,0.103164,-0.015142\C,0,-
 0.285543,-0.678148,0.066936\H,0,-4.722364,-0.338237,0.019616\H,0,-3.81
 542,1.306459,0.019314\H,0,-2.769541,-1.530417,-0.136508\H,0,-1.302613,
 1.189233,-0.137254\H,0,-0.37903,-1.748167,0.233281\H,0,0.705564,-0.246
 873,-0.058089\\Version=ES64L-G09RevD.01\State=1-A\HF=-155.6957379\MP2=
 -155.9215692\RMSD=8.019e-09\PG=C01 [X(C4H6)]\\@

 Normal termination of Gaussian 09 at Wed Aug 26 09:29:06 2020.
