 Gaussian 09, Revision D.01,
 Gaussian 09:  ES64L-G09RevD.01 24-Apr-2013

 --------------------
 #p B2PLYPD3/Def2QZVP
 --------------------

 ---------
 butadiene
 ---------
 Symbolic Z-matrix:
 Charge =  0 Multiplicity = 1

                         Standard orientation:
 ---------------------------------------------------------------------
 Center     Atomic      Atomic             Coordinates (Angstroms)
 Number     Number       Type             X           Y           Z
 ---------------------------------------------------------------------
      1          6           0        1.811327   -0.131515    0.068945
      2          6           0        0.591658    0.386283   -0.051795
      3          6           0       -0.617938   -0.422273   -0.061864
      4          6           0       -1.794580    0.131356    0.045154
      5          1           0        2.618207    0.610037    0.036602
      6          1           0        2.022022   -1.134677   -0.038987
      7          1           0        0.463460    1.480743    0.015287
      8          1           0       -0.574049   -1.474022   -0.126017
      9          1           0       -1.824760    1.235869   -0.136726
     10          1           0       -2.647682   -0.501053    0.247198
 ---------------------------------------------------------------------

 SCF Done:  E(RB2PLYPD3) =  -155.687297941     A.U. after   11 cycles
 E2(B2PLYPD3) =    -0.2254589589D+00 E(B2PLYPD3) =    -0.15591275690025D+03

 The electronic state is 1-A.
 Alpha  occ. eigenvalues --  -10.62494 -10.61447 -10.61193 -10.60685  -0.93601
 Alpha  occ. eigenvalues --   -0.85522  -0.69381  -0.64323  -0.55489  -0.53337
 Alpha  occ. eigenvalues --   -0.46372  -0.45530  -0.41569  -0.38018  -0.27748
 Alpha virt. eigenvalues --    0.02240   0.06969   0.07381   0.08051   0.09299
 Alpha virt. eigenvalues --    0.11951   0.12315   0.14887   0.15435   0.16433
 Alpha virt. eigenvalues --    0.18441   0.19207   0.21603   0.23687   0.24812

 Mulliken charges:
               1
     1  C   -0.177093
     2  C   -0.029398
     3  C   -0.027820
     4  C   -0.178803
     5  H    0.072926
     6  H    0.075299
     7  H    0.052607
     8  H    0.058966
     9  H    0.066889
    10  H    0.086427
 Sum of Mulliken charges =   0.00000

 Dipole moment (field-independent basis, Debye):
    X=             -0.0781    Y=             -0.1000    Z=             -0.1043  Tot=              0.1642
 Quadrupole moment (field-independent basis, Debye-Ang):
   XX=            -24.4264   YY=            -22.7976   ZZ=            -29.0113
   XY=              0.2034   XZ=             -0.4281   YZ=             -0.0997

 1\1\GINC-NODE11\SP\RB2PLYPD3-FC\def2QZVP\C4H6\BOITTIER\26-Aug-2020\0\\
 #p B2PLYPD3/Def2QZVP\\butadiene\\0,1\C,0,-3.814458,0.229282,0.082022\C
 ,0,-2.704191,-0.497032,-0.01827\C,0,-1.371882,0.087034,-0.046697\C,0,-
 0.310052,-0.660307,0.081529\H,0,-4.738574,-0.360472,0.067844\H,0,-3.84
 6632,1.250201,-0.056055\H,0,-2.769238,-1.594591,0.081283\H,0,-1.231289
 ,1.12791,-0.141711\H,0,-0.473574,-1.757973,-0.067903\H,0,0.640637,-0.1
 81041,0.26872\\Version=ES64L-G09RevD.01\State=1-A\HF=-155.6872979\MP2=
 -155.9127569\RMSD=9.471e-09\PG=C01 [X(C4H6)]\\@

 Normal termination of Gaussian 09 at Wed Aug 26 11:24:50 2020.
