 Gaussian 09, Revision D.01,
 Gaussian 09:  ES64L-G09RevD.01 24-Apr-2013

 --------------------
 #p B2PLYPD3/Def2QZVP
 --------------------

 ---------
 butadiene
 ---------
 Symbolic Z-matrix:
 Charge =  0 Multiplicity = 1

                         Standard orientation:
 ---------------------------------------------------------------------
 Center     Atomic      Atomic             Coordinates (Angstroms)
 Number     Number       Type             X           Y           Z
 ---------------------------------------------------------------------
      1          6           0       -1.854984    0.080498   -0.035796
      2          6           0       -0.619889   -0.326522    0.042037
      3          6           0        0.624102    0.432937    0.005520
      4          6           0        1.819021   -0.154468    0.001374
      5          1           0       -2.601030   -0.638642   -0.125045
      6          1           0       -2.108249    1.082830   -0.039248
      7          1           0       -0.600888   -1.360653    0.283850
      8          1           0        0.652936    1.527388    0.067821
      9          1           0        2.113152   -1.216562   -0.271115
     10          1           0        2.734583    0.410970    0.004926
 ---------------------------------------------------------------------

 SCF Done:  E(RB2PLYPD3) =  -155.681228851     A.U. after   11 cycles
 E2(B2PLYPD3) =    -0.2251253802D+00 E(B2PLYPD3) =    -0.15590635423150D+03

 The electronic state is 1-A.
 Alpha  occ. eigenvalues --  -10.63088 -10.62018 -10.61577 -10.59819  -0.93243
 Alpha  occ. eigenvalues --   -0.85931  -0.70355  -0.64059  -0.55556  -0.54334
 Alpha  occ. eigenvalues --   -0.47197  -0.44922  -0.40951  -0.37523  -0.28055
 Alpha virt. eigenvalues --    0.01766   0.07060   0.07683   0.07790   0.09565
 Alpha virt. eigenvalues --    0.11470   0.12570   0.14612   0.15613   0.16726
 Alpha virt. eigenvalues --    0.19023   0.19827   0.21738   0.22389   0.23921

 Mulliken charges:
               1
     1  C   -0.178686
     2  C   -0.020491
     3  C   -0.058444
     4  C   -0.154907
     5  H    0.084702
     6  H    0.066167
     7  H    0.063942
     8  H    0.064677
     9  H    0.065898
    10  H    0.067142
 Sum of Mulliken charges =   0.00000

 Dipole moment (field-independent basis, Debye):
    X=              0.0749    Y=              0.0405    Z=             -0.0525  Tot=              0.1000
 Quadrupole moment (field-independent basis, Debye-Ang):
   XX=            -23.1683   YY=            -23.3191   ZZ=            -28.8765
   XY=              0.0221   XZ=             -0.2581   YZ=              0.1509

 1\1\GINC-NODE40\SP\RB2PLYPD3-FC\def2QZVP\C4H6\BOITTIER\26-Aug-2020\0\\
 #p B2PLYPD3/Def2QZVP\\butadiene\\0,1\C,0,-3.86277,0.181487,-0.009789\C
 ,0,-2.71639,-0.432042,0.071322\C,0,-1.359954,0.100339,0.023622\C,0,-0.
 284627,-0.684876,0.025054\H,0,-4.722239,-0.398807,-0.089055\H,0,-3.938
 913,1.212403,-0.025303\H,0,-2.875634,-1.450909,0.325906\H,0,-1.142087,
 1.173978,0.072313\H,0,-0.179546,-1.785017,-0.23467\H,0,0.714923,-0.286
 299,0.020292\\Version=ES64L-G09RevD.01\State=1-A\HF=-155.6812289\MP2=-
 155.9063542\RMSD=7.813e-09\PG=C01 [X(C4H6)]\\@

 Normal termination of Gaussian 09 at Wed Aug 26 14:56:31 2020.
