 Gaussian 09, Revision D.01,
 Gaussian 09:  ES64L-G09RevD.01 24-Apr-2013

 --------------------
 #p B2PLYPD3/Def2QZVP
 --------------------

 ---------
 butadiene
 ---------
 Symbolic Z-matrix:
 Charge =  0 Multiplicity = 1

                         Standard orientation:
 ---------------------------------------------------------------------
 Center     Atomic      Atomic             Coordinates (Angstroms)
 Number     Number       Type             X           Y           Z
 ---------------------------------------------------------------------
      1          6           0        1.825967    0.100712   -0.019818
      2          6           0        0.602735   -0.384491    0.019758
      3          6           0       -0.593072    0.418838    0.017950
      4          6           0       -1.821652   -0.135633   -0.047915
      5          1           0        2.663949   -0.570427   -0.020955
      6          1           0        1.984863    1.192434   -0.106590
      7          1           0        0.438321   -1.462552    0.178347
      8          1           0       -0.552627    1.533836    0.134863
      9          1           0       -1.925311   -1.199976   -0.085024
     10          1           0       -2.693063    0.510126    0.079508
 ---------------------------------------------------------------------

 SCF Done:  E(RB2PLYPD3) =  -155.695869641     A.U. after   11 cycles
 E2(B2PLYPD3) =    -0.2261860390D+00 E(B2PLYPD3) =    -0.15592205567980D+03

 The electronic state is 1-A.
 Alpha  occ. eigenvalues --  -10.62826 -10.62276 -10.61537 -10.61348  -0.93228
 Alpha  occ. eigenvalues --   -0.84963  -0.69800  -0.63471  -0.54345  -0.54086
 Alpha  occ. eigenvalues --   -0.46044  -0.45517  -0.41417  -0.38004  -0.27672
 Alpha virt. eigenvalues --    0.01785   0.07115   0.07171   0.07906   0.09565
 Alpha virt. eigenvalues --    0.11761   0.12277   0.14721   0.15574   0.16165
 Alpha virt. eigenvalues --    0.18659   0.19945   0.21300   0.22821   0.24200

 Mulliken charges:
               1
     1  C   -0.178511
     2  C   -0.025363
     3  C   -0.028700
     4  C   -0.180580
     5  H    0.088535
     6  H    0.068351
     7  H    0.053379
     8  H    0.051268
     9  H    0.067286
    10  H    0.084335
 Sum of Mulliken charges =   0.00000

 Dipole moment (field-independent basis, Debye):
    X=              0.0133    Y=             -0.0178    Z=              0.1823  Tot=              0.1837
 Quadrupole moment (field-independent basis, Debye-Ang):
   XX=            -23.9482   YY=            -22.9756   ZZ=            -29.2456
   XY=             -0.0596   XZ=             -0.3600   YZ=              0.0032

 1\1\GINC-NODE38\SP\RB2PLYPD3-FC\def2QZVP\C4H6\BOITTIER\26-Aug-2020\0\\
 #p B2PLYPD3/Def2QZVP\\butadiene\\0,1\C,0,-3.829131,0.210397,0.039728\C
 ,0,-2.712269,-0.486151,0.012803\C,0,-1.39243,0.090708,-0.010709\C,0,-0
 .281957,-0.671889,0.069795\H,0,-4.773301,-0.30019,0.061798\H,0,-3.7902
 99,1.314991,0.094492\H,0,-2.743711,-1.580359,-0.114157\H,0,-1.234243,1
 .191207,-0.16039\H,0,-0.369442,-1.736138,0.138127\H,0,0.689747,-0.1958
 6,-0.077802\\Version=ES64L-G09RevD.01\State=1-A\HF=-155.6958696\MP2=-1
 55.9220557\RMSD=7.595e-09\PG=C01 [X(C4H6)]\\@

 Normal termination of Gaussian 09 at Wed Aug 26 09:51:40 2020.
