 Gaussian 09, Revision D.01,
 Gaussian 09:  ES64L-G09RevD.01 24-Apr-2013

 --------------------
 #p B2PLYPD3/Def2QZVP
 --------------------

 ---------
 butadiene
 ---------
 Symbolic Z-matrix:
 Charge =  0 Multiplicity = 1

                         Standard orientation:
 ---------------------------------------------------------------------
 Center     Atomic      Atomic             Coordinates (Angstroms)
 Number     Number       Type             X           Y           Z
 ---------------------------------------------------------------------
      1          6           0        1.841814   -0.116153    0.015959
      2          6           0        0.612922    0.412007   -0.031226
      3          6           0       -0.610190   -0.393976   -0.004667
      4          6           0       -1.848518    0.101762   -0.000696
      5          1           0        2.735693    0.508340    0.057550
      6          1           0        1.949775   -1.210608   -0.002892
      7          1           0        0.490173    1.485362   -0.002985
      8          1           0       -0.436917   -1.435478   -0.029615
      9          1           0       -2.028580    1.160048    0.035948
     10          1           0       -2.686314   -0.529503    0.065771
 ---------------------------------------------------------------------

 SCF Done:  E(RB2PLYPD3) =  -155.699660670     A.U. after   11 cycles
 E2(B2PLYPD3) =    -0.2255177330D+00 E(B2PLYPD3) =    -0.15592517840330D+03

 The electronic state is 1-A.
 Alpha  occ. eigenvalues --  -10.62516 -10.62277 -10.61882 -10.61077  -0.92898
 Alpha  occ. eigenvalues --   -0.84975  -0.70219  -0.64380  -0.54725  -0.53918
 Alpha  occ. eigenvalues --   -0.46947  -0.45805  -0.41163  -0.37969  -0.27749
 Alpha virt. eigenvalues --    0.01768   0.07015   0.07468   0.08171   0.09514
 Alpha virt. eigenvalues --    0.11705   0.12486   0.14673   0.15773   0.16200
 Alpha virt. eigenvalues --    0.18777   0.20311   0.21736   0.23024   0.23910

 Mulliken charges:
               1
     1  C   -0.176740
     2  C   -0.029977
     3  C   -0.033547
     4  C   -0.175881
     5  H    0.088437
     6  H    0.062750
     7  H    0.054734
     8  H    0.057325
     9  H    0.066250
    10  H    0.086648
 Sum of Mulliken charges =   0.00000

 Dipole moment (field-independent basis, Debye):
    X=              0.0015    Y=              0.0089    Z=              0.0920  Tot=              0.0925
 Quadrupole moment (field-independent basis, Debye-Ang):
   XX=            -23.4680   YY=            -23.1007   ZZ=            -29.2459
   XY=             -0.0924   XZ=             -0.0766   YZ=              0.0882

 1\1\GINC-NODE02\SP\RB2PLYPD3-FC\def2QZVP\C4H6\BOITTIER\26-Aug-2020\0\\
 #p B2PLYPD3/Def2QZVP\\butadiene\\0,1\C,0,-3.843412,0.230699,0.034092\C
 ,0,-2.729455,-0.510794,0.008744\C,0,-1.381456,0.062977,0.010157\C,0,-0
 .252206,-0.646541,0.034818\H,0,-4.834699,-0.22135,0.09527\H,0,-3.75325
 6,1.325411,-0.023524\H,0,-2.801242,-1.587087,0.075041\H,0,-1.365077,1.
 117139,-0.051862\H,0,-0.264875,-1.718012,0.109133\H,0,0.685528,-0.1739
 77,0.081245\\Version=ES64L-G09RevD.01\State=1-A\HF=-155.6996607\MP2=-1
 55.9251784\RMSD=3.000e-09\PG=C01 [X(C4H6)]\\@

 Normal termination of Gaussian 09 at Wed Aug 26 18:49:11 2020.
