 Gaussian 09, Revision D.01,
 Gaussian 09:  ES64L-G09RevD.01 24-Apr-2013

 --------------------
 #p B2PLYPD3/Def2QZVP
 --------------------

 ---------
 butadiene
 ---------
 Symbolic Z-matrix:
 Charge =  0 Multiplicity = 1

                         Standard orientation:
 ---------------------------------------------------------------------
 Center     Atomic      Atomic             Coordinates (Angstroms)
 Number     Number       Type             X           Y           Z
 ---------------------------------------------------------------------
      1          6           0        1.858947    0.103783   -0.004132
      2          6           0        0.625437   -0.395200    0.027536
      3          6           0       -0.613321    0.431649   -0.000155
      4          6           0       -1.846382   -0.134052   -0.023159
      5          1           0        2.718624   -0.572509   -0.048966
      6          1           0        2.007081    1.143496   -0.144564
      7          1           0        0.407052   -1.433997    0.103708
      8          1           0       -0.528382    1.543372    0.163409
      9          1           0       -2.022287   -1.228083   -0.069756
     10          1           0       -2.730175    0.510643   -0.004377
 ---------------------------------------------------------------------

 SCF Done:  E(RB2PLYPD3) =  -155.694428344     A.U. after   11 cycles
 E2(B2PLYPD3) =    -0.2265327097D+00 E(B2PLYPD3) =    -0.15592096105374D+03

 The electronic state is 1-A.
 Alpha  occ. eigenvalues --  -10.63538 -10.62589 -10.62336 -10.61361  -0.92317
 Alpha  occ. eigenvalues --   -0.84635  -0.69701  -0.63822  -0.54031  -0.53644
 Alpha  occ. eigenvalues --   -0.46597  -0.45835  -0.40791  -0.37449  -0.27794
 Alpha virt. eigenvalues --    0.01734   0.07023   0.07323   0.07945   0.09087
 Alpha virt. eigenvalues --    0.11670   0.12317   0.14598   0.15585   0.15947
 Alpha virt. eigenvalues --    0.18813   0.20141   0.21487   0.23076   0.23648

 Mulliken charges:
               1
     1  C   -0.173592
     2  C   -0.033931
     3  C   -0.040670
     4  C   -0.180818
     5  H    0.084551
     6  H    0.072902
     7  H    0.061606
     8  H    0.058343
     9  H    0.067607
    10  H    0.084002
 Sum of Mulliken charges =   0.00000

 Dipole moment (field-independent basis, Debye):
    X=             -0.0536    Y=             -0.0296    Z=              0.0049  Tot=              0.0614
 Quadrupole moment (field-independent basis, Debye-Ang):
   XX=            -23.6983   YY=            -23.0177   ZZ=            -29.4019
   XY=              0.2324   XZ=             -0.3701   YZ=              0.0392

 1\1\GINC-NODE01\SP\RB2PLYPD3-FC\def2QZVP\C4H6\BOITTIER\26-Aug-2020\0\\
 #p B2PLYPD3/Def2QZVP\\butadiene\\0,1\C,0,-3.860697,0.215861,0.026558\C
 ,0,-2.735259,-0.494555,0.011278\C,0,-1.369531,0.100208,0.008141\C,0,-0
 .255941,-0.673847,0.049873\H,0,-4.826153,-0.295453,0.096392\H,0,-3.821
 406,1.269621,0.130075\H,0,-2.704772,-1.557622,-0.02813\H,0,-1.257551,1
 .203014,-0.194779\H,0,-0.276128,-1.779439,0.135168\H,0,0.727851,-0.196
 976,0.007172\\Version=ES64L-G09RevD.01\State=1-A\HF=-155.6944283\MP2=-
 155.9209611\RMSD=5.712e-09\PG=C01 [X(C4H6)]\\@

 Normal termination of Gaussian 09 at Wed Aug 26 10:25:56 2020.
