 Gaussian 09, Revision D.01,
 Gaussian 09:  ES64L-G09RevD.01 24-Apr-2013

 --------------------
 #p B2PLYPD3/Def2QZVP
 --------------------

 ---------
 butadiene
 ---------
 Symbolic Z-matrix:
 Charge =  0 Multiplicity = 1

                         Standard orientation:
 ---------------------------------------------------------------------
 Center     Atomic      Atomic             Coordinates (Angstroms)
 Number     Number       Type             X           Y           Z
 ---------------------------------------------------------------------
      1          6           0        1.847736    0.116820   -0.004571
      2          6           0        0.608542   -0.401442    0.011507
      3          6           0       -0.617515    0.368274    0.010066
      4          6           0       -1.845664   -0.094083   -0.027484
      5          1           0        2.726867   -0.536793    0.006258
      6          1           0        2.029548    1.188086   -0.028618
      7          1           0        0.438530   -1.460093    0.031524
      8          1           0       -0.463586    1.451453   -0.030151
      9          1           0       -2.055026   -1.154530   -0.041719
     10          1           0       -2.634928    0.574463    0.125591
 ---------------------------------------------------------------------

 SCF Done:  E(RB2PLYPD3) =  -155.697715511     A.U. after   11 cycles
 E2(B2PLYPD3) =    -0.2253750692D+00 E(B2PLYPD3) =    -0.15592309057991D+03

 The electronic state is 1-A.
 Alpha  occ. eigenvalues --  -10.62480 -10.62064 -10.62028 -10.60766  -0.93200
 Alpha  occ. eigenvalues --   -0.85246  -0.70614  -0.63914  -0.54872  -0.53947
 Alpha  occ. eigenvalues --   -0.47245  -0.45813  -0.40708  -0.38147  -0.27866
 Alpha virt. eigenvalues --    0.01605   0.06976   0.07459   0.08123   0.09894
 Alpha virt. eigenvalues --    0.11716   0.12368   0.14899   0.15581   0.16176
 Alpha virt. eigenvalues --    0.18903   0.20001   0.21982   0.22620   0.23910

 Mulliken charges:
               1
     1  C   -0.175265
     2  C   -0.037828
     3  C   -0.015572
     4  C   -0.176778
     5  H    0.086113
     6  H    0.069553
     7  H    0.053776
     8  H    0.046223
     9  H    0.061690
    10  H    0.088087
 Sum of Mulliken charges =   0.00000

 Dipole moment (field-independent basis, Debye):
    X=              0.0224    Y=             -0.0027    Z=              0.0744  Tot=              0.0778
 Quadrupole moment (field-independent basis, Debye-Ang):
   XX=            -23.4695   YY=            -23.1839   ZZ=            -29.1534
   XY=              0.2591   XZ=             -0.3123   YZ=              0.0287

 1\1\GINC-NODE26\SP\RB2PLYPD3-FC\def2QZVP\C4H6\BOITTIER\26-Aug-2020\0\\
 #p B2PLYPD3/Def2QZVP\\butadiene\\0,1\C,0,-3.848141,0.237364,0.025395\C
 ,0,-2.72411,-0.498168,0.023746\C,0,-1.378431,0.035101,0.002457\C,0,-0.
 254779,-0.641955,0.052806\H,0,-4.831615,-0.245242,0.033803\H,0,-3.8317
 61,1.32407,0.018605\H,0,-2.749774,-1.570212,0.034207\H,0,-1.332373,1.1
 28895,0.011474\H,0,-0.241883,-1.721962,0.097539\H,0,0.642119,-0.132942
 ,-0.119829\\Version=ES64L-G09RevD.01\State=1-A\HF=-155.6977155\MP2=-15
 5.9230906\RMSD=6.717e-09\PG=C01 [X(C4H6)]\\@

 Normal termination of Gaussian 09 at Wed Aug 26 09:22:26 2020.
