 Gaussian 09, Revision D.01,
 Gaussian 09:  ES64L-G09RevD.01 24-Apr-2013

 --------------------
 #p B2PLYPD3/Def2QZVP
 --------------------

 ---------
 butadiene
 ---------
 Symbolic Z-matrix:
 Charge =  0 Multiplicity = 1

                         Standard orientation:
 ---------------------------------------------------------------------
 Center     Atomic      Atomic             Coordinates (Angstroms)
 Number     Number       Type             X           Y           Z
 ---------------------------------------------------------------------
      1          6           0       -1.848486    0.100532    0.014592
      2          6           0       -0.611873   -0.391483   -0.038720
      3          6           0        0.593478    0.393450   -0.040045
      4          6           0        1.841142   -0.114896    0.041539
      5          1           0       -2.750722   -0.497329    0.057546
      6          1           0       -1.988132    1.159741    0.149942
      7          1           0       -0.428257   -1.451745   -0.104006
      8          1           0        0.533359    1.530812   -0.057252
      9          1           0        2.017263   -1.186207    0.135872
     10          1           0        2.770918    0.519102   -0.046296
 ---------------------------------------------------------------------

 SCF Done:  E(RB2PLYPD3) =  -155.694898755     A.U. after   11 cycles
 E2(B2PLYPD3) =    -0.2266488017D+00 E(B2PLYPD3) =    -0.15592154755712D+03

 The electronic state is 1-A.
 Alpha  occ. eigenvalues --  -10.63239 -10.62568 -10.62363 -10.61599  -0.93043
 Alpha  occ. eigenvalues --   -0.84646  -0.70259  -0.63606  -0.54590  -0.53614
 Alpha  occ. eigenvalues --   -0.46681  -0.45031  -0.40839  -0.38216  -0.27581
 Alpha virt. eigenvalues --    0.01313   0.06948   0.07362   0.07850   0.09665
 Alpha virt. eigenvalues --    0.11579   0.12462   0.14564   0.15773   0.16292
 Alpha virt. eigenvalues --    0.18844   0.20112   0.21813   0.22363   0.23388

 Mulliken charges:
               1
     1  C   -0.167882
     2  C   -0.032601
     3  C   -0.024181
     4  C   -0.174593
     5  H    0.086726
     6  H    0.064582
     7  H    0.056588
     8  H    0.046999
     9  H    0.061363
    10  H    0.082999
 Sum of Mulliken charges =   0.00000

 Dipole moment (field-independent basis, Debye):
    X=             -0.0134    Y=             -0.0387    Z=              0.0796  Tot=              0.0896
 Quadrupole moment (field-independent basis, Debye-Ang):
   XX=            -23.2453   YY=            -23.3733   ZZ=            -29.3370
   XY=             -0.1052   XZ=             -0.3331   YZ=              0.0135

 1\1\GINC-NODE15\SP\RB2PLYPD3-FC\def2QZVP\C4H6\BOITTIER\26-Aug-2020\0\\
 #p B2PLYPD3/Def2QZVP\\butadiene\\0,1\C,0,-3.849585,0.215783,0.040139\C
 ,0,-2.72109,-0.490614,-0.000305\C,0,-1.394944,0.065908,-0.02507\C,0,-0
 .257685,-0.654774,0.069782\H,0,-4.843831,-0.20977,0.100915\H,0,-3.7969
 67,1.286244,0.145439\H,0,-2.730214,-1.568021,-0.03558\H,0,-1.251035,1.
 194776,-0.074561\H,0,-0.2752,-1.737267,0.194382\H,0,0.769843,-0.199851
 ,-0.03691\\Version=ES64L-G09RevD.01\State=1-A\HF=-155.6948988\MP2=-155
 .9215476\RMSD=4.264e-09\PG=C01 [X(C4H6)]\\@

 Normal termination of Gaussian 09 at Wed Aug 26 08:47:24 2020.
