 Gaussian 09, Revision D.01,
 Gaussian 09:  ES64L-G09RevD.01 24-Apr-2013

 --------------------
 #p B2PLYPD3/Def2QZVP
 --------------------

 ---------
 butadiene
 ---------
 Symbolic Z-matrix:
 Charge =  0 Multiplicity = 1

                         Standard orientation:
 ---------------------------------------------------------------------
 Center     Atomic      Atomic             Coordinates (Angstroms)
 Number     Number       Type             X           Y           Z
 ---------------------------------------------------------------------
      1          6           0       -1.833642   -0.122750    0.014598
      2          6           0       -0.606692    0.404525   -0.016226
      3          6           0        0.609426   -0.388111   -0.006098
      4          6           0        1.839587    0.106690    0.002540
      5          1           0       -2.715897    0.511999    0.035499
      6          1           0       -2.016523   -1.158041    0.021532
      7          1           0       -0.518345    1.490703   -0.083325
      8          1           0        0.485075   -1.474878   -0.044967
      9          1           0        2.016211    1.155552    0.090885
     10          1           0        2.697406   -0.527461    0.011497
 ---------------------------------------------------------------------

 SCF Done:  E(RB2PLYPD3) =  -155.700495781     A.U. after   11 cycles
 E2(B2PLYPD3) =    -0.2252456283D+00 E(B2PLYPD3) =    -0.15592574140899D+03

 The electronic state is 1-A.
 Alpha  occ. eigenvalues --  -10.62596 -10.62430 -10.61231 -10.60988  -0.93052
 Alpha  occ. eigenvalues --   -0.85179  -0.70382  -0.64135  -0.54724  -0.54334
 Alpha  occ. eigenvalues --   -0.46713  -0.45743  -0.41167  -0.38143  -0.27756
 Alpha virt. eigenvalues --    0.01807   0.07025   0.07499   0.08021   0.09671
 Alpha virt. eigenvalues --    0.11682   0.12510   0.14827   0.15876   0.16217
 Alpha virt. eigenvalues --    0.18799   0.20515   0.21833   0.22743   0.23812

 Mulliken charges:
               1
     1  C   -0.175272
     2  C   -0.031928
     3  C   -0.028776
     4  C   -0.175167
     5  H    0.081356
     6  H    0.069019
     7  H    0.056396
     8  H    0.052785
     9  H    0.066224
    10  H    0.085363
 Sum of Mulliken charges =   0.00000

 Dipole moment (field-independent basis, Debye):
    X=             -0.0188    Y=             -0.0139    Z=              0.0202  Tot=              0.0309
 Quadrupole moment (field-independent basis, Debye-Ang):
   XX=            -23.3732   YY=            -23.1017   ZZ=            -29.1735
   XY=              0.1591   XZ=              0.0919   YZ=              0.0537

 1\1\GINC-NODE24\SP\RB2PLYPD3-FC\def2QZVP\C4H6\BOITTIER\26-Aug-2020\0\\
 #p B2PLYPD3/Def2QZVP\\butadiene\\0,1\C,0,-3.835611,0.231848,0.005138\C
 ,0,-2.722005,-0.504444,0.051273\C,0,-1.384263,0.058427,0.020626\C,0,-0
 .261874,-0.647554,0.026434\H,0,-4.816845,-0.235996,0.000755\H,0,-3.831
 304,1.282593,-0.030052\H,0,-2.828151,-1.586795,0.14791\H,0,-1.313013,1
 .150615,0.029872\H,0,-0.275138,-1.713093,-0.033256\H,0,0.695087,-0.176
 749,0.000966\\Version=ES64L-G09RevD.01\State=1-A\HF=-155.7004958\MP2=-
 155.9257414\RMSD=4.627e-09\PG=C01 [X(C4H6)]\\@

 Normal termination of Gaussian 09 at Wed Aug 26 08:40:14 2020.
