 Gaussian 09, Revision D.01,
 Gaussian 09:  ES64L-G09RevD.01 24-Apr-2013

 --------------------
 #p B2PLYPD3/Def2QZVP
 --------------------

 ---------
 butadiene
 ---------
 Symbolic Z-matrix:
 Charge =  0 Multiplicity = 1

                         Standard orientation:
 ---------------------------------------------------------------------
 Center     Atomic      Atomic             Coordinates (Angstroms)
 Number     Number       Type             X           Y           Z
 ---------------------------------------------------------------------
      1          6           0       -1.834914   -0.118646   -0.033892
      2          6           0       -0.613386    0.406395    0.027461
      3          6           0        0.608595   -0.348949    0.033790
      4          6           0        1.850875    0.095612   -0.086849
      5          1           0       -2.780304    0.426723   -0.052063
      6          1           0       -2.014524   -1.218548   -0.164274
      7          1           0       -0.569932    1.513036    0.301245
      8          1           0        0.555813   -1.412683    0.240761
      9          1           0        2.174127    1.179682   -0.129341
     10          1           0        2.567792   -0.694680    0.160609
 ---------------------------------------------------------------------

 SCF Done:  E(RB2PLYPD3) =  -155.684650341     A.U. after   11 cycles
 E2(B2PLYPD3) =    -0.2267489976D+00 E(B2PLYPD3) =    -0.15591139933899D+03

 The electronic state is 1-A.
 Alpha  occ. eigenvalues --  -10.63111 -10.62320 -10.62247 -10.61878  -0.93153
 Alpha  occ. eigenvalues --   -0.85204  -0.69993  -0.62813  -0.54644  -0.53538
 Alpha  occ. eigenvalues --   -0.46706  -0.44486  -0.40751  -0.37324  -0.28158
 Alpha virt. eigenvalues --    0.01469   0.07028   0.07182   0.07607   0.09763
 Alpha virt. eigenvalues --    0.11134   0.12385   0.14675   0.15389   0.16418
 Alpha virt. eigenvalues --    0.19021   0.19350   0.21509   0.21821   0.23899

 Mulliken charges:
               1
     1  C   -0.163776
     2  C   -0.038980
     3  C   -0.029292
     4  C   -0.165283
     5  H    0.084247
     6  H    0.055678
     7  H    0.060446
     8  H    0.054810
     9  H    0.069201
    10  H    0.072948
 Sum of Mulliken charges =   0.00000

 Dipole moment (field-independent basis, Debye):
    X=             -0.1685    Y=             -0.0148    Z=              0.3482  Tot=              0.3871
 Quadrupole moment (field-independent basis, Debye-Ang):
   XX=            -23.6189   YY=            -23.3684   ZZ=            -29.1427
   XY=              0.2057   XZ=              0.6076   YZ=             -0.0598

 1\1\GINC-NODE14\SP\RB2PLYPD3-FC\def2QZVP\C4H6\BOITTIER\26-Aug-2020\0\\
 #p B2PLYPD3/Def2QZVP\\butadiene\\0,1\C,0,-3.836976,0.232777,0.052757\C
 ,0,-2.729001,-0.502848,-0.00025\C,0,-1.392056,0.022202,-0.027105\C,0,-
 0.248076,-0.63401,0.09996\H,0,-4.864268,-0.134771,0.085926\H,0,-3.8168
 27,1.349641,0.158831\H,0,-2.885306,-1.605173,-0.249146\H,0,-1.255863,1
 .073564,-0.257845\H,0,-0.122882,-1.757165,0.165947\H,0,0.596478,0.0102
 47,-0.167301\\Version=ES64L-G09RevD.01\State=1-A\HF=-155.6846503\MP2=-
 155.9113993\RMSD=4.646e-09\PG=C01 [X(C4H6)]\\@

 Normal termination of Gaussian 09 at Wed Aug 26 13:23:55 2020.
