 Gaussian 09, Revision D.01,
 Gaussian 09:  ES64L-G09RevD.01 24-Apr-2013

 --------------------
 #p B2PLYPD3/Def2QZVP
 --------------------

 ---------
 butadiene
 ---------
 Symbolic Z-matrix:
 Charge =  0 Multiplicity = 1

                         Standard orientation:
 ---------------------------------------------------------------------
 Center     Atomic      Atomic             Coordinates (Angstroms)
 Number     Number       Type             X           Y           Z
 ---------------------------------------------------------------------
      1          6           0       -1.830096    0.067082   -0.008159
      2          6           0       -0.578702   -0.389397   -0.013542
      3          6           0        0.627323    0.468717   -0.031986
      4          6           0        1.793541   -0.154969   -0.002980
      5          1           0       -2.744535   -0.512280    0.126662
      6          1           0       -1.993785    1.226474    0.044033
      7          1           0       -0.452194   -1.415077    0.087129
      8          1           0        0.546440    1.588683   -0.069488
      9          1           0        1.859985   -1.276700   -0.137811
     10          1           0        2.711690    0.440300    0.289476
 ---------------------------------------------------------------------

 SCF Done:  E(RB2PLYPD3) =  -155.680884664     A.U. after   11 cycles
 E2(B2PLYPD3) =    -0.2269674841D+00 E(B2PLYPD3) =    -0.15590785214784D+03

 The electronic state is 1-A.
 Alpha  occ. eigenvalues --  -10.63189 -10.62434 -10.62247 -10.62105  -0.93001
 Alpha  occ. eigenvalues --   -0.84700  -0.68392  -0.63974  -0.54035  -0.53334
 Alpha  occ. eigenvalues --   -0.46669  -0.44182  -0.40915  -0.37667  -0.27762
 Alpha virt. eigenvalues --    0.02073   0.06967   0.07075   0.07897   0.08889
 Alpha virt. eigenvalues --    0.11688   0.12342   0.13985   0.15575   0.16269
 Alpha virt. eigenvalues --    0.18672   0.19823   0.21241   0.22873   0.24141

 Mulliken charges:
               1
     1  C   -0.166104
     2  C   -0.039766
     3  C   -0.034050
     4  C   -0.167265
     5  H    0.084348
     6  H    0.042605
     7  H    0.064171
     8  H    0.068165
     9  H    0.069383
    10  H    0.078513
 Sum of Mulliken charges =   0.00000

 Dipole moment (field-independent basis, Debye):
    X=              0.0850    Y=             -0.0510    Z=              0.2774  Tot=              0.2946
 Quadrupole moment (field-independent basis, Debye-Ang):
   XX=            -24.1875   YY=            -23.0143   ZZ=            -29.3036
   XY=              0.1277   XZ=              0.0271   YZ=              0.1144

 1\1\GINC-NODE18\SP\RB2PLYPD3-FC\def2QZVP\C4H6\BOITTIER\26-Aug-2020\0\\
 #p B2PLYPD3/Def2QZVP\\butadiene\\0,1\C,0,-3.842804,0.177802,0.018174\C
 ,0,-2.692506,-0.493858,0.027068\C,0,-1.353202,0.135412,-0.011407\C,0,-
 0.316353,-0.684698,0.036055\H,0,-4.845295,-0.226068,0.166285\H,0,-3.79
 7642,1.348783,0.039851\H,0,-2.750067,-1.522725,0.154649\H,0,-1.233809,
 1.25056,-0.078208\H,0,-0.450743,-1.803489,-0.069399\H,0,0.693791,-0.25
 4748,0.314668\\Version=ES64L-G09RevD.01\State=1-A\HF=-155.6808847\MP2=
 -155.9078521\RMSD=7.688e-09\PG=C01 [X(C4H6)]\\@

 Normal termination of Gaussian 09 at Wed Aug 26 13:54:15 2020.
