 Gaussian 09, Revision D.01,
 Gaussian 09:  ES64L-G09RevD.01 24-Apr-2013

 --------------------
 #p B2PLYPD3/Def2QZVP
 --------------------

 ---------
 butadiene
 ---------
 Symbolic Z-matrix:
 Charge =  0 Multiplicity = 1

                         Standard orientation:
 ---------------------------------------------------------------------
 Center     Atomic      Atomic             Coordinates (Angstroms)
 Number     Number       Type             X           Y           Z
 ---------------------------------------------------------------------
      1          6           0       -1.818693   -0.101885    0.004402
      2          6           0       -0.588590    0.422983   -0.025921
      3          6           0        0.575446   -0.379055   -0.004799
      4          6           0        1.830891    0.087493    0.018439
      5          1           0       -2.756235    0.425648    0.126596
      6          1           0       -1.929957   -1.198257   -0.018402
      7          1           0       -0.438971    1.519013   -0.031883
      8          1           0        0.373367   -1.461722   -0.058123
      9          1           0        2.106856    1.146674   -0.026708
     10          1           0        2.650620   -0.608576    0.055799
 ---------------------------------------------------------------------

 SCF Done:  E(RB2PLYPD3) =  -155.696570288     A.U. after   11 cycles
 E2(B2PLYPD3) =    -0.2264594624D+00 E(B2PLYPD3) =    -0.15592302974990D+03

 The electronic state is 1-A.
 Alpha  occ. eigenvalues --  -10.62545 -10.62460 -10.61866 -10.61648  -0.93567
 Alpha  occ. eigenvalues --   -0.84580  -0.70584  -0.63741  -0.55072  -0.53431
 Alpha  occ. eigenvalues --   -0.46753  -0.45004  -0.41263  -0.38470  -0.27335
 Alpha virt. eigenvalues --    0.01369   0.07027   0.07221   0.08066   0.09703
 Alpha virt. eigenvalues --    0.11615   0.12491   0.14783   0.15855   0.16140
 Alpha virt. eigenvalues --    0.18709   0.20525   0.21759   0.22590   0.23689

 Mulliken charges:
               1
     1  C   -0.168933
     2  C   -0.021756
     3  C   -0.021692
     4  C   -0.182797
     5  H    0.086617
     6  H    0.052904
     7  H    0.051900
     8  H    0.050362
     9  H    0.069354
    10  H    0.084041
 Sum of Mulliken charges =   0.00000

 Dipole moment (field-independent basis, Debye):
    X=             -0.0456    Y=              0.0139    Z=              0.0233  Tot=              0.0530
 Quadrupole moment (field-independent basis, Debye-Ang):
   XX=            -23.3757   YY=            -23.2802   ZZ=            -29.2694
   XY=              0.3699   XZ=             -0.2954   YZ=              0.0551

 1\1\GINC-NODE21\SP\RB2PLYPD3-FC\def2QZVP\C4H6\BOITTIER\26-Aug-2020\0\\
 #p B2PLYPD3/Def2QZVP\\butadiene\\0,1\C,0,-3.817422,0.233924,0.009004\C
 ,0,-2.709745,-0.514473,0.059133\C,0,-1.414303,0.050353,0.020493\C,0,-0
 .270707,-0.647151,0.015559\H,0,-4.838413,-0.108696,-0.102334\H,0,-3.71
 7838,1.331624,0.000705\H,0,-2.771575,-1.618328,0.096337\H,0,-1.406446,
 1.152756,0.042704\H,0,-0.201439,-1.737795,0.091432\H,0,0.66653,-0.1212
 19,-0.037796\\Version=ES64L-G09RevD.01\State=1-A\HF=-155.6965703\MP2=-
 155.9230297\RMSD=3.160e-09\PG=C01 [X(C4H6)]\\@

 Normal termination of Gaussian 09 at Wed Aug 26 09:12:31 2020.
