 Gaussian 09, Revision D.01,
 Gaussian 09:  ES64L-G09RevD.01 24-Apr-2013

 --------------------
 #p B2PLYPD3/Def2QZVP
 --------------------

 ---------
 butadiene
 ---------
 Symbolic Z-matrix:
 Charge =  0 Multiplicity = 1

                         Standard orientation:
 ---------------------------------------------------------------------
 Center     Atomic      Atomic             Coordinates (Angstroms)
 Number     Number       Type             X           Y           Z
 ---------------------------------------------------------------------
      1          6           0        1.867604   -0.052387    0.072451
      2          6           0        0.591329    0.337560   -0.095720
      3          6           0       -0.611085   -0.458039   -0.055654
      4          6           0       -1.862594    0.139241    0.034970
      5          1           0        2.768639    0.517297    0.102191
      6          1           0        2.093032   -1.070683   -0.022268
      7          1           0        0.438888    1.405322   -0.109453
      8          1           0       -0.507236   -1.473471    0.082342
      9          1           0       -1.975516    1.270412    0.190514
     10          1           0       -2.729333   -0.447130    0.020388
 ---------------------------------------------------------------------

 SCF Done:  E(RB2PLYPD3) =  -155.681531917     A.U. after   12 cycles
 E2(B2PLYPD3) =    -0.2273593124D+00 E(B2PLYPD3) =    -0.15590889122926D+03

 The electronic state is 1-A.
 Alpha  occ. eigenvalues --  -10.63082 -10.62968 -10.62557 -10.61074  -0.92735
 Alpha  occ. eigenvalues --   -0.84354  -0.71165  -0.64900  -0.55397  -0.53279
 Alpha  occ. eigenvalues --   -0.47017  -0.45679  -0.41408  -0.37549  -0.27023
 Alpha virt. eigenvalues --    0.00495   0.06980   0.07530   0.08252   0.09197
 Alpha virt. eigenvalues --    0.11553   0.12690   0.14431   0.15770   0.16432
 Alpha virt. eigenvalues --    0.19206   0.20084   0.21671   0.23109   0.23291

 Mulliken charges:
               1
     1  C   -0.171433
     2  C   -0.019520
     3  C   -0.056634
     4  C   -0.174284
     5  H    0.080948
     6  H    0.054607
     7  H    0.052599
     8  H    0.072796
     9  H    0.069566
    10  H    0.091357
 Sum of Mulliken charges =   0.00000

 Dipole moment (field-independent basis, Debye):
    X=             -0.0479    Y=             -0.0692    Z=              0.1412  Tot=              0.1644
 Quadrupole moment (field-independent basis, Debye-Ang):
   XX=            -22.9439   YY=            -23.4432   ZZ=            -29.3258
   XY=             -0.0997   XZ=             -0.2758   YZ=              0.1364

 1\1\GINC-NODE31\SP\RB2PLYPD3-FC\def2QZVP\C4H6\BOITTIER\26-Aug-2020\0\\
 #p B2PLYPD3/Def2QZVP\\butadiene\\0,1\C,0,-3.881535,0.177872,0.0916\C,0
 ,-2.698521,-0.446002,-0.051505\C,0,-1.371091,0.118163,-0.04613\C,0,-0.
 248924,-0.691894,0.079482\H,0,-4.871127,-0.215883,0.145938\H,0,-3.9181
 19,1.214187,-0.054788\H,0,-2.743251,-1.522999,-0.011271\H,0,-1.287502,
 1.141114,0.040561\H,0,-0.343226,-1.815518,0.291778\H,0,0.710062,-0.274
 747,0.039304\\Version=ES64L-G09RevD.01\State=1-A\HF=-155.6815319\MP2=-
 155.9088912\RMSD=4.177e-09\PG=C01 [X(C4H6)]\\@

 Normal termination of Gaussian 09 at Wed Aug 26 12:40:46 2020.
