 Gaussian 09, Revision D.01,
 Gaussian 09:  ES64L-G09RevD.01 24-Apr-2013

 --------------------
 #p B2PLYPD3/Def2QZVP
 --------------------

 ---------
 butadiene
 ---------
 Symbolic Z-matrix:
 Charge =  0 Multiplicity = 1

                         Standard orientation:
 ---------------------------------------------------------------------
 Center     Atomic      Atomic             Coordinates (Angstroms)
 Number     Number       Type             X           Y           Z
 ---------------------------------------------------------------------
      1          6           0        1.824198   -0.124657    0.022359
      2          6           0        0.618054    0.429203   -0.034726
      3          6           0       -0.600508   -0.411342   -0.041137
      4          6           0       -1.842324    0.103880    0.048600
      5          1           0        2.692533    0.489364    0.015147
      6          1           0        1.938902   -1.206568    0.104483
      7          1           0        0.502396    1.547003   -0.064429
      8          1           0       -0.389559   -1.467509   -0.032128
      9          1           0       -1.983400    1.186735    0.086649
     10          1           0       -2.757391   -0.531532   -0.080293
 ---------------------------------------------------------------------

 SCF Done:  E(RB2PLYPD3) =  -155.695614692     A.U. after   11 cycles
 E2(B2PLYPD3) =    -0.2264145580D+00 E(B2PLYPD3) =    -0.15592202924966D+03

 The electronic state is 1-A.
 Alpha  occ. eigenvalues --  -10.62971 -10.62891 -10.62179 -10.61309  -0.92641
 Alpha  occ. eigenvalues --   -0.84660  -0.69475  -0.63840  -0.54264  -0.53413
 Alpha  occ. eigenvalues --   -0.46625  -0.45511  -0.40945  -0.37738  -0.27747
 Alpha virt. eigenvalues --    0.01865   0.07015   0.07211   0.08040   0.09179
 Alpha virt. eigenvalues --    0.11729   0.12378   0.14537   0.15696   0.16080
 Alpha virt. eigenvalues --    0.18795   0.20111   0.21502   0.23038   0.23786

 Mulliken charges:
               1
     1  C   -0.177258
     2  C   -0.026462
     3  C   -0.039415
     4  C   -0.170858
     5  H    0.087794
     6  H    0.064730
     7  H    0.051629
     8  H    0.061191
     9  H    0.066060
    10  H    0.082588
 Sum of Mulliken charges =   0.00000

 Dipole moment (field-independent basis, Debye):
    X=              0.0884    Y=              0.0131    Z=             -0.0246  Tot=              0.0927
 Quadrupole moment (field-independent basis, Debye-Ang):
   XX=            -23.7829   YY=            -22.9954   ZZ=            -29.3956
   XY=             -0.2004   XZ=              0.3133   YZ=              0.0000

 1\1\GINC-NODE06\SP\RB2PLYPD3-FC\def2QZVP\C4H6\BOITTIER\26-Aug-2020\0\\
 #p B2PLYPD3/Def2QZVP\\butadiene\\0,1\C,0,-3.824234,0.235163,0.045189\C
 ,0,-2.737349,-0.527424,0.00108\C,0,-1.387785,0.080324,-0.026657\C,0,-0
 .258148,-0.647131,0.075043\H,0,-4.78868,-0.213004,0.053548\H,0,-3.7425
 3,1.321749,0.100753\H,0,-2.824295,-1.648214,-0.001196\H,0,-1.405744,1.
 157108,-0.043501\H,0,-0.313483,-1.736485,0.139625\H,0,0.755436,-0.1895
 94,-0.069931\\Version=ES64L-G09RevD.01\State=1-A\HF=-155.6956147\MP2=-
 155.9220292\RMSD=6.339e-09\PG=C01 [X(C4H6)]\\@

 Normal termination of Gaussian 09 at Wed Aug 26 10:33:59 2020.
