 Gaussian 09, Revision D.01,
 Gaussian 09:  ES64L-G09RevD.01 24-Apr-2013

 --------------------
 #p B2PLYPD3/Def2QZVP
 --------------------

 ---------
 butadiene
 ---------
 Symbolic Z-matrix:
 Charge =  0 Multiplicity = 1

                         Standard orientation:
 ---------------------------------------------------------------------
 Center     Atomic      Atomic             Coordinates (Angstroms)
 Number     Number       Type             X           Y           Z
 ---------------------------------------------------------------------
      1          6           0       -1.843845    0.113871   -0.011167
      2          6           0       -0.607085   -0.401055    0.009170
      3          6           0        0.602693    0.385912    0.010565
      4          6           0        1.844094   -0.104856   -0.016352
      5          1           0       -2.731594   -0.529877   -0.015641
      6          1           0       -2.008119    1.178180    0.009405
      7          1           0       -0.452088   -1.477636   -0.005793
      8          1           0        0.477184    1.481002    0.041580
      9          1           0        2.040178   -1.163919    0.060702
     10          1           0        2.699299    0.549017   -0.043552
 ---------------------------------------------------------------------

 SCF Done:  E(RB2PLYPD3) =  -155.700464689     A.U. after   11 cycles
 E2(B2PLYPD3) =    -0.2259216055D+00 E(B2PLYPD3) =    -0.15592638629461D+03

 The electronic state is 1-A.
 Alpha  occ. eigenvalues --  -10.62629 -10.62563 -10.61799 -10.61448  -0.93031
 Alpha  occ. eigenvalues --   -0.84856  -0.70367  -0.63872  -0.54533  -0.53942
 Alpha  occ. eigenvalues --   -0.46735  -0.45630  -0.41036  -0.38168  -0.27616
 Alpha virt. eigenvalues --    0.01533   0.06981   0.07400   0.08015   0.09709
 Alpha virt. eigenvalues --    0.11673   0.12392   0.14781   0.15815   0.16130
 Alpha virt. eigenvalues --    0.18797   0.20505   0.21636   0.22740   0.23738

 Mulliken charges:
               1
     1  C   -0.174704
     2  C   -0.031690
     3  C   -0.023161
     4  C   -0.178749
     5  H    0.085680
     6  H    0.068554
     7  H    0.053958
     8  H    0.048384
     9  H    0.065502
    10  H    0.086227
 Sum of Mulliken charges =   0.00000

 Dipole moment (field-independent basis, Debye):
    X=             -0.0025    Y=              0.0003    Z=              0.0616  Tot=              0.0616
 Quadrupole moment (field-independent basis, Debye-Ang):
   XX=            -23.4093   YY=            -23.1629   ZZ=            -29.2929
   XY=             -0.1866   XZ=              0.0508   YZ=             -0.0263

 1\1\GINC-NODE30\SP\RB2PLYPD3-FC\def2QZVP\C4H6\BOITTIER\26-Aug-2020\0\\
 #p B2PLYPD3/Def2QZVP\\butadiene\\0,1\C,0,-3.844383,0.230418,0.006809\C
 ,0,-2.721004,-0.498731,0.045539\C,0,-1.388912,0.056273,0.02596\C,0,-0.
 256754,-0.651389,0.016738\H,0,-4.833874,-0.242095,0.019729\H,0,-3.8135
 15,1.307018,-0.005146\H,0,-2.763196,-1.585549,0.06345\H,0,-1.314322,1.
 15644,0.023602\H,0,-0.255076,-1.725642,0.12619\H,0,0.702459,-0.163994,
 -0.028222\\Version=ES64L-G09RevD.01\State=1-A\HF=-155.7004647\MP2=-155
 .9263863\RMSD=4.219e-09\PG=C01 [X(C4H6)]\\@

 Normal termination of Gaussian 09 at Wed Aug 26 19:34:31 2020.
