 Gaussian 09, Revision D.01,
 Gaussian 09:  ES64L-G09RevD.01 24-Apr-2013

 --------------------
 #p B2PLYPD3/Def2QZVP
 --------------------

 ---------
 butadiene
 ---------
 Symbolic Z-matrix:
 Charge =  0 Multiplicity = 1

                         Standard orientation:
 ---------------------------------------------------------------------
 Center     Atomic      Atomic             Coordinates (Angstroms)
 Number     Number       Type             X           Y           Z
 ---------------------------------------------------------------------
      1          6           0        1.863537    0.098636    0.044866
      2          6           0        0.616243   -0.399440   -0.064584
      3          6           0       -0.596360    0.464843   -0.035946
      4          6           0       -1.844452   -0.136045    0.023690
      5          1           0        2.657036   -0.609893    0.019559
      6          1           0        2.008889    1.148481    0.100054
      7          1           0        0.316116   -1.453229   -0.137913
      8          1           0       -0.577643    1.537363    0.004017
      9          1           0       -1.923274   -1.205248    0.281991
     10          1           0       -2.714935    0.414560   -0.075870
 ---------------------------------------------------------------------

 SCF Done:  E(RB2PLYPD3) =  -155.686142667     A.U. after   11 cycles
 E2(B2PLYPD3) =    -0.2274000627D+00 E(B2PLYPD3) =    -0.15591354272961D+03

 The electronic state is 1-A.
 Alpha  occ. eigenvalues --  -10.63273 -10.63220 -10.61796 -10.61393  -0.92096
 Alpha  occ. eigenvalues --   -0.84337  -0.70129  -0.64322  -0.54198  -0.54101
 Alpha  occ. eigenvalues --   -0.46908  -0.45545  -0.41838  -0.36972  -0.27058
 Alpha virt. eigenvalues --    0.01193   0.07085   0.07386   0.08115   0.08785
 Alpha virt. eigenvalues --    0.11742   0.12313   0.14553   0.15590   0.16438
 Alpha virt. eigenvalues --    0.18780   0.20026   0.21427   0.22820   0.23733

 Mulliken charges:
               1
     1  C   -0.182357
     2  C   -0.032560
     3  C   -0.043523
     4  C   -0.189979
     5  H    0.091055
     6  H    0.081547
     7  H    0.060258
     8  H    0.062786
     9  H    0.064163
    10  H    0.088611
 Sum of Mulliken charges =   0.00000

 Dipole moment (field-independent basis, Debye):
    X=             -0.0398    Y=              0.0617    Z=              0.1173  Tot=              0.1384
 Quadrupole moment (field-independent basis, Debye-Ang):
   XX=            -23.9073   YY=            -22.9070   ZZ=            -29.4189
   XY=              0.1155   XZ=             -0.0659   YZ=             -0.1064

 1\1\GINC-NODE06\SP\RB2PLYPD3-FC\def2QZVP\C4H6\BOITTIER\26-Aug-2020\0\\
 #p B2PLYPD3/Def2QZVP\\butadiene\\0,1\C,0,-3.863476,0.214524,-0.026632\
 C,0,-2.726332,-0.498392,0.093599\C,0,-1.377688,0.132019,0.049413\C,0,-
 0.258755,-0.685386,0.002577\H,0,-4.771792,-0.338463,0.011611\H,0,-3.81
 703,1.272104,-0.10223\H,0,-2.621212,-1.58745,0.187558\H,0,-1.202556,1.
 189323,-0.011282\H,0,-0.374934,-1.756,-0.234943\H,0,0.697086,-0.299205
 ,0.092303\\Version=ES64L-G09RevD.01\State=1-A\HF=-155.6861427\MP2=-155
 .9135427\RMSD=8.162e-09\PG=C01 [X(C4H6)]\\@

 Normal termination of Gaussian 09 at Wed Aug 26 13:15:09 2020.
