 Gaussian 09, Revision D.01,
 Gaussian 09:  ES64L-G09RevD.01 24-Apr-2013

 --------------------
 #p B2PLYPD3/Def2QZVP
 --------------------

 ---------
 butadiene
 ---------
 Symbolic Z-matrix:
 Charge =  0 Multiplicity = 1

                         Standard orientation:
 ---------------------------------------------------------------------
 Center     Atomic      Atomic             Coordinates (Angstroms)
 Number     Number       Type             X           Y           Z
 ---------------------------------------------------------------------
      1          6           0       -1.828841   -0.110128   -0.017551
      2          6           0       -0.602239    0.408934    0.032143
      3          6           0        0.600955   -0.402242    0.017451
      4          6           0        1.840627    0.102496   -0.021238
      5          1           0       -2.724853    0.496889   -0.043952
      6          1           0       -1.995592   -1.184191   -0.012845
      7          1           0       -0.482194    1.493695   -0.014775
      8          1           0        0.429010   -1.457091    0.028184
      9          1           0        1.978757    1.154188    0.014408
     10          1           0        2.731861   -0.497853   -0.035849
 ---------------------------------------------------------------------

 SCF Done:  E(RB2PLYPD3) =  -155.700718032     A.U. after   11 cycles
 E2(B2PLYPD3) =    -0.2255732074D+00 E(B2PLYPD3) =    -0.15592629123972D+03

 The electronic state is 1-A.
 Alpha  occ. eigenvalues --  -10.62547 -10.62401 -10.61545 -10.61254  -0.93094
 Alpha  occ. eigenvalues --   -0.84881  -0.70330  -0.64364  -0.54848  -0.53890
 Alpha  occ. eigenvalues --   -0.46911  -0.45591  -0.41229  -0.38170  -0.27633
 Alpha virt. eigenvalues --    0.01725   0.07036   0.07443   0.08132   0.09527
 Alpha virt. eigenvalues --    0.11683   0.12604   0.14684   0.15818   0.16269
 Alpha virt. eigenvalues --    0.18799   0.20389   0.21896   0.23097   0.23672

 Mulliken charges:
               1
     1  C   -0.174200
     2  C   -0.027544
     3  C   -0.031355
     4  C   -0.176211
     5  H    0.084083
     6  H    0.061963
     7  H    0.054315
     8  H    0.057099
     9  H    0.065300
    10  H    0.086549
 Sum of Mulliken charges =   0.00000

 Dipole moment (field-independent basis, Debye):
    X=             -0.0247    Y=             -0.0025    Z=             -0.0221  Tot=              0.0332
 Quadrupole moment (field-independent basis, Debye-Ang):
   XX=            -23.3100   YY=            -23.1821   ZZ=            -29.2331
   XY=              0.1987   XZ=              0.1127   YZ=             -0.0312

 1\1\GINC-NODE22\SP\RB2PLYPD3-FC\def2QZVP\C4H6\BOITTIER\26-Aug-2020\0\\
 #p B2PLYPD3/Def2QZVP\\butadiene\\0,1\C,0,-3.831536,0.226203,0.038175\C
 ,0,-2.719913,-0.508455,0.006277\C,0,-1.389304,0.070579,-0.003616\C,0,-
 0.261803,-0.649595,0.052382\H,0,-4.822789,-0.206713,0.082959\H,0,-3.80
 0382,1.311995,-0.000874\H,0,-2.798737,-1.594944,0.08781\H,0,-1.366777,
 1.138241,-0.048083\H,0,-0.31723,-1.709467,0.050358\H,0,0.723735,-0.221
 072,0.048796\\Version=ES64L-G09RevD.01\State=1-A\HF=-155.700718\MP2=-1
 55.9262912\RMSD=4.358e-09\PG=C01 [X(C4H6)]\\@

 Normal termination of Gaussian 09 at Wed Aug 26 19:59:56 2020.
