 Gaussian 09, Revision D.01,
 Gaussian 09:  ES64L-G09RevD.01 24-Apr-2013

 --------------------
 #p B2PLYPD3/Def2QZVP
 --------------------

 ---------
 butadiene
 ---------
 Symbolic Z-matrix:
 Charge =  0 Multiplicity = 1

                         Standard orientation:
 ---------------------------------------------------------------------
 Center     Atomic      Atomic             Coordinates (Angstroms)
 Number     Number       Type             X           Y           Z
 ---------------------------------------------------------------------
      1          6           0       -1.839709    0.085277   -0.001786
      2          6           0       -0.569950   -0.374284   -0.006704
      3          6           0        0.599282    0.458362   -0.016726
      4          6           0        1.819683   -0.124983    0.018155
      5          1           0       -2.731257   -0.589406   -0.010316
      6          1           0       -2.107222    1.099248    0.259251
      7          1           0       -0.357322   -1.449487   -0.121742
      8          1           0        0.503333    1.539039   -0.254485
      9          1           0        1.802413   -1.206755    0.057022
     10          1           0        2.834217    0.341132    0.112631
 ---------------------------------------------------------------------

 SCF Done:  E(RB2PLYPD3) =  -155.687581989     A.U. after   11 cycles
 E2(B2PLYPD3) =    -0.2277505110D+00 E(B2PLYPD3) =    -0.15591533250042D+03

 The electronic state is 1-A.
 Alpha  occ. eigenvalues --  -10.63157 -10.63049 -10.62392 -10.61995  -0.93183
 Alpha  occ. eigenvalues --   -0.84163  -0.69912  -0.64013  -0.54563  -0.53071
 Alpha  occ. eigenvalues --   -0.46492  -0.44746  -0.41515  -0.37788  -0.27257
 Alpha virt. eigenvalues --    0.01110   0.07052   0.07351   0.07741   0.08942
 Alpha virt. eigenvalues --    0.11524   0.12748   0.14442   0.15368   0.16370
 Alpha virt. eigenvalues --    0.18630   0.19853   0.21965   0.22308   0.23831

 Mulliken charges:
               1
     1  C   -0.180029
     2  C   -0.031730
     3  C   -0.031290
     4  C   -0.168700
     5  H    0.073613
     6  H    0.071565
     7  H    0.057271
     8  H    0.069833
     9  H    0.052983
    10  H    0.086484
 Sum of Mulliken charges =   0.00000

 Dipole moment (field-independent basis, Debye):
    X=              0.1345    Y=             -0.0031    Z=              0.0379  Tot=              0.1397
 Quadrupole moment (field-independent basis, Debye-Ang):
   XX=            -23.3374   YY=            -23.5348   ZZ=            -29.3013
   XY=             -0.2396   XZ=             -0.1828   YZ=              0.1225

 1\1\GINC-NODE31\SP\RB2PLYPD3-FC\def2QZVP\C4H6\BOITTIER\26-Aug-2020\0\\
 #p B2PLYPD3/Def2QZVP\\butadiene\\0,1\C,0,-3.846911,0.202804,0.02061\C,
 0,-2.68326,-0.482276,0.029993\C,0,-1.381029,0.120509,-0.00673\C,0,-0.2
 88397,-0.675871,0.046374\H,0,-4.847279,-0.296415,0.033711\H,0,-3.92198
 ,1.256307,0.249382\H,0,-2.672505,-1.581297,-0.050897\H,0,-1.278226,1.1
 92463,-0.27866\H,0,-0.503896,-1.734285,0.119572\H,0,0.795061,-0.401492
 ,0.125769\\Version=ES64L-G09RevD.01\State=1-A\HF=-155.687582\MP2=-155.
 9153325\RMSD=4.953e-09\PG=C01 [X(C4H6)]\\@

 Normal termination of Gaussian 09 at Wed Aug 26 15:38:16 2020.
