 Gaussian 09, Revision D.01,
 Gaussian 09:  ES64L-G09RevD.01 24-Apr-2013

 --------------------
 #p B2PLYPD3/Def2QZVP
 --------------------

 ---------
 butadiene
 ---------
 Symbolic Z-matrix:
 Charge =  0 Multiplicity = 1

                         Standard orientation:
 ---------------------------------------------------------------------
 Center     Atomic      Atomic             Coordinates (Angstroms)
 Number     Number       Type             X           Y           Z
 ---------------------------------------------------------------------
      1          6           0       -1.840179    0.088501    0.000189
      2          6           0       -0.594118   -0.383979   -0.022334
      3          6           0        0.629567    0.429157   -0.085447
      4          6           0        1.802146   -0.144387    0.040564
      5          1           0       -2.786830   -0.500537    0.251885
      6          1           0       -1.996597    1.188052    0.079239
      7          1           0       -0.438033   -1.426310   -0.135147
      8          1           0        0.603640    1.569805   -0.024438
      9          1           0        1.881374   -1.221466    0.014152
     10          1           0        2.751952    0.454704    0.216472
 ---------------------------------------------------------------------

 SCF Done:  E(RB2PLYPD3) =  -155.685543498     A.U. after   11 cycles
 E2(B2PLYPD3) =    -0.2266292661D+00 E(B2PLYPD3) =    -0.15591217276374D+03

 The electronic state is 1-A.
 Alpha  occ. eigenvalues --  -10.63004 -10.62697 -10.62253 -10.61858  -0.93183
 Alpha  occ. eigenvalues --   -0.84987  -0.68895  -0.63816  -0.54012  -0.53538
 Alpha  occ. eigenvalues --   -0.46553  -0.44272  -0.40807  -0.38067  -0.28069
 Alpha virt. eigenvalues --    0.02012   0.06923   0.07279   0.07718   0.09120
 Alpha virt. eigenvalues --    0.11574   0.12535   0.14185   0.15299   0.16480
 Alpha virt. eigenvalues --    0.18785   0.19347   0.22044   0.22804   0.23605

 Mulliken charges:
               1
     1  C   -0.162999
     2  C   -0.040572
     3  C   -0.026269
     4  C   -0.164015
     5  H    0.077263
     6  H    0.053919
     7  H    0.065812
     8  H    0.053829
     9  H    0.064024
    10  H    0.079008
 Sum of Mulliken charges =   0.00000

 Dipole moment (field-independent basis, Debye):
    X=              0.1658    Y=             -0.0301    Z=              0.2854  Tot=              0.3315
 Quadrupole moment (field-independent basis, Debye-Ang):
   XX=            -23.7257   YY=            -23.3052   ZZ=            -29.2251
   XY=              0.0167   XZ=             -0.1766   YZ=              0.2202

 1\1\GINC-NODE15\SP\RB2PLYPD3-FC\def2QZVP\C4H6\BOITTIER\26-Aug-2020\0\\
 #p B2PLYPD3/Def2QZVP\\butadiene\\0,1\C,0,-3.849027,0.191742,0.032144\C
 ,0,-2.703482,-0.489369,0.017089\C,0,-1.357912,0.098747,-0.061256\C,0,-
 0.301653,-0.666619,0.074039\H,0,-4.882291,-0.220321,0.294885\H,0,-3.81
 2737,1.302978,0.091858\H,0,-2.730337,-1.544782,-0.077394\H,0,-1.18606,
 1.227583,-0.020399\H,0,-0.409889,-1.74147,0.066612\H,0,0.738063,-0.237
 81,0.238655\\Version=ES64L-G09RevD.01\State=1-A\HF=-155.6855435\MP2=-1
 55.9121728\RMSD=5.648e-09\PG=C01 [X(C4H6)]\\@

 Normal termination of Gaussian 09 at Wed Aug 26 13:23:46 2020.
