 Gaussian 09, Revision D.01,
 Gaussian 09:  ES64L-G09RevD.01 24-Apr-2013

 --------------------
 #p B2PLYPD3/Def2QZVP
 --------------------

 ---------
 butadiene
 ---------
 Symbolic Z-matrix:
 Charge =  0 Multiplicity = 1

                         Standard orientation:
 ---------------------------------------------------------------------
 Center     Atomic      Atomic             Coordinates (Angstroms)
 Number     Number       Type             X           Y           Z
 ---------------------------------------------------------------------
      1          6           0        1.827793   -0.115437    0.023134
      2          6           0        0.598417    0.425651   -0.029110
      3          6           0       -0.595583   -0.375439   -0.029343
      4          6           0       -1.846718    0.089943    0.002912
      5          1           0        2.734563    0.473226    0.097709
      6          1           0        1.987061   -1.237450   -0.008247
      7          1           0        0.459597    1.505204   -0.002880
      8          1           0       -0.400624   -1.413212   -0.079315
      9          1           0       -2.043057    1.142567   -0.014597
     10          1           0       -2.640990   -0.618643    0.201767
 ---------------------------------------------------------------------

 SCF Done:  E(RB2PLYPD3) =  -155.696001783     A.U. after   11 cycles
 E2(B2PLYPD3) =    -0.2262011876D+00 E(B2PLYPD3) =    -0.15592220297100D+03

 The electronic state is 1-A.
 Alpha  occ. eigenvalues --  -10.62636 -10.62340 -10.61978 -10.61325  -0.93249
 Alpha  occ. eigenvalues --   -0.84686  -0.70292  -0.64248  -0.54550  -0.53723
 Alpha  occ. eigenvalues --   -0.46672  -0.45634  -0.41335  -0.38077  -0.27458
 Alpha virt. eigenvalues --    0.01450   0.06977   0.07343   0.08129   0.09578
 Alpha virt. eigenvalues --    0.11731   0.12352   0.14736   0.15598   0.16192
 Alpha virt. eigenvalues --    0.18751   0.20039   0.21763   0.22867   0.23932

 Mulliken charges:
               1
     1  C   -0.172161
     2  C   -0.034670
     3  C   -0.020779
     4  C   -0.183791
     5  H    0.085911
     6  H    0.058440
     7  H    0.053873
     8  H    0.058145
     9  H    0.069052
    10  H    0.085980
 Sum of Mulliken charges =   0.00000

 Dipole moment (field-independent basis, Debye):
    X=              0.0905    Y=              0.0142    Z=              0.1401  Tot=              0.1674
 Quadrupole moment (field-independent basis, Debye-Ang):
   XX=            -23.7328   YY=            -23.1009   ZZ=            -29.2428
   XY=             -0.2483   XZ=             -0.2545   YZ=             -0.0204

 1\1\GINC-NODE32\SP\RB2PLYPD3-FC\def2QZVP\C4H6\BOITTIER\26-Aug-2020\0\\
 #p B2PLYPD3/Def2QZVP\\butadiene\\0,1\C,0,-3.827853,0.240898,0.041303\C
 ,0,-2.720386,-0.520229,0.008548\C,0,-1.398409,0.044972,-0.008891\C,0,-
 0.255398,-0.643512,0.040843\H,0,-4.828059,-0.166929,0.12838\H,0,-3.776
 065,1.371682,-0.021226\H,0,-2.78439,-1.605653,0.064692\H,0,-1.397355,1
 .099128,-0.087848\H,0,-0.257938,-1.714365,0.052754\H,0,0.656879,-0.089
 499,0.223395\\Version=ES64L-G09RevD.01\State=1-A\HF=-155.6960018\MP2=-
 155.922203\RMSD=3.529e-09\PG=C01 [X(C4H6)]\\@

 Normal termination of Gaussian 09 at Wed Aug 26 10:51:09 2020.
