 Gaussian 09, Revision D.01,
 Gaussian 09:  ES64L-G09RevD.01 24-Apr-2013

 --------------------
 #p B2PLYPD3/Def2QZVP
 --------------------

 ---------
 butadiene
 ---------
 Symbolic Z-matrix:
 Charge =  0 Multiplicity = 1

                         Standard orientation:
 ---------------------------------------------------------------------
 Center     Atomic      Atomic             Coordinates (Angstroms)
 Number     Number       Type             X           Y           Z
 ---------------------------------------------------------------------
      1          6           0       -1.821886   -0.150651    0.054629
      2          6           0       -0.597591    0.447430   -0.083956
      3          6           0        0.612814   -0.343269   -0.050310
      4          6           0        1.822925    0.069732    0.075874
      5          1           0       -2.792948    0.410660   -0.022404
      6          1           0       -1.824927   -1.282862    0.172409
      7          1           0       -0.449389    1.590547   -0.038274
      8          1           0        0.395480   -1.395357   -0.112226
      9          1           0        1.887383    1.144497    0.164471
     10          1           0        2.686824   -0.606940   -0.141405
 ---------------------------------------------------------------------

 SCF Done:  E(RB2PLYPD3) =  -155.679743155     A.U. after   12 cycles
 E2(B2PLYPD3) =    -0.2272891214D+00 E(B2PLYPD3) =    -0.15590703227673D+03

 The electronic state is 1-A.
 Alpha  occ. eigenvalues --  -10.63784 -10.63417 -10.61368 -10.60911  -0.93551
 Alpha  occ. eigenvalues --   -0.84836  -0.69283  -0.63380  -0.54102  -0.53111
 Alpha  occ. eigenvalues --   -0.46700  -0.44781  -0.40723  -0.38061  -0.27874
 Alpha virt. eigenvalues --    0.01406   0.06924   0.07077   0.07878   0.09725
 Alpha virt. eigenvalues --    0.11780   0.12336   0.14401   0.15424   0.15867
 Alpha virt. eigenvalues --    0.18742   0.20074   0.20626   0.22281   0.24142

 Mulliken charges:
               1
     1  C   -0.168598
     2  C   -0.049121
     3  C    0.008091
     4  C   -0.178040
     5  H    0.091613
     6  H    0.061922
     7  H    0.044041
     8  H    0.043334
     9  H    0.054945
    10  H    0.091813
 Sum of Mulliken charges =   0.00000

 Dipole moment (field-independent basis, Debye):
    X=             -0.1071    Y=             -0.0289    Z=             -0.0775  Tot=              0.1353
 Quadrupole moment (field-independent basis, Debye-Ang):
   XX=            -23.8858   YY=            -23.3583   ZZ=            -29.3034
   XY=             -0.1721   XZ=             -0.4592   YZ=              0.1446

 1\1\GINC-NODE19\SP\RB2PLYPD3-FC\def2QZVP\C4H6\BOITTIER\26-Aug-2020\0\\
 #p B2PLYPD3/Def2QZVP\\butadiene\\0,1\C,0,-3.819623,0.256225,-0.043217\
 C,0,-2.720717,-0.544689,0.120334\C,0,-1.389276,0.01734,0.067364\C,0,-0
 .27173,-0.607553,-0.03969\H,0,-4.874788,-0.121214,0.046963\H,0,-3.6218
 75,1.366633,-0.197076\H,0,-2.777683,-1.696839,0.111871\H,0,-1.416479,1
 .092734,0.094622\H,0,-0.399024,-1.679005,-0.093634\H,0,0.698693,-0.088
 143,0.160087\\Version=ES64L-G09RevD.01\State=1-A\HF=-155.6797432\MP2=-
 155.9070323\RMSD=4.495e-09\PG=C01 [X(C4H6)]\\@

 Normal termination of Gaussian 09 at Wed Aug 26 11:28:14 2020.
