 Gaussian 09, Revision D.01,
 Gaussian 09:  ES64L-G09RevD.01 24-Apr-2013

 --------------------
 #p B2PLYPD3/Def2QZVP
 --------------------

 ---------
 butadiene
 ---------
 Symbolic Z-matrix:
 Charge =  0 Multiplicity = 1

                         Standard orientation:
 ---------------------------------------------------------------------
 Center     Atomic      Atomic             Coordinates (Angstroms)
 Number     Number       Type             X           Y           Z
 ---------------------------------------------------------------------
      1          6           0       -1.858443   -0.100413    0.057234
      2          6           0       -0.622939    0.406146   -0.041673
      3          6           0        0.626843   -0.367550   -0.128274
      4          6           0        1.879753    0.077072    0.104912
      5          1           0       -2.867150    0.374370    0.200633
      6          1           0       -1.995801   -1.164384    0.001855
      7          1           0       -0.486222    1.549216   -0.167577
      8          1           0        0.368541   -1.419692   -0.098513
      9          1           0        2.171399    1.181431   -0.045120
     10          1           0        2.657947   -0.612468    0.155524
 ---------------------------------------------------------------------

 SCF Done:  E(RB2PLYPD3) =  -155.678345297     A.U. after   12 cycles
 E2(B2PLYPD3) =    -0.2277039626D+00 E(B2PLYPD3) =    -0.15590604926001D+03

 The electronic state is 1-A.
 Alpha  occ. eigenvalues --  -10.63830 -10.63305 -10.62467 -10.62317  -0.92464
 Alpha  occ. eigenvalues --   -0.84729  -0.70604  -0.63156  -0.55213  -0.52189
 Alpha  occ. eigenvalues --   -0.47831  -0.44689  -0.40125  -0.37271  -0.27909
 Alpha virt. eigenvalues --    0.01048   0.06983   0.07172   0.07926   0.09211
 Alpha virt. eigenvalues --    0.11241   0.12466   0.14343   0.15589   0.16658
 Alpha virt. eigenvalues --    0.19023   0.19286   0.21436   0.22770   0.23789

 Mulliken charges:
               1
     1  C   -0.166211
     2  C   -0.017586
     3  C   -0.047123
     4  C   -0.160213
     5  H    0.086368
     6  H    0.050513
     7  H    0.044450
     8  H    0.053781
     9  H    0.068435
    10  H    0.087587
 Sum of Mulliken charges =   0.00000

 Dipole moment (field-independent basis, Debye):
    X=             -0.0496    Y=             -0.1208    Z=             -0.0675  Tot=              0.1470
 Quadrupole moment (field-independent basis, Debye-Ang):
   XX=            -22.7064   YY=            -23.8011   ZZ=            -29.3848
   XY=              0.4826   XZ=             -0.2017   YZ=             -0.2248

 1\1\GINC-NODE24\SP\RB2PLYPD3-FC\def2QZVP\C4H6\BOITTIER\26-Aug-2020\0\\
 #p B2PLYPD3/Def2QZVP\\butadiene\\0,1\C,0,-3.864014,0.221836,-0.046957\
 C,0,-2.741402,-0.495507,0.087273\C,0,-1.370632,0.04016,0.133227\C,0,-0
 .221763,-0.639248,-0.06765\H,0,-4.943474,-0.067978,-0.166311\H,0,-3.80
 405,1.294356,-0.055482\H,0,-2.815274,-1.6348,0.281455\H,0,-1.432293,1.
 118164,0.039887\H,0,-0.136083,-1.767477,0.148996\H,0,0.66909,-0.107989
 ,-0.155728\\Version=ES64L-G09RevD.01\State=1-A\HF=-155.6783453\MP2=-15
 5.9060493\RMSD=2.600e-09\PG=C01 [X(C4H6)]\\@

 Normal termination of Gaussian 09 at Wed Aug 26 14:58:16 2020.
