 Gaussian 09, Revision D.01,
 Gaussian 09:  ES64L-G09RevD.01 24-Apr-2013

 --------------------
 #p B2PLYPD3/Def2QZVP
 --------------------

 ---------
 butadiene
 ---------
 Symbolic Z-matrix:
 Charge =  0 Multiplicity = 1

                         Standard orientation:
 ---------------------------------------------------------------------
 Center     Atomic      Atomic             Coordinates (Angstroms)
 Number     Number       Type             X           Y           Z
 ---------------------------------------------------------------------
      1          6           0        1.861333   -0.105149   -0.010837
      2          6           0        0.603422    0.416180    0.023363
      3          6           0       -0.615750   -0.401151    0.031489
      4          6           0       -1.854773    0.108579   -0.043038
      5          1           0        2.772756    0.427075   -0.103118
      6          1           0        2.010268   -1.179164   -0.098881
      7          1           0        0.510798    1.528957    0.157071
      8          1           0       -0.462535   -1.456623    0.106686
      9          1           0       -2.106637    1.124388   -0.092994
     10          1           0       -2.690039   -0.555383    0.025379
 ---------------------------------------------------------------------

 SCF Done:  E(RB2PLYPD3) =  -155.694496598     A.U. after   11 cycles
 E2(B2PLYPD3) =    -0.2263689735D+00 E(B2PLYPD3) =    -0.15592086557109D+03

 The electronic state is 1-A.
 Alpha  occ. eigenvalues --  -10.63558 -10.62857 -10.61757 -10.61225  -0.92422
 Alpha  occ. eigenvalues --   -0.84623  -0.70725  -0.64196  -0.54812  -0.53794
 Alpha  occ. eigenvalues --   -0.47206  -0.45313  -0.41214  -0.37534  -0.27515
 Alpha virt. eigenvalues --    0.01328   0.07045   0.07478   0.08010   0.09272
 Alpha virt. eigenvalues --    0.11489   0.12623   0.14687   0.15775   0.16456
 Alpha virt. eigenvalues --    0.18958   0.20007   0.22267   0.22806   0.23216

 Mulliken charges:
               1
     1  C   -0.170962
     2  C   -0.035896
     3  C   -0.039742
     4  C   -0.170485
     5  H    0.086046
     6  H    0.053986
     7  H    0.057990
     8  H    0.065353
     9  H    0.073998
    10  H    0.079711
 Sum of Mulliken charges =   0.00000

 Dipole moment (field-independent basis, Debye):
    X=             -0.0217    Y=             -0.0045    Z=              0.0218  Tot=              0.0311
 Quadrupole moment (field-independent basis, Debye-Ang):
   XX=            -23.0985   YY=            -23.2381   ZZ=            -29.3205
   XY=             -0.3655   XZ=             -0.3642   YZ=             -0.0062

 1\1\GINC-NODE37\SP\RB2PLYPD3-FC\def2QZVP\C4H6\BOITTIER\26-Aug-2020\0\\
 #p B2PLYPD3/Def2QZVP\\butadiene\\0,1\C,0,-3.864384,0.225626,0.002047\C
 ,0,-2.721177,-0.51259,0.060433\C,0,-1.374491,0.071101,0.045652\C,0,-0.
 247951,-0.656146,-0.005117\H,0,-4.857057,-0.136323,-0.075817\H,0,-3.81
 7164,1.305093,-0.124294\H,0,-2.830703,-1.618384,0.233504\H,0,-1.334551
 ,1.138881,0.083079\H,0,-0.183661,-1.701849,-0.018244\H,0,0.693554,-0.1
 51806,0.043921\\Version=ES64L-G09RevD.01\State=1-A\HF=-155.6944966\MP2
 =-155.9208656\RMSD=3.811e-09\PG=C01 [X(C4H6)]\\@

 Normal termination of Gaussian 09 at Wed Aug 26 08:57:06 2020.
