 Gaussian 09, Revision D.01,
 Gaussian 09:  ES64L-G09RevD.01 24-Apr-2013

 --------------------
 #p B2PLYPD3/Def2QZVP
 --------------------

 ---------
 butadiene
 ---------
 Symbolic Z-matrix:
 Charge =  0 Multiplicity = 1

                         Standard orientation:
 ---------------------------------------------------------------------
 Center     Atomic      Atomic             Coordinates (Angstroms)
 Number     Number       Type             X           Y           Z
 ---------------------------------------------------------------------
      1          6           0        1.795447   -0.122134   -0.045093
      2          6           0        0.579870    0.463070    0.047988
      3          6           0       -0.589614   -0.413823   -0.031227
      4          6           0       -1.841915    0.070348    0.002576
      5          1           0        2.809468    0.416834    0.137239
      6          1           0        2.022802   -1.222524   -0.039180
      7          1           0        0.538949    1.596950    0.000294
      8          1           0       -0.299003   -1.408645    0.074203
      9          1           0       -2.050509    1.161475   -0.151198
     10          1           0       -2.684435   -0.528849    0.133182
 ---------------------------------------------------------------------

 SCF Done:  E(RB2PLYPD3) =  -155.678323124     A.U. after   11 cycles
 E2(B2PLYPD3) =    -0.2277765752D+00 E(B2PLYPD3) =    -0.15590609969925D+03

 The electronic state is 1-A.
 Alpha  occ. eigenvalues --  -10.63630 -10.62967 -10.62552 -10.61666  -0.92912
 Alpha  occ. eigenvalues --   -0.84102  -0.69714  -0.64160  -0.55015  -0.52522
 Alpha  occ. eigenvalues --   -0.46650  -0.44510  -0.40709  -0.37797  -0.27412
 Alpha virt. eigenvalues --    0.01445   0.06982   0.07100   0.08039   0.08629
 Alpha virt. eigenvalues --    0.11530   0.12428   0.14308   0.15398   0.16680
 Alpha virt. eigenvalues --    0.18728   0.19661   0.21826   0.23082   0.23453

 Mulliken charges:
               1
     1  C   -0.161782
     2  C   -0.031101
     3  C   -0.036140
     4  C   -0.177404
     5  H    0.061789
     6  H    0.053315
     7  H    0.066545
     8  H    0.072039
     9  H    0.066485
    10  H    0.086252
 Sum of Mulliken charges =   0.00000

 Dipole moment (field-independent basis, Debye):
    X=              0.0113    Y=             -0.0479    Z=              0.1535  Tot=              0.1612
 Quadrupole moment (field-independent basis, Debye-Ang):
   XX=            -23.6184   YY=            -23.1948   ZZ=            -29.4191
   XY=             -0.6336   XZ=              0.1548   YZ=             -0.3003

 1\1\GINC-NODE39\SP\RB2PLYPD3-FC\def2QZVP\C4H6\BOITTIER\26-Aug-2020\0\\
 #p B2PLYPD3/Def2QZVP\\butadiene\\0,1\C,0,-3.797894,0.246586,-0.016935\
 C,0,-2.715779,-0.558384,0.08209\C,0,-1.400911,0.078696,-0.008245\C,0,-
 0.263674,-0.634767,0.030297\H,0,-4.895471,-0.087227,0.17244\H,0,-3.811
 457,1.37013,-0.023732\H,0,-2.891738,-1.67976,0.047638\H,0,-1.496387,1.
 111793,0.085751\H,0,-0.267201,-1.747323,-0.110851\H,0,0.677941,-0.2056
 09,0.153261\\Version=ES64L-G09RevD.01\State=1-A\HF=-155.6783231\MP2=-1
 55.9060997\RMSD=6.731e-09\PG=C01 [X(C4H6)]\\@

 Normal termination of Gaussian 09 at Wed Aug 26 15:10:42 2020.
