 Gaussian 09, Revision D.01,
 Gaussian 09:  ES64L-G09RevD.01 24-Apr-2013

 --------------------
 #p B2PLYPD3/Def2QZVP
 --------------------

 ---------
 butadiene
 ---------
 Symbolic Z-matrix:
 Charge =  0 Multiplicity = 1

                         Standard orientation:
 ---------------------------------------------------------------------
 Center     Atomic      Atomic             Coordinates (Angstroms)
 Number     Number       Type             X           Y           Z
 ---------------------------------------------------------------------
      1          6           0       -1.857026   -0.099222    0.022707
      2          6           0       -0.613434    0.377252   -0.060409
      3          6           0        0.627575   -0.408783   -0.036796
      4          6           0        1.856436    0.116226    0.033563
      5          1           0       -2.714818    0.536218    0.218473
      6          1           0       -1.993415   -1.181707    0.024423
      7          1           0       -0.524698    1.446809   -0.090733
      8          1           0        0.462532   -1.474897   -0.070062
      9          1           0        1.943956    1.272236    0.033574
     10          1           0        2.745139   -0.511491    0.129941
 ---------------------------------------------------------------------

 SCF Done:  E(RB2PLYPD3) =  -155.693822717     A.U. after   11 cycles
 E2(B2PLYPD3) =    -0.2263873814D+00 E(B2PLYPD3) =    -0.15592021009817D+03

 The electronic state is 1-A.
 Alpha  occ. eigenvalues --  -10.62886 -10.62690 -10.62445 -10.61626  -0.92734
 Alpha  occ. eigenvalues --   -0.84900  -0.69685  -0.63835  -0.54480  -0.53415
 Alpha  occ. eigenvalues --   -0.47014  -0.44931  -0.41031  -0.37753  -0.27850
 Alpha virt. eigenvalues --    0.01647   0.06927   0.07334   0.08003   0.09555
 Alpha virt. eigenvalues --    0.11623   0.12344   0.14307   0.15869   0.15941
 Alpha virt. eigenvalues --    0.18766   0.20471   0.20948   0.22665   0.23949

 Mulliken charges:
               1
     1  C   -0.176750
     2  C   -0.018743
     3  C   -0.043764
     4  C   -0.169014
     5  H    0.089338
     6  H    0.058007
     7  H    0.050756
     8  H    0.054316
     9  H    0.062145
    10  H    0.093709
 Sum of Mulliken charges =   0.00000

 Dipole moment (field-independent basis, Debye):
    X=              0.0147    Y=             -0.0277    Z=              0.1656  Tot=              0.1685
 Quadrupole moment (field-independent basis, Debye-Ang):
   XX=            -23.5972   YY=            -23.2347   ZZ=            -29.3288
   XY=             -0.2122   XZ=             -0.2560   YZ=              0.0680

 1\1\GINC-NODE31\SP\RB2PLYPD3-FC\def2QZVP\C4H6\BOITTIER\26-Aug-2020\0\\
 #p B2PLYPD3/Def2QZVP\\butadiene\\0,1\C,0,-3.865242,0.20564,-0.011135\C
 ,0,-2.724134,-0.478907,0.087471\C,0,-1.364764,0.077159,0.049814\C,0,-0
 .24675,-0.656216,-0.003928\H,0,-4.8211,-0.274416,-0.194978\H,0,-3.8101
 51,1.294945,-0.038669\H,0,-2.823863,-1.546475,0.143135\H,0,-1.340727,1
 .15619,0.057535\H,0,-0.36282,-1.809385,0.023429\H,0,0.738003,-0.196081
 ,-0.111858\\Version=ES64L-G09RevD.01\State=1-A\HF=-155.6938227\MP2=-15
 5.9202101\RMSD=3.504e-09\PG=C01 [X(C4H6)]\\@

 Normal termination of Gaussian 09 at Wed Aug 26 09:29:57 2020.
