 Gaussian 09, Revision D.01,
 Gaussian 09:  ES64L-G09RevD.01 24-Apr-2013

 --------------------
 #p B2PLYPD3/Def2QZVP
 --------------------

 ---------
 butadiene
 ---------
 Symbolic Z-matrix:
 Charge =  0 Multiplicity = 1

                         Standard orientation:
 ---------------------------------------------------------------------
 Center     Atomic      Atomic             Coordinates (Angstroms)
 Number     Number       Type             X           Y           Z
 ---------------------------------------------------------------------
      1          6           0       -1.853468   -0.091756    0.009507
      2          6           0       -0.591600    0.384444   -0.034513
      3          6           0        0.591821   -0.434003   -0.056797
      4          6           0        1.826917    0.123573   -0.022547
      5          1           0       -2.684316    0.559907    0.073228
      6          1           0       -2.094700   -1.126885    0.044023
      7          1           0       -0.471776    1.459708    0.166142
      8          1           0        0.565160   -1.444624    0.061200
      9          1           0        2.175646    1.174207   -0.027586
     10          1           0        2.667967   -0.515859    0.309089
 ---------------------------------------------------------------------

 SCF Done:  E(RB2PLYPD3) =  -155.684194035     A.U. after   11 cycles
 E2(B2PLYPD3) =    -0.2267719168D+00 E(B2PLYPD3) =    -0.15591096595198D+03

 The electronic state is 1-A.
 Alpha  occ. eigenvalues --  -10.62803 -10.62397 -10.62270 -10.61183  -0.93015
 Alpha  occ. eigenvalues --   -0.84605  -0.70500  -0.64862  -0.54587  -0.54378
 Alpha  occ. eigenvalues --   -0.46817  -0.44913  -0.41535  -0.37633  -0.27209
 Alpha virt. eigenvalues --    0.01039   0.07034   0.07526   0.07933   0.09195
 Alpha virt. eigenvalues --    0.11442   0.12561   0.14897   0.15642   0.16654
 Alpha virt. eigenvalues --    0.19031   0.19346   0.21924   0.23379   0.23578

 Mulliken charges:
               1
     1  C   -0.176860
     2  C   -0.036978
     3  C   -0.040720
     4  C   -0.161632
     5  H    0.082458
     6  H    0.065884
     7  H    0.064229
     8  H    0.077284
     9  H    0.066799
    10  H    0.059535
 Sum of Mulliken charges =   0.00000

 Dipole moment (field-independent basis, Debye):
    X=             -0.0060    Y=             -0.0098    Z=              0.4834  Tot=              0.4835
 Quadrupole moment (field-independent basis, Debye-Ang):
   XX=            -23.5892   YY=            -23.1470   ZZ=            -29.1512
   XY=              0.5401   XZ=              0.4578   YZ=             -0.0974

 1\1\GINC-NODE31\SP\RB2PLYPD3-FC\def2QZVP\C4H6\BOITTIER\26-Aug-2020\0\\
 #p B2PLYPD3/Def2QZVP\\butadiene\\0,1\C,0,-3.854137,0.21674,0.003493\C,
 0,-2.702321,-0.484119,0.059461\C,0,-1.387392,0.100495,0.054679\C,0,-0.
 277578,-0.677611,0.034928\H,0,-4.791981,-0.270793,-0.038872\H,0,-3.899
 251,1.277197,-0.061864\H,0,-2.785722,-1.568345,-0.108795\H,0,-1.226848
 ,1.094563,-0.093793\H,0,-0.12994,-1.774135,0.071083\H,0,0.665045,-0.21
 5601,-0.317532\\Version=ES64L-G09RevD.01\State=1-A\HF=-155.684194\MP2=
 -155.910966\RMSD=6.770e-09\PG=C01 [X(C4H6)]\\@

 Normal termination of Gaussian 09 at Wed Aug 26 13:56:19 2020.
