 Gaussian 09, Revision D.01,
 Gaussian 09:  ES64L-G09RevD.01 24-Apr-2013

 --------------------
 #p B2PLYPD3/Def2QZVP
 --------------------

 ---------
 butadiene
 ---------
 Symbolic Z-matrix:
 Charge =  0 Multiplicity = 1

                         Standard orientation:
 ---------------------------------------------------------------------
 Center     Atomic      Atomic             Coordinates (Angstroms)
 Number     Number       Type             X           Y           Z
 ---------------------------------------------------------------------
      1          6           0        1.867868    0.082848    0.026755
      2          6           0        0.625693   -0.398970   -0.076816
      3          6           0       -0.614380    0.423462   -0.037881
      4          6           0       -1.853804   -0.121320    0.043716
      5          1           0        2.745758   -0.537990    0.065092
      6          1           0        2.136334    1.195571    0.210094
      7          1           0        0.384656   -1.385810   -0.108951
      8          1           0       -0.576770    1.553731   -0.074107
      9          1           0       -2.017820   -1.192064    0.243013
     10          1           0       -2.824424    0.450442   -0.069787
 ---------------------------------------------------------------------

 SCF Done:  E(RB2PLYPD3) =  -155.683077671     A.U. after   11 cycles
 E2(B2PLYPD3) =    -0.2271263772D+00 E(B2PLYPD3) =    -0.15591020404851D+03

 The electronic state is 1-A.
 Alpha  occ. eigenvalues --  -10.63670 -10.62694 -10.62616 -10.62558  -0.92318
 Alpha  occ. eigenvalues --   -0.84346  -0.69877  -0.64024  -0.54788  -0.52648
 Alpha  occ. eigenvalues --   -0.47259  -0.44496  -0.40552  -0.37435  -0.27728
 Alpha virt. eigenvalues --    0.01368   0.06902   0.07261   0.08021   0.09162
 Alpha virt. eigenvalues --    0.11349   0.12278   0.14334   0.15990   0.16209
 Alpha virt. eigenvalues --    0.19132   0.20339   0.21276   0.22291   0.22823

 Mulliken charges:
               1
     1  C   -0.152759
     2  C   -0.056654
     3  C   -0.030003
     4  C   -0.175608
     5  H    0.082952
     6  H    0.061215
     7  H    0.074372
     8  H    0.057825
     9  H    0.058231
    10  H    0.080430
 Sum of Mulliken charges =   0.00000

 Dipole moment (field-independent basis, Debye):
    X=              0.0171    Y=             -0.0718    Z=              0.1597  Tot=              0.1760
 Quadrupole moment (field-independent basis, Debye-Ang):
   XX=            -23.0857   YY=            -23.4396   ZZ=            -29.4213
   XY=              0.3128   XZ=              0.3947   YZ=             -0.0848

 1\1\GINC-NODE10\SP\RB2PLYPD3-FC\def2QZVP\C4H6\BOITTIER\26-Aug-2020\0\\
 #p B2PLYPD3/Def2QZVP\\butadiene\\0,1\C,0,-3.8715,0.202227,-0.017431\C,
 0,-2.736019,-0.492199,0.102278\C,0,-1.368501,0.093588,0.052885\C,0,-0.
 246768,-0.666162,-0.011261\H,0,-4.846448,-0.251831,-0.047563\H,0,-3.93
 5802,1.340955,-0.224806\H,0,-2.67592,-1.505368,0.155774\H,0,-1.20284,1
 .212794,0.065845\H,0,-0.277176,-1.752906,-0.187827\H,0,0.810503,-0.275
 421,0.095493\\Version=ES64L-G09RevD.01\State=1-A\HF=-155.6830777\MP2=-
 155.910204\RMSD=6.477e-09\PG=C01 [X(C4H6)]\\@

 Normal termination of Gaussian 09 at Wed Aug 26 14:47:01 2020.
