 Gaussian 09, Revision D.01,
 Gaussian 09:  ES64L-G09RevD.01 24-Apr-2013

 --------------------
 #p B2PLYPD3/Def2QZVP
 --------------------

 ---------
 butadiene
 ---------
 Symbolic Z-matrix:
 Charge =  0 Multiplicity = 1

                         Standard orientation:
 ---------------------------------------------------------------------
 Center     Atomic      Atomic             Coordinates (Angstroms)
 Number     Number       Type             X           Y           Z
 ---------------------------------------------------------------------
      1          6           0        1.849079   -0.126608    0.008375
      2          6           0        0.620236    0.422822   -0.046964
      3          6           0       -0.627676   -0.398632   -0.042180
      4          6           0       -1.865407    0.098710    0.025115
      5          1           0        2.723686    0.507259    0.174648
      6          1           0        2.070129   -1.176240    0.035151
      7          1           0        0.495185    1.503645   -0.043576
      8          1           0       -0.465441   -1.463159    0.030912
      9          1           0       -1.994078    1.170495    0.085403
     10          1           0       -2.686873   -0.519749    0.051392
 ---------------------------------------------------------------------

 SCF Done:  E(RB2PLYPD3) =  -155.696068058     A.U. after   11 cycles
 E2(B2PLYPD3) =    -0.2257728515D+00 E(B2PLYPD3) =    -0.15592184090958D+03

 The electronic state is 1-A.
 Alpha  occ. eigenvalues --  -10.63219 -10.62700 -10.61810 -10.60931  -0.92305
 Alpha  occ. eigenvalues --   -0.84973  -0.70190  -0.64194  -0.55090  -0.53470
 Alpha  occ. eigenvalues --   -0.47349  -0.45671  -0.40909  -0.37524  -0.27796
 Alpha virt. eigenvalues --    0.01746   0.07007   0.07444   0.08184   0.09228
 Alpha virt. eigenvalues --    0.11649   0.12481   0.14655   0.15688   0.16351
 Alpha virt. eigenvalues --    0.18958   0.20057   0.21890   0.23313   0.23610

 Mulliken charges:
               1
     1  C   -0.169432
     2  C   -0.042421
     3  C   -0.032260
     4  C   -0.178046
     5  H    0.077608
     6  H    0.069424
     7  H    0.060475
     8  H    0.056884
     9  H    0.064625
    10  H    0.093143
 Sum of Mulliken charges =   0.00000

 Dipole moment (field-independent basis, Debye):
    X=              0.0165    Y=             -0.0330    Z=              0.2448  Tot=              0.2476
 Quadrupole moment (field-independent basis, Debye-Ang):
   XX=            -23.4632   YY=            -23.0471   ZZ=            -29.2867
   XY=             -0.2735   XZ=              0.2304   YZ=              0.0397

 1\1\GINC-NODE29\SP\RB2PLYPD3-FC\def2QZVP\C4H6\BOITTIER\26-Aug-2020\0\\
 #p B2PLYPD3/Def2QZVP\\butadiene\\0,1\C,0,-3.851776,0.238555,0.036122\C
 ,0,-2.740498,-0.522,-0.003969\C,0,-1.366405,0.064202,-0.022191\C,0,-0.
 236501,-0.643332,0.058851\H,0,-4.824302,-0.224832,0.220075\H,0,-3.8825
 4,1.311101,0.033634\H,0,-2.809596,-1.607324,0.029549\H,0,-1.33641,1.14
 2208,0.021199\H,0,-0.300144,-1.71885,0.148995\H,0,0.681961,-0.180368,0
 .067807\\Version=ES64L-G09RevD.01\State=1-A\HF=-155.6960681\MP2=-155.9
 218409\RMSD=5.460e-09\PG=C01 [X(C4H6)]\\@

 Normal termination of Gaussian 09 at Wed Aug 26 08:39:52 2020.
