 Gaussian 09, Revision D.01,
 Gaussian 09:  ES64L-G09RevD.01 24-Apr-2013

 --------------------
 #p B2PLYPD3/Def2QZVP
 --------------------

 ---------
 butadiene
 ---------
 Symbolic Z-matrix:
 Charge =  0 Multiplicity = 1

                         Standard orientation:
 ---------------------------------------------------------------------
 Center     Atomic      Atomic             Coordinates (Angstroms)
 Number     Number       Type             X           Y           Z
 ---------------------------------------------------------------------
      1          6           0       -1.811169    0.062374   -0.023105
      2          6           0       -0.579960   -0.368508   -0.029192
      3          6           0        0.597024    0.460568   -0.013364
      4          6           0        1.805716   -0.163660    0.032283
      5          1           0       -2.712337   -0.558760    0.086077
      6          1           0       -2.117041    1.103592    0.247346
      7          1           0       -0.399824   -1.440045   -0.173359
      8          1           0        0.468170    1.613007   -0.042786
      9          1           0        2.015717   -1.183720    0.255737
     10          1           0        2.675641    0.521274   -0.172748
 ---------------------------------------------------------------------

 SCF Done:  E(RB2PLYPD3) =  -155.679587332     A.U. after   11 cycles
 E2(B2PLYPD3) =    -0.2273137895D+00 E(B2PLYPD3) =    -0.15590690112160D+03

 The electronic state is 1-A.
 Alpha  occ. eigenvalues --  -10.63794 -10.62368 -10.62145 -10.61278  -0.93273
 Alpha  occ. eigenvalues --   -0.84604  -0.69798  -0.63447  -0.54456  -0.53685
 Alpha  occ. eigenvalues --   -0.46384  -0.44637  -0.40114  -0.38208  -0.27494
 Alpha virt. eigenvalues --    0.01341   0.06984   0.07114   0.07751   0.09186
 Alpha virt. eigenvalues --    0.11521   0.12322   0.14821   0.15695   0.16233
 Alpha virt. eigenvalues --    0.18601   0.19144   0.22379   0.22906   0.23326

 Mulliken charges:
               1
     1  C   -0.158795
     2  C   -0.024834
     3  C   -0.038297
     4  C   -0.181673
     5  H    0.069516
     6  H    0.046958
     7  H    0.061378
     8  H    0.065269
     9  H    0.087551
    10  H    0.072928
 Sum of Mulliken charges =   0.00000

 Dipole moment (field-independent basis, Debye):
    X=              0.0762    Y=             -0.0579    Z=              0.1891  Tot=              0.2120
 Quadrupole moment (field-independent basis, Debye-Ang):
   XX=            -24.0160   YY=            -23.1515   ZZ=            -29.1721
   XY=             -0.5450   XZ=             -0.6717   YZ=             -0.1095

 1\1\GINC-NODE13\SP\RB2PLYPD3-FC\def2QZVP\C4H6\BOITTIER\26-Aug-2020\0\\
 #p B2PLYPD3/Def2QZVP\\butadiene\\0,1\C,0,-3.821082,0.187657,0.010876\C
 ,0,-2.692686,-0.466781,0.013205\C,0,-1.380979,0.126558,-0.003579\C,0,-
 0.310412,-0.71184,0.056892\H,0,-4.821544,-0.249436,0.144514\H,0,-3.923
 308,1.27574,0.248492\H,0,-2.718294,-1.55706,-0.096621\H,0,-1.291685,1.
 281193,-0.070134\H,0,-0.293099,-1.745686,0.312662\H,0,0.670304,-0.2092
 47,-0.174487\\Version=ES64L-G09RevD.01\State=1-A\HF=-155.6795873\MP2=-
 155.9069011\RMSD=8.174e-09\PG=C01 [X(C4H6)]\\@

 Normal termination of Gaussian 09 at Wed Aug 26 13:32:54 2020.
