 Gaussian 09, Revision D.01,
 Gaussian 09:  ES64L-G09RevD.01 24-Apr-2013

 --------------------
 #p B2PLYPD3/Def2QZVP
 --------------------

 ---------
 butadiene
 ---------
 Symbolic Z-matrix:
 Charge =  0 Multiplicity = 1

                         Standard orientation:
 ---------------------------------------------------------------------
 Center     Atomic      Atomic             Coordinates (Angstroms)
 Number     Number       Type             X           Y           Z
 ---------------------------------------------------------------------
      1          6           0       -1.871790    0.093783   -0.060293
      2          6           0       -0.641237   -0.354008    0.068525
      3          6           0        0.647410    0.433067    0.002012
      4          6           0        1.854756   -0.173005   -0.016356
      5          1           0       -2.661680   -0.593037   -0.006658
      6          1           0       -1.948235    1.166057   -0.191496
      7          1           0       -0.583853   -1.415409    0.281550
      8          1           0        0.554138    1.573840    0.266374
      9          1           0        1.946044   -1.161845   -0.308155
     10          1           0        2.758756    0.431376   -0.004939
 ---------------------------------------------------------------------

 SCF Done:  E(RB2PLYPD3) =  -155.682340052     A.U. after   12 cycles
 E2(B2PLYPD3) =    -0.2263118141D+00 E(B2PLYPD3) =    -0.15590865186586D+03

 The electronic state is 1-A.
 Alpha  occ. eigenvalues --  -10.64368 -10.62359 -10.61554 -10.60736  -0.92228
 Alpha  occ. eigenvalues --   -0.85538  -0.69639  -0.63072  -0.55357  -0.53397
 Alpha  occ. eigenvalues --   -0.46993  -0.45303  -0.40684  -0.36901  -0.28376
 Alpha virt. eigenvalues --    0.01789   0.07083   0.07297   0.07845   0.09151
 Alpha virt. eigenvalues --    0.11634   0.12292   0.14558   0.15335   0.16108
 Alpha virt. eigenvalues --    0.18610   0.19527   0.21316   0.22578   0.23913

 Mulliken charges:
               1
     1  C   -0.183862
     2  C   -0.019248
     3  C   -0.055195
     4  C   -0.174960
     5  H    0.097032
     6  H    0.066235
     7  H    0.051270
     8  H    0.055043
     9  H    0.081871
    10  H    0.081812
 Sum of Mulliken charges =   0.00000

 Dipole moment (field-independent basis, Debye):
    X=              0.0528    Y=             -0.0803    Z=              0.0338  Tot=              0.1019
 Quadrupole moment (field-independent basis, Debye-Ang):
   XX=            -23.6508   YY=            -23.2746   ZZ=            -29.1033
   XY=              0.2699   XZ=             -0.2644   YZ=              0.2233

 1\1\GINC-NODE36\SP\RB2PLYPD3-FC\def2QZVP\C4H6\BOITTIER\26-Aug-2020\0\\
 #p B2PLYPD3/Def2QZVP\\butadiene\\0,1\C,0,-3.882368,0.184003,-0.032492\
 C,0,-2.741457,-0.458247,0.098692\C,0,-1.341497,0.106827,0.025698\C,0,-
 0.249654,-0.688787,0.010844\H,0,-4.773912,-0.363889,0.026574\H,0,-3.78
 2537,1.253394,-0.171291\H,0,-2.858163,-1.513225,0.319246\H,0,-1.246332
 ,1.249287,0.281976\H,0,-0.321962,-1.681232,-0.273952\H,0,0.741089,-0.2
 40446,0.017341\\Version=ES64L-G09RevD.01\State=1-A\HF=-155.6823401\MP2
 =-155.9086519\RMSD=2.817e-09\PG=C01 [X(C4H6)]\\@

 Normal termination of Gaussian 09 at Wed Aug 26 12:57:05 2020.
