 Gaussian 09, Revision D.01,
 Gaussian 09:  ES64L-G09RevD.01 24-Apr-2013

 --------------------
 #p B2PLYPD3/Def2QZVP
 --------------------

 ---------
 butadiene
 ---------
 Symbolic Z-matrix:
 Charge =  0 Multiplicity = 1

                         Standard orientation:
 ---------------------------------------------------------------------
 Center     Atomic      Atomic             Coordinates (Angstroms)
 Number     Number       Type             X           Y           Z
 ---------------------------------------------------------------------
      1          6           0        1.872488    0.071959    0.046574
      2          6           0        0.607184   -0.342866   -0.097690
      3          6           0       -0.643660    0.417370   -0.001909
      4          6           0       -1.830128   -0.132383    0.010039
      5          1           0        2.836406   -0.504454    0.044382
      6          1           0        2.030247    1.116913    0.118551
      7          1           0        0.391080   -1.426711   -0.021893
      8          1           0       -0.588313    1.548665   -0.108105
      9          1           0       -1.944290   -1.261245    0.165346
     10          1           0       -2.760430    0.442355    0.059637
 ---------------------------------------------------------------------

 SCF Done:  E(RB2PLYPD3) =  -155.685610279     A.U. after   11 cycles
 E2(B2PLYPD3) =    -0.2266829566D+00 E(B2PLYPD3) =    -0.15591229323585D+03

 The electronic state is 1-A.
 Alpha  occ. eigenvalues --  -10.63147 -10.63077 -10.62183 -10.62052  -0.92942
 Alpha  occ. eigenvalues --   -0.85170  -0.69937  -0.63030  -0.54886  -0.52912
 Alpha  occ. eigenvalues --   -0.47670  -0.44085  -0.39700  -0.38305  -0.28264
 Alpha virt. eigenvalues --    0.01624   0.06981   0.07242   0.07805   0.09515
 Alpha virt. eigenvalues --    0.11445   0.12528   0.14278   0.15286   0.16735
 Alpha virt. eigenvalues --    0.18983   0.19129   0.22102   0.22602   0.23121

 Mulliken charges:
               1
     1  C   -0.164536
     2  C   -0.029402
     3  C   -0.027589
     4  C   -0.159304
     5  H    0.088821
     6  H    0.058438
     7  H    0.047710
     8  H    0.046407
     9  H    0.053733
    10  H    0.085721
 Sum of Mulliken charges =   0.00000

 Dipole moment (field-independent basis, Debye):
    X=             -0.0421    Y=              0.0745    Z=              0.1704  Tot=              0.1907
 Quadrupole moment (field-independent basis, Debye-Ang):
   XX=            -22.7536   YY=            -23.7614   ZZ=            -29.2935
   XY=              0.0360   XZ=             -0.0019   YZ=             -0.2249

 1\1\GINC-NODE40\SP\RB2PLYPD3-FC\def2QZVP\C4H6\BOITTIER\26-Aug-2020\0\\
 #p B2PLYPD3/Def2QZVP\\butadiene\\0,1\C,0,-3.883698,0.179866,-0.028983\
 C,0,-2.709895,-0.448283,0.117649\C,0,-1.345867,0.082898,0.022687\C,0,-
 0.272958,-0.664667,0.013168\H,0,-4.933112,-0.220287,-0.027435\H,0,-3.8
 57401,1.236226,-0.102547\H,0,-2.685316,-1.553305,0.043573\H,0,-1.20392
 6,1.206763,0.127331\H,0,-0.356497,-1.796431,-0.140505\H,0,0.743117,-0.
 260396,-0.035833\\Version=ES64L-G09RevD.01\State=1-A\HF=-155.6856103\M
 P2=-155.9122932\RMSD=6.195e-09\PG=C01 [X(C4H6)]\\@

 Normal termination of Gaussian 09 at Wed Aug 26 13:05:04 2020.
