 Gaussian 09, Revision D.01,
 Gaussian 09:  ES64L-G09RevD.01 24-Apr-2013

 --------------------
 #p B2PLYPD3/Def2QZVP
 --------------------

 ---------
 butadiene
 ---------
 Symbolic Z-matrix:
 Charge =  0 Multiplicity = 1

                         Standard orientation:
 ---------------------------------------------------------------------
 Center     Atomic      Atomic             Coordinates (Angstroms)
 Number     Number       Type             X           Y           Z
 ---------------------------------------------------------------------
      1          6           0        1.786703   -0.154402   -0.058390
      2          6           0        0.584581    0.448847    0.015383
      3          6           0       -0.576120   -0.355758    0.064185
      4          6           0       -1.817001    0.088396   -0.068121
      5          1           0        2.738378    0.401089    0.107446
      6          1           0        1.920705   -1.218149   -0.239582
      7          1           0        0.638995    1.621606    0.197869
      8          1           0       -0.426700   -1.464766    0.324027
      9          1           0       -2.050588    1.147958   -0.096686
     10          1           0       -2.689768   -0.650236   -0.011419
 ---------------------------------------------------------------------

 SCF Done:  E(RB2PLYPD3) =  -155.678645373     A.U. after   11 cycles
 E2(B2PLYPD3) =    -0.2278062695D+00 E(B2PLYPD3) =    -0.15590645164285D+03

 The electronic state is 1-A.
 Alpha  occ. eigenvalues --  -10.63484 -10.62807 -10.62006 -10.61896  -0.93468
 Alpha  occ. eigenvalues --   -0.84504  -0.69525  -0.62560  -0.54076  -0.53542
 Alpha  occ. eigenvalues --   -0.45686  -0.44490  -0.41212  -0.37629  -0.27475
 Alpha virt. eigenvalues --    0.01480   0.06462   0.07131   0.07649   0.09479
 Alpha virt. eigenvalues --    0.11445   0.12223   0.14539   0.15558   0.16343
 Alpha virt. eigenvalues --    0.18672   0.19554   0.21136   0.22227   0.23781

 Mulliken charges:
               1
     1  C   -0.174400
     2  C   -0.028936
     3  C   -0.031149
     4  C   -0.173544
     5  H    0.075174
     6  H    0.067109
     7  H    0.057316
     8  H    0.058548
     9  H    0.073208
    10  H    0.076675
 Sum of Mulliken charges =   0.00000

 Dipole moment (field-independent basis, Debye):
    X=              0.0934    Y=             -0.0101    Z=              0.2848  Tot=              0.2999
 Quadrupole moment (field-independent basis, Debye-Ang):
   XX=            -23.9214   YY=            -23.1603   ZZ=            -29.2890
   XY=             -0.1479   XZ=              0.1171   YZ=              0.1317

 1\1\GINC-NODE40\SP\RB2PLYPD3-FC\def2QZVP\C4H6\BOITTIER\26-Aug-2020\0\\
 #p B2PLYPD3/Def2QZVP\\butadiene\\0,1\C,0,-3.784771,0.25616,-0.03421\C,
 0,-2.709097,-0.548262,0.067184\C,0,-1.423068,0.037372,0.079771\C,0,-0.
 282473,-0.626808,-0.031906\H,0,-4.81899,-0.11238,0.156381\H,0,-3.72815
 3,1.317558,-0.263499\H,0,-2.970548,-1.683084,0.302656\H,0,-1.370088,1.
 165715,0.289005\H,0,-0.242003,-1.711257,-0.012321\H,0,0.708541,-0.0542
 19,-0.008517\\Version=ES64L-G09RevD.01\State=1-A\HF=-155.6786454\MP2=-
 155.9064516\RMSD=9.395e-09\PG=C01 [X(C4H6)]\\@

 Normal termination of Gaussian 09 at Wed Aug 26 13:59:48 2020.
