 Gaussian 09, Revision D.01,
 Gaussian 09:  ES64L-G09RevD.01 24-Apr-2013

 --------------------
 #p B2PLYPD3/Def2QZVP
 --------------------

 ---------
 butadiene
 ---------
 Symbolic Z-matrix:
 Charge =  0 Multiplicity = 1

                         Standard orientation:
 ---------------------------------------------------------------------
 Center     Atomic      Atomic             Coordinates (Angstroms)
 Number     Number       Type             X           Y           Z
 ---------------------------------------------------------------------
      1          6           0       -1.829019    0.098775   -0.043118
      2          6           0       -0.584684   -0.379227    0.071330
      3          6           0        0.607485    0.423456    0.031798
      4          6           0        1.807024   -0.142241   -0.025667
      5          1           0       -2.675437   -0.584210   -0.069177
      6          1           0       -2.007437    1.191506   -0.002546
      7          1           0       -0.429097   -1.464237   -0.012177
      8          1           0        0.547207    1.537513   -0.010819
      9          1           0        1.891007   -1.208583   -0.060542
     10          1           0        2.668918    0.523433   -0.050797
 ---------------------------------------------------------------------

 SCF Done:  E(RB2PLYPD3) =  -155.696079033     A.U. after   11 cycles
 E2(B2PLYPD3) =    -0.2262616590D+00 E(B2PLYPD3) =    -0.15592234069199D+03

 The electronic state is 1-A.
 Alpha  occ. eigenvalues --  -10.62487 -10.62423 -10.61754 -10.61247  -0.93344
 Alpha  occ. eigenvalues --   -0.84920  -0.69675  -0.63629  -0.54350  -0.53920
 Alpha  occ. eigenvalues --   -0.45891  -0.45453  -0.41405  -0.38356  -0.27582
 Alpha virt. eigenvalues --    0.01827   0.07064   0.07174   0.07957   0.09508
 Alpha virt. eigenvalues --    0.11830   0.12244   0.14725   0.15713   0.16019
 Alpha virt. eigenvalues --    0.18597   0.19989   0.21292   0.23113   0.24320

 Mulliken charges:
               1
     1  C   -0.179528
     2  C   -0.028330
     3  C   -0.021102
     4  C   -0.179456
     5  H    0.085605
     6  H    0.067191
     7  H    0.050921
     8  H    0.049403
     9  H    0.070279
    10  H    0.085015
 Sum of Mulliken charges =   0.00000

 Dipole moment (field-independent basis, Debye):
    X=              0.0449    Y=              0.0059    Z=             -0.1131  Tot=              0.1218
 Quadrupole moment (field-independent basis, Debye-Ang):
   XX=            -24.0486   YY=            -22.8808   ZZ=            -29.3023
   XY=              0.0978   XZ=             -0.0298   YZ=              0.1160

 1\1\GINC-NODE12\SP\RB2PLYPD3-FC\def2QZVP\C4H6\BOITTIER\26-Aug-2020\0\\
 #p B2PLYPD3/Def2QZVP\\butadiene\\0,1\C,0,-3.834505,0.207981,-0.026572\
 C,0,-2.695272,-0.482348,0.098112\C,0,-1.379044,0.093803,0.045923\C,0,-
 0.299854,-0.677863,0.000225\H,0,-4.789289,-0.313299,-0.041619\H,0,-3.8
 14931,1.315556,-0.005748\H,0,-2.73601,-1.579017,0.03419\H,0,-1.239572,
 1.199789,-0.016644\H,0,-0.407625,-1.742519,-0.015506\H,0,0.666974,-0.1
 77286,-0.035579\\Version=ES64L-G09RevD.01\State=1-A\HF=-155.696079\MP2
 =-155.9223407\RMSD=4.963e-09\PG=C01 [X(C4H6)]\\@

 Normal termination of Gaussian 09 at Wed Aug 26 08:13:40 2020.
