 Gaussian 09, Revision D.01,
 Gaussian 09:  ES64L-G09RevD.01 24-Apr-2013

 --------------------
 #p B2PLYPD3/Def2QZVP
 --------------------

 ---------
 butadiene
 ---------
 Symbolic Z-matrix:
 Charge =  0 Multiplicity = 1

                         Standard orientation:
 ---------------------------------------------------------------------
 Center     Atomic      Atomic             Coordinates (Angstroms)
 Number     Number       Type             X           Y           Z
 ---------------------------------------------------------------------
      1          6           0       -1.842792   -0.117027    0.026244
      2          6           0       -0.610121    0.409435   -0.054952
      3          6           0        0.610042   -0.368217   -0.026764
      4          6           0        1.844609    0.096213    0.035751
      5          1           0       -2.757373    0.498509    0.045397
      6          1           0       -2.026928   -1.173025    0.086940
      7          1           0       -0.403700    1.468559   -0.023794
      8          1           0        0.463345   -1.448325   -0.048384
      9          1           0        2.077995    1.170505    0.085687
     10          1           0        2.636232   -0.638647   -0.027523
 ---------------------------------------------------------------------

 SCF Done:  E(RB2PLYPD3) =  -155.697477329     A.U. after   11 cycles
 E2(B2PLYPD3) =    -0.2258111621D+00 E(B2PLYPD3) =    -0.15592328849120D+03

 The electronic state is 1-A.
 Alpha  occ. eigenvalues --  -10.62640 -10.62086 -10.62027 -10.61466  -0.93125
 Alpha  occ. eigenvalues --   -0.84965  -0.70439  -0.63839  -0.54701  -0.53611
 Alpha  occ. eigenvalues --   -0.47096  -0.45636  -0.40521  -0.38192  -0.27801
 Alpha virt. eigenvalues --    0.01592   0.06943   0.07393   0.08063   0.09825
 Alpha virt. eigenvalues --    0.11677   0.12277   0.14856   0.15745   0.15966
 Alpha virt. eigenvalues --    0.18868   0.20491   0.21532   0.22327   0.23941

 Mulliken charges:
               1
     1  C   -0.169802
     2  C   -0.038787
     3  C   -0.013885
     4  C   -0.183392
     5  H    0.082530
     6  H    0.068444
     7  H    0.055463
     8  H    0.046135
     9  H    0.066534
    10  H    0.086760
 Sum of Mulliken charges =   0.00000

 Dipole moment (field-independent basis, Debye):
    X=             -0.0488    Y=             -0.0271    Z=              0.0552  Tot=              0.0785
 Quadrupole moment (field-independent basis, Debye-Ang):
   XX=            -23.5132   YY=            -23.1689   ZZ=            -29.2508
   XY=              0.3783   XZ=             -0.2586   YZ=              0.0879

 1\1\GINC-NODE33\SP\RB2PLYPD3-FC\def2QZVP\C4H6\BOITTIER\26-Aug-2020\0\\
 #p B2PLYPD3/Def2QZVP\\butadiene\\0,1\C,0,-3.842079,0.238847,-0.013161\
 C,0,-2.726693,-0.502319,0.085938\C,0,-1.384701,0.037584,0.042394\C,0,-
 0.256237,-0.646667,-0.003745\H,0,-4.854004,-0.198955,-0.019959\H,0,-3.
 829615,1.308789,-0.101433\H,0,-2.717922,-1.58178,0.082547\H,0,-1.33092
 5,1.126476,0.035934\H,0,-0.223757,-1.746459,-0.025422\H,0,0.656731,-0.
 067935,0.043668\\Version=ES64L-G09RevD.01\State=1-A\HF=-155.6974773\MP
 2=-155.9232885\RMSD=6.044e-09\PG=C01 [X(C4H6)]\\@

 Normal termination of Gaussian 09 at Wed Aug 26 09:14:30 2020.
