 Gaussian 09, Revision D.01,
 Gaussian 09:  ES64L-G09RevD.01 24-Apr-2013

 --------------------
 #p B2PLYPD3/Def2QZVP
 --------------------

 ---------
 butadiene
 ---------
 Symbolic Z-matrix:
 Charge =  0 Multiplicity = 1

                         Standard orientation:
 ---------------------------------------------------------------------
 Center     Atomic      Atomic             Coordinates (Angstroms)
 Number     Number       Type             X           Y           Z
 ---------------------------------------------------------------------
      1          6           0        1.844905    0.094096   -0.024665
      2          6           0        0.607814   -0.373834    0.015922
      3          6           0       -0.603446    0.404896    0.006047
      4          6           0       -1.845338   -0.118718   -0.017753
      5          1           0        2.692005   -0.560180    0.004218
      6          1           0        2.023084    1.158148   -0.004768
      7          1           0        0.482643   -1.434186    0.091959
      8          1           0       -0.492425    1.501732    0.053291
      9          1           0       -2.008667   -1.188207   -0.055435
     10          1           0       -2.720254    0.484055    0.033419
 ---------------------------------------------------------------------

 SCF Done:  E(RB2PLYPD3) =  -155.700124518     A.U. after   11 cycles
 E2(B2PLYPD3) =    -0.2255592104D+00 E(B2PLYPD3) =    -0.15592568372867D+03

 The electronic state is 1-A.
 Alpha  occ. eigenvalues --  -10.62857 -10.62015 -10.61613 -10.61165  -0.93145
 Alpha  occ. eigenvalues --   -0.85046  -0.70617  -0.64004  -0.54923  -0.54065
 Alpha  occ. eigenvalues --   -0.46937  -0.45617  -0.41190  -0.38147  -0.27664
 Alpha virt. eigenvalues --    0.01529   0.07028   0.07478   0.08048   0.09836
 Alpha virt. eigenvalues --    0.11654   0.12480   0.14764   0.15870   0.16211
 Alpha virt. eigenvalues --    0.18883   0.20546   0.21643   0.22589   0.23818

 Mulliken charges:
               1
     1  C   -0.175744
     2  C   -0.022374
     3  C   -0.033346
     4  C   -0.176097
     5  H    0.087467
     6  H    0.063637
     7  H    0.052805
     8  H    0.050538
     9  H    0.065024
    10  H    0.088090
 Sum of Mulliken charges =   0.00000

 Dipole moment (field-independent basis, Debye):
    X=             -0.0220    Y=             -0.0224    Z=              0.1258  Tot=              0.1296
 Quadrupole moment (field-independent basis, Debye-Ang):
   XX=            -23.2861   YY=            -23.2058   ZZ=            -29.2073
   XY=              0.0748   XZ=              0.0313   YZ=              0.0451

 1\1\GINC-NODE36\SP\RB2PLYPD3-FC\def2QZVP\C4H6\BOITTIER\26-Aug-2020\0\\
 #p B2PLYPD3/Def2QZVP\\butadiene\\0,1\C,0,-3.84963,0.209681,0.039542\C,
 0,-2.717051,-0.474251,0.017128\C,0,-1.385442,0.073758,0.003923\C,0,-0.
 257913,-0.663666,0.04771\H,0,-4.800706,-0.282112,0.030434\H,0,-3.83357
 6,1.287188,-0.015871\H,0,-2.784946,-1.541738,-0.023578\H,0,-1.297534,1
 .170515,-0.079758\H,0,-0.289484,-1.743262,0.121046\H,0,0.710958,-0.230
 144,-0.021431\\Version=ES64L-G09RevD.01\State=1-A\HF=-155.7001245\MP2=
 -155.9256837\RMSD=5.777e-09\PG=C01 [X(C4H6)]\\@

 Normal termination of Gaussian 09 at Wed Aug 26 19:55:46 2020.
