 Gaussian 09, Revision D.01,
 Gaussian 09:  ES64L-G09RevD.01 24-Apr-2013

 --------------------
 #p B2PLYPD3/Def2QZVP
 --------------------

 ---------
 butadiene
 ---------
 Symbolic Z-matrix:
 Charge =  0 Multiplicity = 1

                         Standard orientation:
 ---------------------------------------------------------------------
 Center     Atomic      Atomic             Coordinates (Angstroms)
 Number     Number       Type             X           Y           Z
 ---------------------------------------------------------------------
      1          6           0       -1.834246   -0.125222    0.002685
      2          6           0       -0.613490    0.420564   -0.039662
      3          6           0        0.605772   -0.386564   -0.017952
      4          6           0        1.836232    0.096274   -0.001906
      5          1           0       -2.714732    0.479012    0.109874
      6          1           0       -1.905267   -1.204207    0.020255
      7          1           0       -0.494691    1.476985    0.049648
      8          1           0        0.409491   -1.430677    0.034041
      9          1           0        1.956525    1.171365    0.044383
     10          1           0        2.783066   -0.522798    0.082807
 ---------------------------------------------------------------------

 SCF Done:  E(RB2PLYPD3) =  -155.696783182     A.U. after   11 cycles
 E2(B2PLYPD3) =    -0.2256620972D+00 E(B2PLYPD3) =    -0.15592244527953D+03

 The electronic state is 1-A.
 Alpha  occ. eigenvalues --  -10.62373 -10.62172 -10.61850 -10.61513  -0.93176
 Alpha  occ. eigenvalues --   -0.85003  -0.69771  -0.64591  -0.54623  -0.53608
 Alpha  occ. eigenvalues --   -0.47053  -0.45500  -0.40991  -0.38094  -0.27880
 Alpha virt. eigenvalues --    0.01878   0.06996   0.07446   0.08096   0.09495
 Alpha virt. eigenvalues --    0.11705   0.12579   0.14502   0.15763   0.16103
 Alpha virt. eigenvalues --    0.18737   0.20315   0.21585   0.23329   0.23744

 Mulliken charges:
               1
     1  C   -0.178264
     2  C   -0.029773
     3  C   -0.028669
     4  C   -0.169269
     5  H    0.088916
     6  H    0.063879
     7  H    0.055603
     8  H    0.053728
     9  H    0.060788
    10  H    0.083060
 Sum of Mulliken charges =   0.00000

 Dipole moment (field-independent basis, Debye):
    X=             -0.0441    Y=              0.0226    Z=              0.2762  Tot=              0.2806
 Quadrupole moment (field-independent basis, Debye-Ang):
   XX=            -23.5158   YY=            -23.2422   ZZ=            -29.2140
   XY=              0.0103   XZ=             -0.0707   YZ=              0.0794

 1\1\GINC-NODE37\SP\RB2PLYPD3-FC\def2QZVP\C4H6\BOITTIER\26-Aug-2020\0\\
 #p B2PLYPD3/Def2QZVP\\butadiene\\0,1\C,0,-3.834106,0.234001,0.008534\C
 ,0,-2.729605,-0.518693,0.067283\C,0,-1.386423,0.058181,0.027221\C,0,-0
 .261345,-0.635808,0.025998\H,0,-4.808201,-0.206759,-0.084812\H,0,-3.71
 2381,1.30763,-0.036901\H,0,-2.800586,-1.581352,0.005387\H,0,-1.394251,
 1.118874,-0.051974\H,0,-0.334058,-1.715996,0.007591\H,0,0.780171,-0.19
 7157,-0.072746\\Version=ES64L-G09RevD.01\State=1-A\HF=-155.6967832\MP2
 =-155.9224453\RMSD=5.848e-09\PG=C01 [X(C4H6)]\\@

 Normal termination of Gaussian 09 at Wed Aug 26 10:10:14 2020.
