 Gaussian 09, Revision D.01,
 Gaussian 09:  ES64L-G09RevD.01 24-Apr-2013

 --------------------
 #p B2PLYPD3/Def2QZVP
 --------------------

 ---------
 butadiene
 ---------
 Symbolic Z-matrix:
 Charge =  0 Multiplicity = 1

                         Standard orientation:
 ---------------------------------------------------------------------
 Center     Atomic      Atomic             Coordinates (Angstroms)
 Number     Number       Type             X           Y           Z
 ---------------------------------------------------------------------
      1          6           0        1.814616   -0.098675    0.031357
      2          6           0        0.606458    0.356781   -0.100210
      3          6           0       -0.623653   -0.448649   -0.021961
      4          6           0       -1.823608    0.162095    0.019706
      5          1           0        2.682517    0.612075    0.166040
      6          1           0        2.028566   -1.134524    0.062491
      7          1           0        0.495507    1.512966    0.034075
      8          1           0       -0.501136   -1.533550   -0.025359
      9          1           0       -1.907689    1.223711    0.075110
     10          1           0       -2.640640   -0.509989    0.114292
 ---------------------------------------------------------------------

 SCF Done:  E(RB2PLYPD3) =  -155.687179306     A.U. after   11 cycles
 E2(B2PLYPD3) =    -0.2260414679D+00 E(B2PLYPD3) =    -0.15591322077364D+03

 The electronic state is 1-A.
 Alpha  occ. eigenvalues --  -10.62992 -10.62589 -10.61319 -10.61040  -0.92970
 Alpha  occ. eigenvalues --   -0.85372  -0.69497  -0.63373  -0.54953  -0.53337
 Alpha  occ. eigenvalues --   -0.46746  -0.45319  -0.40156  -0.38204  -0.28009
 Alpha virt. eigenvalues --    0.02183   0.06872   0.07153   0.07983   0.09340
 Alpha virt. eigenvalues --    0.11771   0.12222   0.14820   0.15411   0.16187
 Alpha virt. eigenvalues --    0.18625   0.19762   0.21690   0.23061   0.24193

 Mulliken charges:
               1
     1  C   -0.172174
     2  C   -0.005113
     3  C   -0.052262
     4  C   -0.172928
     5  H    0.077642
     6  H    0.064348
     7  H    0.037747
     8  H    0.057421
     9  H    0.080534
    10  H    0.084784
 Sum of Mulliken charges =   0.00000

 Dipole moment (field-independent basis, Debye):
    X=              0.0055    Y=             -0.1015    Z=              0.3008  Tot=              0.3175
 Quadrupole moment (field-independent basis, Debye-Ang):
   XX=            -24.1377   YY=            -22.8449   ZZ=            -29.2316
   XY=             -0.1127   XZ=              0.1931   YZ=              0.1982

 1\1\GINC-NODE05\SP\RB2PLYPD3-FC\def2QZVP\C4H6\BOITTIER\26-Aug-2020\0\\
 #p B2PLYPD3/Def2QZVP\\butadiene\\0,1\C,0,-3.825205,0.19867,0.059236\C,
 0,-2.716183,-0.466692,-0.049201\C,0,-1.36382,0.114418,-0.011247\C,0,-0
 .288464,-0.693672,0.061109\H,0,-4.802572,-0.342077,0.229248\H,0,-3.854
 934,1.256218,0.038415\H,0,-2.807431,-1.61643,0.142847\H,0,-1.295264,1.
 202534,-0.069003\H,0,-0.390356,-1.749612,0.169635\H,0,0.634049,-0.1707
 54,0.122009\\Version=ES64L-G09RevD.01\State=1-A\HF=-155.6871793\MP2=-1
 55.9132208\RMSD=7.407e-09\PG=C01 [X(C4H6)]\\@

 Normal termination of Gaussian 09 at Wed Aug 26 12:27:22 2020.
