 Gaussian 09, Revision D.01,
 Gaussian 09:  ES64L-G09RevD.01 24-Apr-2013

 --------------------
 #p B2PLYPD3/Def2QZVP
 --------------------

 ---------
 butadiene
 ---------
 Symbolic Z-matrix:
 Charge =  0 Multiplicity = 1

                         Standard orientation:
 ---------------------------------------------------------------------
 Center     Atomic      Atomic             Coordinates (Angstroms)
 Number     Number       Type             X           Y           Z
 ---------------------------------------------------------------------
      1          6           0        1.855723    0.117528   -0.010483
      2          6           0        0.614093   -0.417336    0.018499
      3          6           0       -0.606030    0.386438    0.018913
      4          6           0       -1.849335   -0.105881   -0.020292
      5          1           0        2.742162   -0.510433   -0.067974
      6          1           0        1.961294    1.201678   -0.062372
      7          1           0        0.438096   -1.450910    0.111033
      8          1           0       -0.475347    1.465226    0.069043
      9          1           0       -2.042651   -1.145602   -0.086363
     10          1           0       -2.710258    0.555548   -0.003195
 ---------------------------------------------------------------------

 SCF Done:  E(RB2PLYPD3) =  -155.698909299     A.U. after   11 cycles
 E2(B2PLYPD3) =    -0.2259825472D+00 E(B2PLYPD3) =    -0.15592489184575D+03

 The electronic state is 1-A.
 Alpha  occ. eigenvalues --  -10.62583 -10.62526 -10.62060 -10.61341  -0.92776
 Alpha  occ. eigenvalues --   -0.84706  -0.70299  -0.64468  -0.54508  -0.53814
 Alpha  occ. eigenvalues --   -0.46769  -0.46035  -0.41250  -0.37784  -0.27580
 Alpha virt. eigenvalues --    0.01510   0.06983   0.07511   0.08105   0.09457
 Alpha virt. eigenvalues --    0.11695   0.12435   0.14714   0.15696   0.16118
 Alpha virt. eigenvalues --    0.18792   0.20383   0.21622   0.22846   0.23848

 Mulliken charges:
               1
     1  C   -0.175653
     2  C   -0.043056
     3  C   -0.022865
     4  C   -0.182052
     5  H    0.088931
     6  H    0.068172
     7  H    0.062818
     8  H    0.051777
     9  H    0.067036
    10  H    0.084891
 Sum of Mulliken charges =   0.00000

 Dipole moment (field-independent basis, Debye):
    X=             -0.0080    Y=             -0.0336    Z=             -0.0192  Tot=              0.0395
 Quadrupole moment (field-independent basis, Debye-Ang):
   XX=            -23.4826   YY=            -23.1182   ZZ=            -29.3053
   XY=              0.1595   XZ=             -0.1284   YZ=              0.0145

 1\1\GINC-NODE26\SP\RB2PLYPD3-FC\def2QZVP\C4H6\BOITTIER\26-Aug-2020\0\\
 #p B2PLYPD3/Def2QZVP\\butadiene\\0,1\C,0,-3.85446,0.235398,0.030614\C,
 0,-2.729005,-0.5141,0.017684\C,0,-1.384536,0.057456,-0.004295\C,0,-0.2
 49515,-0.648611,0.049741\H,0,-4.838887,-0.221533,0.104986\H,0,-3.76368
 5,1.321917,0.051953\H,0,-2.741598,-1.564644,-0.045646\H,0,-1.319859,1.
 140373,-0.084805\H,0,-0.245503,-1.703902,0.145141\H,0,0.715982,-0.1530
 69,0.014787\\Version=ES64L-G09RevD.01\State=1-A\HF=-155.6989093\MP2=-1
 55.9248918\RMSD=6.100e-09\PG=C01 [X(C4H6)]\\@

 Normal termination of Gaussian 09 at Wed Aug 26 19:02:05 2020.
