 Gaussian 09, Revision D.01,
 Gaussian 09:  ES64L-G09RevD.01 24-Apr-2013

 --------------------
 #p B2PLYPD3/Def2QZVP
 --------------------

 ---------
 butadiene
 ---------
 Symbolic Z-matrix:
 Charge =  0 Multiplicity = 1

                         Standard orientation:
 ---------------------------------------------------------------------
 Center     Atomic      Atomic             Coordinates (Angstroms)
 Number     Number       Type             X           Y           Z
 ---------------------------------------------------------------------
      1          6           0       -1.842261   -0.103406   -0.009330
      2          6           0       -0.603335    0.379796    0.003812
      3          6           0        0.620953   -0.427070    0.025291
      4          6           0        1.827375    0.120445   -0.032193
      5          1           0       -2.718265    0.547119    0.064715
      6          1           0       -2.081442   -1.144208   -0.077696
      7          1           0       -0.483554    1.481108    0.008650
      8          1           0        0.550387   -1.486078    0.016363
      9          1           0        1.941031    1.237201   -0.006419
     10          1           0        2.775450   -0.453732    0.068906
 ---------------------------------------------------------------------

 SCF Done:  E(RB2PLYPD3) =  -155.696734936     A.U. after   11 cycles
 E2(B2PLYPD3) =    -0.2258150632D+00 E(B2PLYPD3) =    -0.15592254999946D+03

 The electronic state is 1-A.
 Alpha  occ. eigenvalues --  -10.62871 -10.62420 -10.62126 -10.61375  -0.92908
 Alpha  occ. eigenvalues --   -0.85001  -0.69553  -0.64098  -0.54581  -0.53672
 Alpha  occ. eigenvalues --   -0.46787  -0.44780  -0.40936  -0.38066  -0.27936
 Alpha virt. eigenvalues --    0.01902   0.06943   0.07425   0.07941   0.09498
 Alpha virt. eigenvalues --    0.11591   0.12478   0.14486   0.15847   0.16231
 Alpha virt. eigenvalues --    0.18900   0.20368   0.21603   0.22461   0.23777

 Mulliken charges:
               1
     1  C   -0.174430
     2  C   -0.028049
     3  C   -0.041666
     4  C   -0.157780
     5  H    0.080482
     6  H    0.066487
     7  H    0.054344
     8  H    0.064763
     9  H    0.055984
    10  H    0.079864
 Sum of Mulliken charges =   0.00000

 Dipole moment (field-independent basis, Debye):
    X=              0.0123    Y=             -0.0588    Z=              0.0858  Tot=              0.1048
 Quadrupole moment (field-independent basis, Debye-Ang):
   XX=            -23.3816   YY=            -23.1787   ZZ=            -29.2883
   XY=              0.1026   XZ=              0.1754   YZ=              0.0928

 1\1\GINC-NODE18\SP\RB2PLYPD3-FC\def2QZVP\C4H6\BOITTIER\26-Aug-2020\0\\
 #p B2PLYPD3/Def2QZVP\\butadiene\\0,1\C,0,-3.848368,0.208743,0.030116\C
 ,0,-2.714087,-0.485517,0.028471\C,0,-1.36684,0.092102,-0.012236\C,0,-0
 .275593,-0.658059,0.058258\H,0,-4.825631,-0.27868,-0.028403\H,0,-3.900
 044,1.276724,0.073675\H,0,-2.790339,-1.5905,0.049864\H,0,-1.249584,1.1
 46874,-0.028533\H,0,-0.360685,-1.77765,0.059089\H,0,0.758415,-0.26258,
 -0.0565\\Version=ES64L-G09RevD.01\State=1-A\HF=-155.6967349\MP2=-155.9
 2255\RMSD=3.736e-09\PG=C01 [X(C4H6)]\\@

 Normal termination of Gaussian 09 at Wed Aug 26 08:52:53 2020.
