 Gaussian 09, Revision D.01,
 Gaussian 09:  ES64L-G09RevD.01 24-Apr-2013

 --------------------
 #p B2PLYPD3/Def2QZVP
 --------------------

 ---------
 butadiene
 ---------
 Symbolic Z-matrix:
 Charge =  0 Multiplicity = 1

                         Standard orientation:
 ---------------------------------------------------------------------
 Center     Atomic      Atomic             Coordinates (Angstroms)
 Number     Number       Type             X           Y           Z
 ---------------------------------------------------------------------
      1          6           0        1.817520   -0.062915    0.002077
      2          6           0        0.567932    0.341217    0.040436
      3          6           0       -0.587056   -0.427831   -0.036820
      4          6           0       -1.820766    0.125815   -0.021672
      5          1           0        2.720417    0.559076   -0.069175
      6          1           0        2.033162   -1.146992   -0.190070
      7          1           0        0.434237    1.486102    0.158125
      8          1           0       -0.442804   -1.498956    0.266033
      9          1           0       -1.950749    1.225833   -0.122345
     10          1           0       -2.660045   -0.482778    0.053302
 ---------------------------------------------------------------------

 SCF Done:  E(RB2PLYPD3) =  -155.682175627     A.U. after   11 cycles
 E2(B2PLYPD3) =    -0.2272326223D+00 E(B2PLYPD3) =    -0.15590940824879D+03

 The electronic state is 1-A.
 Alpha  occ. eigenvalues --  -10.62760 -10.62363 -10.62021 -10.61632  -0.93958
 Alpha  occ. eigenvalues --   -0.84863  -0.70915  -0.62631  -0.55375  -0.53248
 Alpha  occ. eigenvalues --   -0.46915  -0.44829  -0.40709  -0.38121  -0.27527
 Alpha virt. eigenvalues --    0.01075   0.06938   0.07256   0.07810   0.09519
 Alpha virt. eigenvalues --    0.11580   0.12467   0.14760   0.15062   0.16365
 Alpha virt. eigenvalues --    0.18517   0.19507   0.21831   0.22899   0.23506

 Mulliken charges:
               1
     1  C   -0.168045
     2  C   -0.009881
     3  C   -0.036614
     4  C   -0.182292
     5  H    0.086455
     6  H    0.047023
     7  H    0.035970
     8  H    0.062649
     9  H    0.073070
    10  H    0.091665
 Sum of Mulliken charges =   0.00000

 Dipole moment (field-independent basis, Debye):
    X=             -0.1184    Y=              0.0329    Z=              0.0787  Tot=              0.1460
 Quadrupole moment (field-independent basis, Debye-Ang):
   XX=            -23.3715   YY=            -23.5960   ZZ=            -29.1193
   XY=             -0.0539   XZ=             -0.6351   YZ=             -0.2269

 1\1\GINC-NODE07\SP\RB2PLYPD3-FC\def2QZVP\C4H6\BOITTIER\26-Aug-2020\0\\
 #p B2PLYPD3/Def2QZVP\\butadiene\\0,1\C,0,-3.828763,0.187149,0.016402\C
 ,0,-2.677784,-0.444332,0.068786\C,0,-1.398337,0.092446,-0.010482\C,0,-
 0.290998,-0.683204,0.020545\H,0,-4.832292,-0.254763,-0.05299\H,0,-3.83
 5609,1.289599,-0.191452\H,0,-2.76254,-1.592133,0.202416\H,0,-1.339682,
 1.17577,0.277278\H,0,-0.369994,-1.789346,-0.064779\H,0,0.647512,-0.242
 424,0.093389\\Version=ES64L-G09RevD.01\State=1-A\HF=-155.6821756\MP2=-
 155.9094082\RMSD=7.090e-09\PG=C01 [X(C4H6)]\\@

 Normal termination of Gaussian 09 at Wed Aug 26 12:37:42 2020.
