 Gaussian 09, Revision D.01,
 Gaussian 09:  ES64L-G09RevD.01 24-Apr-2013

 --------------------
 #p B2PLYPD3/Def2QZVP
 --------------------

 ---------
 butadiene
 ---------
 Symbolic Z-matrix:
 Charge =  0 Multiplicity = 1

                         Standard orientation:
 ---------------------------------------------------------------------
 Center     Atomic      Atomic             Coordinates (Angstroms)
 Number     Number       Type             X           Y           Z
 ---------------------------------------------------------------------
      1          6           0        1.839229    0.090625   -0.024550
      2          6           0        0.592514   -0.387720    0.035692
      3          6           0       -0.603449    0.423122    0.012649
      4          6           0       -1.834992   -0.124704   -0.009253
      5          1           0        2.731322   -0.522332   -0.026530
      6          1           0        2.020486    1.160164    0.025412
      7          1           0        0.444547   -1.470816   -0.024773
      8          1           0       -0.465943    1.500946   -0.015897
      9          1           0       -1.978648   -1.172935   -0.014378
     10          1           0       -2.711576    0.497035   -0.031060
 ---------------------------------------------------------------------

 SCF Done:  E(RB2PLYPD3) =  -155.699794715     A.U. after   11 cycles
 E2(B2PLYPD3) =    -0.2260070053D+00 E(B2PLYPD3) =    -0.15592580172026D+03

 The electronic state is 1-A.
 Alpha  occ. eigenvalues --  -10.62760 -10.62539 -10.61518 -10.61444  -0.93021
 Alpha  occ. eigenvalues --   -0.84724  -0.70412  -0.64185  -0.54705  -0.53922
 Alpha  occ. eigenvalues --   -0.46698  -0.45625  -0.41300  -0.38133  -0.27480
 Alpha virt. eigenvalues --    0.01527   0.07042   0.07410   0.08084   0.09475
 Alpha virt. eigenvalues --    0.11680   0.12542   0.14742   0.15817   0.16207
 Alpha virt. eigenvalues --    0.18779   0.20308   0.21899   0.23082   0.23645

 Mulliken charges:
               1
     1  C   -0.175120
     2  C   -0.024662
     3  C   -0.033670
     4  C   -0.177445
     5  H    0.084896
     6  H    0.059601
     7  H    0.052833
     8  H    0.057408
     9  H    0.070909
    10  H    0.085249
 Sum of Mulliken charges =   0.00000

 Dipole moment (field-independent basis, Debye):
    X=             -0.0270    Y=              0.0021    Z=             -0.0423  Tot=              0.0502
 Quadrupole moment (field-independent basis, Debye-Ang):
   XX=            -23.3860   YY=            -23.1382   ZZ=            -29.2926
   XY=              0.2133   XZ=              0.0799   YZ=              0.0707

 1\1\GINC-NODE14\SP\RB2PLYPD3-FC\def2QZVP\C4H6\BOITTIER\26-Aug-2020\0\\
 #p B2PLYPD3/Def2QZVP\\butadiene\\0,1\C,0,-3.844825,0.210524,0.043011\C
 ,0,-2.706479,-0.488985,0.003037\C,0,-1.382632,0.090451,0.000517\C,0,-0
 .271557,-0.671663,0.045055\H,0,-4.833718,-0.229005,0.064335\H,0,-3.828
 206,1.292742,-0.045265\H,0,-2.758261,-1.578082,0.102201\H,0,-1.321183,
 1.175602,-0.009478\H,0,-0.321433,-1.727669,0.087668\H,0,0.703781,-0.21
 9838,0.047151\\Version=ES64L-G09RevD.01\State=1-A\HF=-155.6997947\MP2=
 -155.9258017\RMSD=6.065e-09\PG=C01 [X(C4H6)]\\@

 Normal termination of Gaussian 09 at Wed Aug 26 09:27:52 2020.
