 Gaussian 09, Revision D.01,
 Gaussian 09:  ES64L-G09RevD.01 24-Apr-2013

 --------------------
 #p B2PLYPD3/Def2QZVP
 --------------------

 ---------
 butadiene
 ---------
 Symbolic Z-matrix:
 Charge =  0 Multiplicity = 1

                         Standard orientation:
 ---------------------------------------------------------------------
 Center     Atomic      Atomic             Coordinates (Angstroms)
 Number     Number       Type             X           Y           Z
 ---------------------------------------------------------------------
      1          6           0        1.830457   -0.117311   -0.013183
      2          6           0        0.601730    0.411399    0.000166
      3          6           0       -0.594111   -0.384034    0.009822
      4          6           0       -1.835389    0.096120   -0.001024
      5          1           0        2.715755    0.487174   -0.020291
      6          1           0        1.949552   -1.186832    0.048499
      7          1           0        0.511454    1.478979    0.043150
      8          1           0       -0.452102   -1.451977   -0.005884
      9          1           0       -2.030607    1.167125   -0.007493
     10          1           0       -2.710168   -0.531513   -0.032666
 ---------------------------------------------------------------------

 SCF Done:  E(RB2PLYPD3) =  -155.701017688     A.U. after   11 cycles
 E2(B2PLYPD3) =    -0.2254823573D+00 E(B2PLYPD3) =    -0.15592650004544D+03

 The electronic state is 1-A.
 Alpha  occ. eigenvalues --  -10.62275 -10.62211 -10.61418 -10.61371  -0.93324
 Alpha  occ. eigenvalues --   -0.84968  -0.70382  -0.64366  -0.54913  -0.54067
 Alpha  occ. eigenvalues --   -0.46754  -0.45489  -0.41441  -0.38312  -0.27577
 Alpha virt. eigenvalues --    0.01655   0.07033   0.07486   0.08085   0.09715
 Alpha virt. eigenvalues --    0.11683   0.12544   0.14732   0.15850   0.16305
 Alpha virt. eigenvalues --    0.18782   0.20524   0.21709   0.22804   0.23849

 Mulliken charges:
               1
     1  C   -0.176393
     2  C   -0.028829
     3  C   -0.028137
     4  C   -0.174984
     5  H    0.086491
     6  H    0.063559
     7  H    0.056691
     8  H    0.053982
     9  H    0.062385
    10  H    0.085234
 Sum of Mulliken charges =   0.00000

 Dipole moment (field-independent basis, Debye):
    X=              0.0194    Y=              0.0147    Z=              0.0323  Tot=              0.0405
 Quadrupole moment (field-independent basis, Debye-Ang):
   XX=            -23.3691   YY=            -23.1611   ZZ=            -29.1933
   XY=             -0.0443   XZ=              0.1904   YZ=              0.0043

 1\1\GINC-NODE29\SP\RB2PLYPD3-FC\def2QZVP\C4H6\BOITTIER\26-Aug-2020\0\\
 #p B2PLYPD3/Def2QZVP\\butadiene\\0,1\C,0,-3.830668,0.231761,0.007987\C
 ,0,-2.717858,-0.510017,0.038004\C,0,-1.397777,0.055681,0.023399\C,0,-0
 .263965,-0.641376,0.027734\H,0,-4.810769,-0.202381,0.019322\H,0,-3.753
 912,1.306543,0.036556\H,0,-2.822048,-1.574487,0.113984\H,0,-1.344255,1
 .130705,-0.025342\H,0,-0.265831,-1.729718,0.054419\H,0,0.709772,-0.183
 754,-0.02305\\Version=ES64L-G09RevD.01\State=1-A\HF=-155.7010177\MP2=-
 155.9265\RMSD=4.711e-09\PG=C01 [X(C4H6)]\\@

 Normal termination of Gaussian 09 at Wed Aug 26 19:23:33 2020.
