 Gaussian 09, Revision D.01,
 Gaussian 09:  ES64L-G09RevD.01 24-Apr-2013

 --------------------
 #p B2PLYPD3/Def2QZVP
 --------------------

 ---------
 butadiene
 ---------
 Symbolic Z-matrix:
 Charge =  0 Multiplicity = 1

                         Standard orientation:
 ---------------------------------------------------------------------
 Center     Atomic      Atomic             Coordinates (Angstroms)
 Number     Number       Type             X           Y           Z
 ---------------------------------------------------------------------
      1          6           0        1.845319    0.109917   -0.010587
      2          6           0        0.611800   -0.413497    0.016868
      3          6           0       -0.606887    0.393352    0.005098
      4          6           0       -1.844568   -0.107265   -0.021890
      5          1           0        2.745797   -0.491958    0.026341
      6          1           0        1.948117    1.205243   -0.062187
      7          1           0        0.467898   -1.470531    0.012618
      8          1           0       -0.429691    1.463600    0.052889
      9          1           0       -2.057121   -1.170946   -0.018812
     10          1           0       -2.708981    0.569553    0.052216
 ---------------------------------------------------------------------

 SCF Done:  E(RB2PLYPD3) =  -155.699740327     A.U. after   11 cycles
 E2(B2PLYPD3) =    -0.2259718080D+00 E(B2PLYPD3) =    -0.15592571213519D+03

 The electronic state is 1-A.
 Alpha  occ. eigenvalues --  -10.62642 -10.62425 -10.61871 -10.61796  -0.92858
 Alpha  occ. eigenvalues --   -0.84748  -0.69976  -0.64211  -0.54569  -0.53522
 Alpha  occ. eigenvalues --   -0.46957  -0.45521  -0.40950  -0.37985  -0.27720
 Alpha virt. eigenvalues --    0.01681   0.06969   0.07391   0.08099   0.09512
 Alpha virt. eigenvalues --    0.11691   0.12388   0.14645   0.15790   0.16067
 Alpha virt. eigenvalues --    0.18801   0.20524   0.21448   0.22841   0.23765

 Mulliken charges:
               1
     1  C   -0.174689
     2  C   -0.032538
     3  C   -0.029651
     4  C   -0.176226
     5  H    0.089583
     6  H    0.060765
     7  H    0.056891
     8  H    0.054428
     9  H    0.068999
    10  H    0.082439
 Sum of Mulliken charges =   0.00000

 Dipole moment (field-independent basis, Debye):
    X=              0.0159    Y=             -0.0389    Z=              0.0724  Tot=              0.0837
 Quadrupole moment (field-independent basis, Debye-Ang):
   XX=            -23.5068   YY=            -23.1328   ZZ=            -29.3297
   XY=              0.1891   XZ=             -0.1857   YZ=              0.0209

 1\1\GINC-NODE27\SP\RB2PLYPD3-FC\def2QZVP\C4H6\BOITTIER\26-Aug-2020\0\\
 #p B2PLYPD3/Def2QZVP\\butadiene\\0,1\C,0,-3.846216,0.228256,0.029732\C
 ,0,-2.72762,-0.509925,0.018885\C,0,-1.383248,0.063526,0.006265\C,0,-0.
 256161,-0.651342,0.049135\H,0,-4.840737,-0.201924,0.011014\H,0,-3.7493
 09,1.325189,0.04753\H,0,-2.776896,-1.574941,0.055747\H,0,-1.364559,1.1
 46224,-0.074537\H,0,-0.239153,-1.735515,0.078904\H,0,0.715842,-0.14434
 4,-0.045451\\Version=ES64L-G09RevD.01\State=1-A\HF=-155.6997403\MP2=-1
 55.9257121\RMSD=3.012e-09\PG=C01 [X(C4H6)]\\@

 Normal termination of Gaussian 09 at Wed Aug 26 21:11:01 2020.
