 Gaussian 09, Revision D.01,
 Gaussian 09:  ES64L-G09RevD.01 24-Apr-2013

 --------------------
 #p B2PLYPD3/Def2QZVP
 --------------------

 ---------
 butadiene
 ---------
 Symbolic Z-matrix:
 Charge =  0 Multiplicity = 1

                         Standard orientation:
 ---------------------------------------------------------------------
 Center     Atomic      Atomic             Coordinates (Angstroms)
 Number     Number       Type             X           Y           Z
 ---------------------------------------------------------------------
      1          6           0       -1.822154   -0.143137   -0.019217
      2          6           0       -0.610905    0.439091    0.022368
      3          6           0        0.606850   -0.380648    0.021335
      4          6           0        1.842817    0.094848   -0.024307
      5          1           0       -2.726459    0.500968   -0.034036
      6          1           0       -1.968346   -1.212745   -0.107629
      7          1           0       -0.518408    1.495735    0.143960
      8          1           0        0.464263   -1.467730    0.115258
      9          1           0        1.966329    1.191251   -0.136354
     10          1           0        2.682970   -0.568403    0.017727
 ---------------------------------------------------------------------

 SCF Done:  E(RB2PLYPD3) =  -155.697606367     A.U. after   11 cycles
 E2(B2PLYPD3) =    -0.2259896230D+00 E(B2PLYPD3) =    -0.15592359599042D+03

 The electronic state is 1-A.
 Alpha  occ. eigenvalues --  -10.62683 -10.62410 -10.62002 -10.61328  -0.92829
 Alpha  occ. eigenvalues --   -0.84865  -0.69515  -0.63994  -0.54444  -0.53651
 Alpha  occ. eigenvalues --   -0.46995  -0.44973  -0.41164  -0.37849  -0.27772
 Alpha virt. eigenvalues --    0.01946   0.07053   0.07345   0.07951   0.09354
 Alpha virt. eigenvalues --    0.11731   0.12266   0.14620   0.15708   0.16038
 Alpha virt. eigenvalues --    0.18649   0.20233   0.21314   0.22845   0.24059

 Mulliken charges:
               1
     1  C   -0.172789
     2  C   -0.045190
     3  C   -0.022025
     4  C   -0.183009
     5  H    0.078232
     6  H    0.073196
     7  H    0.065783
     8  H    0.050869
     9  H    0.063028
    10  H    0.091905
 Sum of Mulliken charges =   0.00000

 Dipole moment (field-independent basis, Debye):
    X=             -0.0653    Y=             -0.0178    Z=              0.0235  Tot=              0.0716
 Quadrupole moment (field-independent basis, Debye-Ang):
   XX=            -23.8899   YY=            -22.9331   ZZ=            -29.2961
   XY=             -0.0107   XZ=              0.0926   YZ=             -0.0096

 1\1\GINC-NODE33\SP\RB2PLYPD3-FC\def2QZVP\C4H6\BOITTIER\26-Aug-2020\0\\
 #p B2PLYPD3/Def2QZVP\\butadiene\\0,1\C,0,-3.821643,0.249426,0.036985\C
 ,0,-2.732533,-0.53867,0.01274\C,0,-1.389062,0.052599,-0.006938\C,0,-0.
 256448,-0.632507,0.053147\H,0,-4.8255,-0.224027,0.068138\H,0,-3.776157
 ,1.330019,0.096156\H,0,-2.828694,-1.597909,-0.080018\H,0,-1.337589,1.1
 44836,-0.130504\H,0,-0.328279,-1.730054,0.19506\H,0,0.687555,-0.129607
 ,-0.005811\\Version=ES64L-G09RevD.01\State=1-A\HF=-155.6976064\MP2=-15
 5.923596\RMSD=6.787e-09\PG=C01 [X(C4H6)]\\@

 Normal termination of Gaussian 09 at Wed Aug 26 09:21:25 2020.
