 Gaussian 09, Revision D.01,
 Gaussian 09:  ES64L-G09RevD.01 24-Apr-2013

 --------------------
 #p B2PLYPD3/Def2QZVP
 --------------------

 ---------
 butadiene
 ---------
 Symbolic Z-matrix:
 Charge =  0 Multiplicity = 1

                         Standard orientation:
 ---------------------------------------------------------------------
 Center     Atomic      Atomic             Coordinates (Angstroms)
 Number     Number       Type             X           Y           Z
 ---------------------------------------------------------------------
      1          6           0        1.795304    0.119789   -0.001332
      2          6           0        0.583731   -0.432276   -0.075785
      3          6           0       -0.573062    0.363198   -0.045833
      4          6           0       -1.824719   -0.100005    0.043614
      5          1           0        2.707502   -0.405024    0.217318
      6          1           0        1.892336    1.233314    0.062404
      7          1           0        0.561956   -1.514278    0.140436
      8          1           0       -0.440287    1.459035   -0.001083
      9          1           0       -2.029454   -1.086150   -0.071425
     10          1           0       -2.579577    0.608861    0.128373
 ---------------------------------------------------------------------

 SCF Done:  E(RB2PLYPD3) =  -155.686779564     A.U. after   11 cycles
 E2(B2PLYPD3) =    -0.2261398812D+00 E(B2PLYPD3) =    -0.15591291944485D+03

 The electronic state is 1-A.
 Alpha  occ. eigenvalues --  -10.62314 -10.62189 -10.61780 -10.60041  -0.93916
 Alpha  occ. eigenvalues --   -0.85180  -0.70733  -0.63990  -0.55128  -0.54765
 Alpha  occ. eigenvalues --   -0.46090  -0.45320  -0.41753  -0.38598  -0.27292
 Alpha virt. eigenvalues --    0.01393   0.07112   0.07370   0.08011   0.09457
 Alpha virt. eigenvalues --    0.11805   0.12645   0.14806   0.15530   0.16637
 Alpha virt. eigenvalues --    0.18635   0.19603   0.22082   0.23623   0.24135

 Mulliken charges:
               1
     1  C   -0.162315
     2  C   -0.028356
     3  C   -0.017928
     4  C   -0.190388
     5  H    0.079659
     6  H    0.049638
     7  H    0.060191
     8  H    0.046727
     9  H    0.077591
    10  H    0.085181
 Sum of Mulliken charges =   0.00000

 Dipole moment (field-independent basis, Debye):
    X=              0.0751    Y=             -0.0128    Z=              0.3387  Tot=              0.3472
 Quadrupole moment (field-independent basis, Debye-Ang):
   XX=            -23.7776   YY=            -23.1447   ZZ=            -29.0038
   XY=             -0.0159   XZ=              0.7142   YZ=             -0.0401

 1\1\GINC-NODE13\SP\RB2PLYPD3-FC\def2QZVP\C4H6\BOITTIER\26-Aug-2020\0\\
 #p B2PLYPD3/Def2QZVP\\butadiene\\0,1\C,0,-3.795754,0.237194,-0.001162\
 C,0,-2.706366,-0.525238,0.099641\C,0,-1.423068,0.043011,0.053987\C,0,-
 0.277647,-0.644687,-0.011468\H,0,-4.788431,-0.117942,-0.210476\H,0,-3.
 686444,1.347007,-0.100056\H,0,-2.883337,-1.599174,-0.082834\H,0,-1.352
 177,1.142612,-0.025658\H,0,-0.257782,-1.647489,0.13559\H,0,0.59475,-0.
 089493,-0.112311\\Version=ES64L-G09RevD.01\State=1-A\HF=-155.6867796\M
 P2=-155.9129194\RMSD=8.653e-09\PG=C01 [X(C4H6)]\\@

 Normal termination of Gaussian 09 at Wed Aug 26 11:58:32 2020.
