 Gaussian 09, Revision D.01,
 Gaussian 09:  ES64L-G09RevD.01 24-Apr-2013

 --------------------
 #p B2PLYPD3/Def2QZVP
 --------------------

 ---------
 butadiene
 ---------
 Symbolic Z-matrix:
 Charge =  0 Multiplicity = 1

                         Standard orientation:
 ---------------------------------------------------------------------
 Center     Atomic      Atomic             Coordinates (Angstroms)
 Number     Number       Type             X           Y           Z
 ---------------------------------------------------------------------
      1          6           0       -1.853620   -0.124971    0.097800
      2          6           0       -0.621993    0.411821   -0.060328
      3          6           0        0.597987   -0.389721   -0.084763
      4          6           0        1.839858    0.106446    0.060755
      5          1           0       -2.750465    0.560139   -0.215971
      6          1           0       -2.030796   -1.188256    0.255573
      7          1           0       -0.491937    1.525898   -0.113253
      8          1           0        0.503708   -1.432665   -0.215130
      9          1           0        2.317926    1.124247    0.231522
     10          1           0        2.678172   -0.610818   -0.023523
 ---------------------------------------------------------------------

 SCF Done:  E(RB2PLYPD3) =  -155.678029837     A.U. after   11 cycles
 E2(B2PLYPD3) =    -0.2278973309D+00 E(B2PLYPD3) =    -0.15590592716787D+03

 The electronic state is 1-A.
 Alpha  occ. eigenvalues --  -10.63319 -10.62846 -10.62731 -10.62673  -0.92512
 Alpha  occ. eigenvalues --   -0.84259  -0.69642  -0.63723  -0.53795  -0.53452
 Alpha  occ. eigenvalues --   -0.46482  -0.44773  -0.40354  -0.37196  -0.27547
 Alpha virt. eigenvalues --    0.00964   0.06833   0.07338   0.07674   0.09405
 Alpha virt. eigenvalues --    0.11000   0.12416   0.14708   0.15538   0.16093
 Alpha virt. eigenvalues --    0.19249   0.19518   0.21380   0.21718   0.23632

 Mulliken charges:
               1
     1  C   -0.174136
     2  C   -0.037105
     3  C   -0.045125
     4  C   -0.166649
     5  H    0.074812
     6  H    0.071271
     7  H    0.068163
     8  H    0.073333
     9  H    0.072970
    10  H    0.062466
 Sum of Mulliken charges =   0.00000

 Dipole moment (field-independent basis, Debye):
    X=              0.1974    Y=             -0.0507    Z=             -0.1445  Tot=              0.2499
 Quadrupole moment (field-independent basis, Debye-Ang):
   XX=            -23.7607   YY=            -23.2031   ZZ=            -29.3724
   XY=              0.7085   XZ=              0.5795   YZ=             -0.0795

 1\1\GINC-NODE39\SP\RB2PLYPD3-FC\def2QZVP\C4H6\BOITTIER\26-Aug-2020\0\\
 #p B2PLYPD3/Def2QZVP\\butadiene\\0,1\C,0,-3.848595,0.241787,-0.068621\
 C,0,-2.733742,-0.504531,0.105065\C,0,-1.388074,0.061611,0.096212\C,0,-
 0.258743,-0.657402,-0.035063\H,0,-4.852021,-0.256866,0.272905\H,0,-3.8
 30834,1.313294,-0.264624\H,0,-2.80811,-1.62107,0.198301\H,0,-1.28967,1
 .108221,0.188631\H,0,0.024392,-1.750677,-0.170015\H,0,0.696903,-0.1023
 99,0.020203\\Version=ES64L-G09RevD.01\State=1-A\HF=-155.6780298\MP2=-1
 55.9059272\RMSD=7.830e-09\PG=C01 [X(C4H6)]\\@

 Normal termination of Gaussian 09 at Wed Aug 26 15:36:15 2020.
