 Gaussian 09, Revision D.01,
 Gaussian 09:  ES64L-G09RevD.01 24-Apr-2013

 --------------------
 #p B2PLYPD3/Def2QZVP
 --------------------

 ---------
 butadiene
 ---------
 Symbolic Z-matrix:
 Charge =  0 Multiplicity = 1

                         Standard orientation:
 ---------------------------------------------------------------------
 Center     Atomic      Atomic             Coordinates (Angstroms)
 Number     Number       Type             X           Y           Z
 ---------------------------------------------------------------------
      1          6           0       -1.821018   -0.153264   -0.054469
      2          6           0       -0.609275    0.471051    0.035690
      3          6           0        0.581958   -0.365368   -0.008014
      4          6           0        1.822409    0.053515   -0.029152
      5          1           0       -2.788538    0.405618    0.033998
      6          1           0       -1.843819   -1.288453   -0.029860
      7          1           0       -0.495345    1.567382    0.195843
      8          1           0        0.507617   -1.408064    0.210010
      9          1           0        2.000918    1.194317   -0.153063
     10          1           0        2.774721   -0.506406    0.078748
 ---------------------------------------------------------------------

 SCF Done:  E(RB2PLYPD3) =  -155.681821767     A.U. after   11 cycles
 E2(B2PLYPD3) =    -0.2275641579D+00 E(B2PLYPD3) =    -0.15590938592505D+03

 The electronic state is 1-A.
 Alpha  occ. eigenvalues --  -10.63758 -10.63129 -10.62074 -10.61908  -0.93051
 Alpha  occ. eigenvalues --   -0.84443  -0.68885  -0.63679  -0.54347  -0.53135
 Alpha  occ. eigenvalues --   -0.46777  -0.43914  -0.40620  -0.37723  -0.27801
 Alpha virt. eigenvalues --    0.01658   0.07069   0.07085   0.07712   0.09190
 Alpha virt. eigenvalues --    0.11446   0.12423   0.14048   0.15596   0.16372
 Alpha virt. eigenvalues --    0.18660   0.19843   0.21228   0.22320   0.23902

 Mulliken charges:
               1
     1  C   -0.159720
     2  C   -0.056904
     3  C   -0.012634
     4  C   -0.169501
     5  H    0.082256
     6  H    0.065164
     7  H    0.067163
     8  H    0.059767
     9  H    0.037479
    10  H    0.086931
 Sum of Mulliken charges =   0.00000

 Dipole moment (field-independent basis, Debye):
    X=             -0.0250    Y=             -0.0213    Z=              0.3515  Tot=              0.3530
 Quadrupole moment (field-independent basis, Debye-Ang):
   XX=            -23.5376   YY=            -23.3804   ZZ=            -29.3973
   XY=             -0.2071   XZ=             -0.0210   YZ=             -0.1435

 1\1\GINC-NODE10\SP\RB2PLYPD3-FC\def2QZVP\C4H6\BOITTIER\26-Aug-2020\0\\
 #p B2PLYPD3/Def2QZVP\\butadiene\\0,1\C,0,-3.813084,0.260974,0.061117\C
 ,0,-2.732132,-0.571751,-0.004688\C,0,-1.410887,0.040193,0.014778\C,0,-
 0.264777,-0.591917,0.053479\H,0,-4.864911,-0.119339,-0.011631\H,0,-3.6
 3348,1.380634,-0.001204\H,0,-2.815697,-1.67555,-0.128045\H,0,-1.299046
 ,1.07165,-0.237936\H,0,-0.291864,-1.741526,0.215695\H,0,0.771683,-0.21
 4388,-0.070112\\Version=ES64L-G09RevD.01\State=1-A\HF=-155.6818218\MP2
 =-155.9093859\RMSD=8.547e-09\PG=C01 [X(C4H6)]\\@

 Normal termination of Gaussian 09 at Wed Aug 26 13:58:16 2020.
