 Gaussian 09, Revision D.01,
 Gaussian 09:  ES64L-G09RevD.01 24-Apr-2013

 --------------------
 #p B2PLYPD3/Def2QZVP
 --------------------

 ---------
 butadiene
 ---------
 Symbolic Z-matrix:
 Charge =  0 Multiplicity = 1

                         Standard orientation:
 ---------------------------------------------------------------------
 Center     Atomic      Atomic             Coordinates (Angstroms)
 Number     Number       Type             X           Y           Z
 ---------------------------------------------------------------------
      1          6           0       -1.822126    0.070037   -0.005998
      2          6           0       -0.601283   -0.351764   -0.072482
      3          6           0        0.594355    0.463420    0.003269
      4          6           0        1.806343   -0.158813    0.028190
      5          1           0       -2.688291   -0.515676    0.027118
      6          1           0       -1.942660    1.069638    0.327460
      7          1           0       -0.467764   -1.414290   -0.045528
      8          1           0        0.598344    1.601909   -0.135389
      9          1           0        1.919301   -1.284429    0.213293
     10          1           0        2.717337    0.405565   -0.104829
 ---------------------------------------------------------------------

 SCF Done:  E(RB2PLYPD3) =  -155.681471190     A.U. after   12 cycles
 E2(B2PLYPD3) =    -0.2263899451D+00 E(B2PLYPD3) =    -0.15590786113486D+03

 The electronic state is 1-A.
 Alpha  occ. eigenvalues --  -10.63661 -10.62639 -10.61697 -10.59846  -0.93389
 Alpha  occ. eigenvalues --   -0.85099  -0.69806  -0.63583  -0.55142  -0.53876
 Alpha  occ. eigenvalues --   -0.46390  -0.44628  -0.41448  -0.37977  -0.27591
 Alpha virt. eigenvalues --    0.01612   0.07087   0.07282   0.07838   0.09172
 Alpha virt. eigenvalues --    0.11670   0.12568   0.14711   0.15540   0.16692
 Alpha virt. eigenvalues --    0.18735   0.19659   0.21570   0.23027   0.23392

 Mulliken charges:
               1
     1  C   -0.163371
     2  C   -0.014337
     3  C   -0.048772
     4  C   -0.174235
     5  H    0.080538
     6  H    0.053222
     7  H    0.054103
     8  H    0.063424
     9  H    0.065618
    10  H    0.083809
 Sum of Mulliken charges =   0.00000

 Dipole moment (field-independent basis, Debye):
    X=              0.1031    Y=             -0.0637    Z=              0.2103  Tot=              0.2427
 Quadrupole moment (field-independent basis, Debye-Ang):
   XX=            -23.6473   YY=            -23.2657   ZZ=            -29.0449
   XY=              0.2716   XZ=             -0.7526   YZ=             -0.1739

 1\1\GINC-NODE24\SP\RB2PLYPD3-FC\def2QZVP\C4H6\BOITTIER\26-Aug-2020\0\\
 #p B2PLYPD3/Def2QZVP\\butadiene\\0,1\C,0,-3.831599,0.173787,0.028017\C
 ,0,-2.705179,-0.459755,-0.022931\C,0,-1.383703,0.13406,0.007028\C,0,-0
 .300121,-0.690579,0.057338\H,0,-4.786919,-0.247419,0.093958\H,0,-3.769
 696,1.193785,0.312091\H,0,-2.76066,-1.526621,0.056019\H,0,-1.180958,1.
 245955,-0.187863\H,0,-0.384881,-1.808252,0.297458\H,0,0.694251,-0.3030
 59,-0.107525\\Version=ES64L-G09RevD.01\State=1-A\HF=-155.6814712\MP2=-
 155.9078611\RMSD=3.594e-09\PG=C01 [X(C4H6)]\\@

 Normal termination of Gaussian 09 at Wed Aug 26 11:33:41 2020.
