 Gaussian 09, Revision D.01,
 Gaussian 09:  ES64L-G09RevD.01 24-Apr-2013

 --------------------
 #p B2PLYPD3/Def2QZVP
 --------------------

 ---------
 butadiene
 ---------
 Symbolic Z-matrix:
 Charge =  0 Multiplicity = 1

                         Standard orientation:
 ---------------------------------------------------------------------
 Center     Atomic      Atomic             Coordinates (Angstroms)
 Number     Number       Type             X           Y           Z
 ---------------------------------------------------------------------
      1          6           0        1.824685    0.098102   -0.049015
      2          6           0        0.592616   -0.380988    0.072486
      3          6           0       -0.600104    0.426347    0.025384
      4          6           0       -1.816191   -0.126754   -0.021578
      5          1           0        2.702865   -0.564519   -0.035231
      6          1           0        1.983635    1.152511   -0.029838
      7          1           0        0.501208   -1.443600    0.004005
      8          1           0       -0.499885    1.508389    0.033411
      9          1           0       -1.966944   -1.186512   -0.087684
     10          1           0       -2.726913    0.433488   -0.048325
 ---------------------------------------------------------------------

 SCF Done:  E(RB2PLYPD3) =  -155.698260982     A.U. after   11 cycles
 E2(B2PLYPD3) =    -0.2255253424D+00 E(B2PLYPD3) =    -0.15592378632415D+03

 The electronic state is 1-A.
 Alpha  occ. eigenvalues --  -10.62603 -10.61949 -10.61273 -10.61217  -0.93356
 Alpha  occ. eigenvalues --   -0.85018  -0.70163  -0.64488  -0.54690  -0.54302
 Alpha  occ. eigenvalues --   -0.46534  -0.45309  -0.41528  -0.38321  -0.27611
 Alpha virt. eigenvalues --    0.01778   0.07044   0.07501   0.08035   0.09518
 Alpha virt. eigenvalues --    0.11717   0.12588   0.14738   0.15685   0.16453
 Alpha virt. eigenvalues --    0.18823   0.19954   0.21969   0.22949   0.23957

 Mulliken charges:
               1
     1  C   -0.173450
     2  C   -0.025682
     3  C   -0.036369
     4  C   -0.170739
     5  H    0.080686
     6  H    0.063303
     7  H    0.059263
     8  H    0.058292
     9  H    0.063913
    10  H    0.080783
 Sum of Mulliken charges =   0.00000

 Dipole moment (field-independent basis, Debye):
    X=             -0.0538    Y=             -0.0087    Z=             -0.0790  Tot=              0.0960
 Quadrupole moment (field-independent basis, Debye-Ang):
   XX=            -23.4810   YY=            -23.0878   ZZ=            -29.1687
   XY=              0.0743   XZ=              0.1170   YZ=              0.1354

 1\1\GINC-NODE35\SP\RB2PLYPD3-FC\def2QZVP\C4H6\BOITTIER\26-Aug-2020\0\\
 #p B2PLYPD3/Def2QZVP\\butadiene\\0,1\C,0,-3.829642,0.209536,0.06709\C,
 0,-2.704104,-0.487595,-0.030156\C,0,-1.385685,0.093866,-0.013985\C,0,-
 0.288353,-0.665974,0.060189\H,0,-4.812509,-0.284719,0.078972\H,0,-3.79
 693,1.273567,0.002444\H,0,-2.804501,-1.545471,0.083896\H,0,-1.290185,1
 .174991,-0.068495\H,0,-0.329867,-1.731795,0.171924\H,0,0.70822,-0.2776
 29,0.065726\\Version=ES64L-G09RevD.01\State=1-A\HF=-155.698261\MP2=-15
 5.9237863\RMSD=5.301e-09\PG=C01 [X(C4H6)]\\@

 Normal termination of Gaussian 09 at Wed Aug 26 08:15:16 2020.
