 Gaussian 09, Revision D.01,
 Gaussian 09:  ES64L-G09RevD.01 24-Apr-2013

 --------------------
 #p B2PLYPD3/Def2QZVP
 --------------------

 ---------
 butadiene
 ---------
 Symbolic Z-matrix:
 Charge =  0 Multiplicity = 1

                         Standard orientation:
 ---------------------------------------------------------------------
 Center     Atomic      Atomic             Coordinates (Angstroms)
 Number     Number       Type             X           Y           Z
 ---------------------------------------------------------------------
      1          6           0       -1.829705   -0.125170    0.000488
      2          6           0       -0.603802    0.424138   -0.011113
      3          6           0        0.599779   -0.390531   -0.019682
      4          6           0        1.836379    0.094526    0.011520
      5          1           0       -2.718251    0.483996    0.068232
      6          1           0       -1.954425   -1.200170    0.031688
      7          1           0       -0.536335    1.506459    0.001956
      8          1           0        0.458217   -1.468524   -0.045194
      9          1           0        2.014096    1.160110   -0.036339
     10          1           0        2.720792   -0.499641    0.092379
 ---------------------------------------------------------------------

 SCF Done:  E(RB2PLYPD3) =  -155.700308802     A.U. after   11 cycles
 E2(B2PLYPD3) =    -0.2256817003D+00 E(B2PLYPD3) =    -0.15592599050229D+03

 The electronic state is 1-A.
 Alpha  occ. eigenvalues --  -10.62667 -10.62507 -10.61552 -10.61180  -0.93005
 Alpha  occ. eigenvalues --   -0.84918  -0.70094  -0.64219  -0.54787  -0.54023
 Alpha  occ. eigenvalues --   -0.46577  -0.45396  -0.41473  -0.38079  -0.27606
 Alpha virt. eigenvalues --    0.01769   0.07050   0.07432   0.08054   0.09487
 Alpha virt. eigenvalues --    0.11654   0.12579   0.14611   0.15916   0.16293
 Alpha virt. eigenvalues --    0.18796   0.20528   0.21684   0.22910   0.23761

 Mulliken charges:
               1
     1  C   -0.173960
     2  C   -0.033769
     3  C   -0.029050
     4  C   -0.173392
     5  H    0.084076
     6  H    0.064811
     7  H    0.058497
     8  H    0.055758
     9  H    0.061416
    10  H    0.085613
 Sum of Mulliken charges =   0.00000

 Dipole moment (field-independent basis, Debye):
    X=             -0.0076    Y=              0.0155    Z=              0.0842  Tot=              0.0859
 Quadrupole moment (field-independent basis, Debye-Ang):
   XX=            -23.4106   YY=            -23.1038   ZZ=            -29.2463
   XY=              0.0579   XZ=             -0.0847   YZ=             -0.0449

 1\1\GINC-NODE38\SP\RB2PLYPD3-FC\def2QZVP\C4H6\BOITTIER\26-Aug-2020\0\\
 #p B2PLYPD3/Def2QZVP\\butadiene\\0,1\C,0,-3.829884,0.235948,0.013376\C
 ,0,-2.722203,-0.523466,0.045715\C,0,-1.392117,0.062222,0.0314\C,0,-0.2
 62536,-0.637295,0.018934\H,0,-4.813403,-0.206002,-0.037195\H,0,-3.7600
 82,1.314347,-0.052469\H,0,-2.849783,-1.600218,0.067398\H,0,-1.338169,1
 .148391,0.022099\H,0,-0.278459,-1.715401,0.101267\H,0,0.713761,-0.2140
 93,-0.078553\\Version=ES64L-G09RevD.01\State=1-A\HF=-155.7003088\MP2=-
 155.9259905\RMSD=5.193e-09\PG=C01 [X(C4H6)]\\@

 Normal termination of Gaussian 09 at Wed Aug 26 16:19:27 2020.
