 Gaussian 09, Revision D.01,
 Gaussian 09:  ES64L-G09RevD.01 24-Apr-2013

 --------------------
 #p B2PLYPD3/Def2QZVP
 --------------------

 ---------
 butadiene
 ---------
 Symbolic Z-matrix:
 Charge =  0 Multiplicity = 1

                         Standard orientation:
 ---------------------------------------------------------------------
 Center     Atomic      Atomic             Coordinates (Angstroms)
 Number     Number       Type             X           Y           Z
 ---------------------------------------------------------------------
      1          6           0        1.836552   -0.097886   -0.021530
      2          6           0        0.600898    0.363024   -0.006217
      3          6           0       -0.610315   -0.406411    0.029886
      4          6           0       -1.841767    0.117440   -0.007402
      5          1           0        2.663555    0.562363    0.024580
      6          1           0        2.083955   -1.094006    0.068776
      7          1           0        0.517438    1.432876   -0.006954
      8          1           0       -0.451207   -1.481591   -0.045752
      9          1           0       -1.970490    1.203359    0.046474
     10          1           0       -2.755457   -0.479992   -0.055540
 ---------------------------------------------------------------------

 SCF Done:  E(RB2PLYPD3) =  -155.696848793     A.U. after   11 cycles
 E2(B2PLYPD3) =    -0.2251999078D+00 E(B2PLYPD3) =    -0.15592204870059D+03

 The electronic state is 1-A.
 Alpha  occ. eigenvalues --  -10.62585 -10.62021 -10.61881 -10.60335  -0.93387
 Alpha  occ. eigenvalues --   -0.85268  -0.70796  -0.64348  -0.54992  -0.54291
 Alpha  occ. eigenvalues --   -0.47065  -0.45609  -0.40933  -0.38428  -0.27764
 Alpha virt. eigenvalues --    0.01582   0.06994   0.07574   0.08062   0.09861
 Alpha virt. eigenvalues --    0.11680   0.12564   0.14928   0.15719   0.16319
 Alpha virt. eigenvalues --    0.18821   0.20319   0.21774   0.22857   0.24004

 Mulliken charges:
               1
     1  C   -0.173905
     2  C   -0.013928
     3  C   -0.040134
     4  C   -0.171042
     5  H    0.078505
     6  H    0.062544
     7  H    0.049280
     8  H    0.055876
     9  H    0.065304
    10  H    0.087502
 Sum of Mulliken charges =   0.00000

 Dipole moment (field-independent basis, Debye):
    X=             -0.0090    Y=             -0.0054    Z=              0.0560  Tot=              0.0570
 Quadrupole moment (field-independent basis, Debye-Ang):
   XX=            -23.1753   YY=            -23.2862   ZZ=            -29.0960
   XY=             -0.1722   XZ=              0.3651   YZ=              0.0985

 1\1\GINC-NODE38\SP\RB2PLYPD3-FC\def2QZVP\C4H6\BOITTIER\26-Aug-2020\0\\
 #p B2PLYPD3/Def2QZVP\\butadiene\\0,1\C,0,-3.843427,0.209542,0.001685\C
 ,0,-2.710938,-0.465738,0.032967\C,0,-1.380696,0.073505,0.039631\C,0,-0
 .264072,-0.664787,0.020675\H,0,-4.775472,-0.288676,0.072827\H,0,-3.906
 657,1.236546,0.055367\H,0,-2.821577,-1.532421,0.071652\H,0,-1.344077,1
 .156302,-0.07551\H,0,-0.332676,-1.753449,0.114491\H,0,0.741908,-0.2440
 18,-0.050247\\Version=ES64L-G09RevD.01\State=1-A\HF=-155.6968488\MP2=-
 155.9220487\RMSD=6.564e-09\PG=C01 [X(C4H6)]\\@

 Normal termination of Gaussian 09 at Wed Aug 26 09:06:58 2020.
