 Gaussian 09, Revision D.01,
 Gaussian 09:  ES64L-G09RevD.01 24-Apr-2013

 --------------------
 #p B2PLYPD3/Def2QZVP
 --------------------

 ---------
 butadiene
 ---------
 Symbolic Z-matrix:
 Charge =  0 Multiplicity = 1

                         Standard orientation:
 ---------------------------------------------------------------------
 Center     Atomic      Atomic             Coordinates (Angstroms)
 Number     Number       Type             X           Y           Z
 ---------------------------------------------------------------------
      1          6           0        1.854351    0.109722    0.007931
      2          6           0        0.613473   -0.398850   -0.041035
      3          6           0       -0.606642    0.381875   -0.028028
      4          6           0       -1.852620   -0.106857    0.027988
      5          1           0        2.796106   -0.483807    0.123982
      6          1           0        1.957181    1.207713    0.074447
      7          1           0        0.498785   -1.502778   -0.001783
      8          1           0       -0.492518    1.453709   -0.091123
      9          1           0       -2.093926   -1.122492   -0.017475
     10          1           0       -2.716999    0.532320    0.110810
 ---------------------------------------------------------------------

 SCF Done:  E(RB2PLYPD3) =  -155.695866862     A.U. after   11 cycles
 E2(B2PLYPD3) =    -0.2262725597D+00 E(B2PLYPD3) =    -0.15592213942198D+03

 The electronic state is 1-A.
 Alpha  occ. eigenvalues --  -10.63013 -10.62716 -10.62378 -10.61263  -0.92872
 Alpha  occ. eigenvalues --   -0.84815  -0.70405  -0.63946  -0.54606  -0.53793
 Alpha  occ. eigenvalues --   -0.46952  -0.45212  -0.40905  -0.38052  -0.27640
 Alpha virt. eigenvalues --    0.01375   0.06932   0.07488   0.07923   0.09616
 Alpha virt. eigenvalues --    0.11549   0.12565   0.14547   0.15756   0.16348
 Alpha virt. eigenvalues --    0.18858   0.20377   0.21705   0.22755   0.23492

 Mulliken charges:
               1
     1  C   -0.166049
     2  C   -0.031549
     3  C   -0.030682
     4  C   -0.174357
     5  H    0.087163
     6  H    0.057535
     7  H    0.051564
     8  H    0.056353
     9  H    0.069005
    10  H    0.081018
 Sum of Mulliken charges =   0.00000

 Dipole moment (field-independent basis, Debye):
    X=             -0.0443    Y=             -0.0221    Z=              0.1321  Tot=              0.1411
 Quadrupole moment (field-independent basis, Debye-Ang):
   XX=            -23.1142   YY=            -23.3724   ZZ=            -29.3018
   XY=              0.1244   XZ=              0.3093   YZ=             -0.0082

 1\1\GINC-NODE26\SP\RB2PLYPD3-FC\def2QZVP\C4H6\BOITTIER\26-Aug-2020\0\\
 #p B2PLYPD3/Def2QZVP\\butadiene\\0,1\C,0,-3.856331,0.222616,0.002101\C
 ,0,-2.725275,-0.496238,0.071247\C,0,-1.386049,0.055041,0.040454\C,0,-0
 .246565,-0.648317,0.004103\H,0,-4.888545,-0.197704,-0.100433\H,0,-3.76
 2863,1.318976,-0.097101\H,0,-2.808237,-1.60368,0.064953\H,0,-1.308199,
 1.13152,0.071527\H,0,-0.189168,-1.688841,0.080426\H,0,0.717386,-0.1752
 76,-0.093818\\Version=ES64L-G09RevD.01\State=1-A\HF=-155.6958669\MP2=-
 155.9221394\RMSD=6.267e-09\PG=C01 [X(C4H6)]\\@

 Normal termination of Gaussian 09 at Wed Aug 26 10:37:14 2020.
