 Gaussian 09, Revision D.01,
 Gaussian 09:  ES64L-G09RevD.01 24-Apr-2013

 --------------------
 #p B2PLYPD3/Def2QZVP
 --------------------

 ---------
 butadiene
 ---------
 Symbolic Z-matrix:
 Charge =  0 Multiplicity = 1

                         Standard orientation:
 ---------------------------------------------------------------------
 Center     Atomic      Atomic             Coordinates (Angstroms)
 Number     Number       Type             X           Y           Z
 ---------------------------------------------------------------------
      1          6           0       -1.829055    0.122698    0.086838
      2          6           0       -0.586321   -0.446611   -0.044463
      3          6           0        0.611178    0.387828   -0.102764
      4          6           0        1.830556   -0.085998    0.058164
      5          1           0       -2.782095   -0.426225   -0.071012
      6          1           0       -2.031845    1.276562    0.077663
      7          1           0       -0.551569   -1.504743   -0.187845
      8          1           0        0.545392    1.516482   -0.025932
      9          1           0        1.886873   -1.208372    0.232484
     10          1           0        2.775091    0.478799   -0.012006
 ---------------------------------------------------------------------

 SCF Done:  E(RB2PLYPD3) =  -155.678340461     A.U. after   12 cycles
 E2(B2PLYPD3) =    -0.2281474556D+00 E(B2PLYPD3) =    -0.15590648791664D+03

 The electronic state is 1-A.
 Alpha  occ. eigenvalues --  -10.63549 -10.63258 -10.62936 -10.62073  -0.92774
 Alpha  occ. eigenvalues --   -0.84309  -0.68995  -0.63419  -0.54307  -0.53192
 Alpha  occ. eigenvalues --   -0.46624  -0.43284  -0.41051  -0.37677  -0.27601
 Alpha virt. eigenvalues --    0.01255   0.06948   0.07208   0.07691   0.08973
 Alpha virt. eigenvalues --    0.11434   0.12477   0.13927   0.15312   0.16612
 Alpha virt. eigenvalues --    0.18887   0.19795   0.21217   0.22315   0.23573

 Mulliken charges:
               1
     1  C   -0.159978
     2  C   -0.056195
     3  C   -0.023710
     4  C   -0.157546
     5  H    0.074477
     6  H    0.053829
     7  H    0.073839
     8  H    0.056837
     9  H    0.046723
    10  H    0.091725
 Sum of Mulliken charges =   0.00000

 Dipole moment (field-independent basis, Debye):
    X=              0.0453    Y=              0.0050    Z=             -0.1148  Tot=              0.1235
 Quadrupole moment (field-independent basis, Debye-Ang):
   XX=            -23.4474   YY=            -23.3691   ZZ=            -29.5041
   XY=              0.2212   XZ=              0.5995   YZ=              0.1428

 1\1\GINC-NODE24\SP\RB2PLYPD3-FC\def2QZVP\C4H6\BOITTIER\26-Aug-2020\0\\
 #p B2PLYPD3/Def2QZVP\\butadiene\\0,1\C,0,-3.833515,0.231618,0.097236\C
 ,0,-2.710079,-0.549807,-0.016816\C,0,-1.384113,0.059593,-0.081136\C,0,
 -0.267835,-0.618708,0.095286\H,0,-4.867815,-0.143541,-0.057677\H,0,-3.
 829819,1.402829,0.06789\H,0,-2.861801,-1.599834,-0.14264\H,0,-1.250289
 ,1.183348,-0.023202\H,0,-0.410724,-1.730288,0.288303\H,0,0.761661,-0.2
 30356,0.0219\\Version=ES64L-G09RevD.01\State=1-A\HF=-155.6783405\MP2=-
 155.9064879\RMSD=3.200e-09\PG=C01 [X(C4H6)]\\@

 Normal termination of Gaussian 09 at Wed Aug 26 13:25:56 2020.
