 Gaussian 09, Revision D.01,
 Gaussian 09:  ES64L-G09RevD.01 24-Apr-2013

 --------------------
 #p B2PLYPD3/Def2QZVP
 --------------------

 ---------
 butadiene
 ---------
 Symbolic Z-matrix:
 Charge =  0 Multiplicity = 1

                         Standard orientation:
 ---------------------------------------------------------------------
 Center     Atomic      Atomic             Coordinates (Angstroms)
 Number     Number       Type             X           Y           Z
 ---------------------------------------------------------------------
      1          6           0       -1.827930   -0.111675    0.014221
      2          6           0       -0.594230    0.413096   -0.016020
      3          6           0        0.598155   -0.406787   -0.024075
      4          6           0        1.834923    0.107375    0.021872
      5          1           0       -2.674156    0.527303    0.041315
      6          1           0       -2.011026   -1.186091    0.028628
      7          1           0       -0.481585    1.480465   -0.030911
      8          1           0        0.415816   -1.471956   -0.056094
      9          1           0        1.989462    1.195968   -0.014451
     10          1           0        2.695976   -0.557736    0.055525
 ---------------------------------------------------------------------

 SCF Done:  E(RB2PLYPD3) =  -155.699985310     A.U. after   11 cycles
 E2(B2PLYPD3) =    -0.2259431685D+00 E(B2PLYPD3) =    -0.15592592847883D+03

 The electronic state is 1-A.
 Alpha  occ. eigenvalues --  -10.62450 -10.62308 -10.61806 -10.61350  -0.93068
 Alpha  occ. eigenvalues --   -0.84691  -0.70099  -0.64251  -0.54438  -0.53912
 Alpha  occ. eigenvalues --   -0.46392  -0.45837  -0.41477  -0.38074  -0.27462
 Alpha virt. eigenvalues --    0.01707   0.07035   0.07339   0.08121   0.09476
 Alpha virt. eigenvalues --    0.11750   0.12337   0.14768   0.15910   0.16015
 Alpha virt. eigenvalues --    0.18672   0.20572   0.21421   0.22999   0.23994

 Mulliken charges:
               1
     1  C   -0.180304
     2  C   -0.027683
     3  C   -0.031943
     4  C   -0.178704
     5  H    0.084608
     6  H    0.065285
     7  H    0.056348
     8  H    0.057104
     9  H    0.068963
    10  H    0.086326
 Sum of Mulliken charges =   0.00000

 Dipole moment (field-independent basis, Debye):
    X=             -0.0350    Y=              0.0030    Z=             -0.0069  Tot=              0.0358
 Quadrupole moment (field-independent basis, Debye-Ang):
   XX=            -23.7706   YY=            -22.9216   ZZ=            -29.3060
   XY=              0.1764   XZ=             -0.0520   YZ=             -0.0401

 1\1\GINC-NODE36\SP\RB2PLYPD3-FC\def2QZVP\C4H6\BOITTIER\26-Aug-2020\0\\
 #p B2PLYPD3/Def2QZVP\\butadiene\\0,1\C,0,-3.829623,0.230698,0.002498\C
 ,0,-2.713343,-0.510774,0.052036\C,0,-1.39052,0.07572,0.037236\C,0,-0.2
 69537,-0.658269,0.010298\H,0,-4.778994,-0.24231,-0.006579\H,0,-3.81210
 2,1.319481,-0.045942\H,0,-2.798816,-1.579664,0.100574\H,0,-1.373795,1.
 156726,0.03549\H,0,-0.317659,-1.755046,0.08102\H,0,0.699004,-0.164207,
 -0.042125\\Version=ES64L-G09RevD.01\State=1-A\HF=-155.6999853\MP2=-155
 .9259285\RMSD=3.044e-09\PG=C01 [X(C4H6)]\\@

 Normal termination of Gaussian 09 at Wed Aug 26 18:56:41 2020.
