 Gaussian 09, Revision D.01,
 Gaussian 09:  ES64L-G09RevD.01 24-Apr-2013

 --------------------
 #p B2PLYPD3/Def2QZVP
 --------------------

 ---------
 butadiene
 ---------
 Symbolic Z-matrix:
 Charge =  0 Multiplicity = 1

                         Standard orientation:
 ---------------------------------------------------------------------
 Center     Atomic      Atomic             Coordinates (Angstroms)
 Number     Number       Type             X           Y           Z
 ---------------------------------------------------------------------
      1          6           0       -1.859963    0.094140    0.007006
      2          6           0       -0.638527   -0.369852   -0.011217
      3          6           0        0.611218    0.435361    0.030911
      4          6           0        1.848306   -0.144554   -0.043259
      5          1           0       -2.618205   -0.687189   -0.007827
      6          1           0       -2.146586    1.130831   -0.230990
      7          1           0       -0.347749   -1.363058    0.241123
      8          1           0        0.624517    1.500424    0.176366
      9          1           0        2.096234   -1.172309   -0.127000
     10          1           0        2.625587    0.500730    0.047679
 ---------------------------------------------------------------------

 SCF Done:  E(RB2PLYPD3) =  -155.682649690     A.U. after   11 cycles
 E2(B2PLYPD3) =    -0.2259559560D+00 E(B2PLYPD3) =    -0.15590860564619D+03

 The electronic state is 1-A.
 Alpha  occ. eigenvalues --  -10.62874 -10.62188 -10.61453 -10.60883  -0.92632
 Alpha  occ. eigenvalues --   -0.85309  -0.70602  -0.64191  -0.54399  -0.54109
 Alpha  occ. eigenvalues --   -0.47085  -0.46338  -0.40432  -0.37266  -0.27987
 Alpha virt. eigenvalues --    0.01694   0.07134   0.07618   0.08005   0.09152
 Alpha virt. eigenvalues --    0.11467   0.12404   0.15034   0.15212   0.16255
 Alpha virt. eigenvalues --    0.18822   0.19738   0.21519   0.23160   0.23627

 Mulliken charges:
               1
     1  C   -0.172321
     2  C   -0.034735
     3  C   -0.047771
     4  C   -0.181859
     5  H    0.076996
     6  H    0.080056
     7  H    0.069479
     8  H    0.059476
     9  H    0.069364
    10  H    0.081316
 Sum of Mulliken charges =   0.00000

 Dipole moment (field-independent basis, Debye):
    X=              0.0898    Y=              0.0030    Z=              0.0693  Tot=              0.1135
 Quadrupole moment (field-independent basis, Debye-Ang):
   XX=            -23.7424   YY=            -23.0021   ZZ=            -29.0727
   XY=             -0.4825   XZ=              0.4432   YZ=             -0.1448

 1\1\GINC-NODE21\SP\RB2PLYPD3-FC\def2QZVP\C4H6\BOITTIER\26-Aug-2020\0\\
 #p B2PLYPD3/Def2QZVP\\butadiene\\0,1\C,0,-3.860194,0.212605,0.020242\C
 ,0,-2.742858,-0.464928,0.026342\C,0,-1.368044,0.102055,0.046857\C,0,-0
 .256317,-0.6943,0.001351\H,0,-4.747279,-0.418764,0.029142\H,0,-3.95467
 8,1.27456,-0.256974\H,0,-2.636413,-1.484368,0.316339\H,0,-1.16221,1.15
 1781,0.153636\H,0,-0.19845,-1.752317,-0.043513\H,0,0.624924,-0.197281,
 0.073559\\Version=ES64L-G09RevD.01\State=1-A\HF=-155.6826497\MP2=-155.
 9086056\RMSD=9.179e-09\PG=C01 [X(C4H6)]\\@

 Normal termination of Gaussian 09 at Wed Aug 26 13:40:26 2020.
