 Gaussian 09, Revision D.01,
 Gaussian 09:  ES64L-G09RevD.01 24-Apr-2013

 --------------------
 #p B2PLYPD3/Def2QZVP
 --------------------

 ---------
 butadiene
 ---------
 Symbolic Z-matrix:
 Charge =  0 Multiplicity = 1

                         Standard orientation:
 ---------------------------------------------------------------------
 Center     Atomic      Atomic             Coordinates (Angstroms)
 Number     Number       Type             X           Y           Z
 ---------------------------------------------------------------------
      1          6           0       -1.847553    0.100387   -0.022022
      2          6           0       -0.610480   -0.381158    0.011943
      3          6           0        0.604359    0.403563    0.010798
      4          6           0        1.843945   -0.123567   -0.012517
      5          1           0       -2.688722   -0.551934   -0.027442
      6          1           0       -2.002066    1.150046    0.040315
      7          1           0       -0.459403   -1.447951    0.073160
      8          1           0        0.467763    1.486009    0.016072
      9          1           0        2.034121   -1.171520   -0.024890
     10          1           0        2.706682    0.539997   -0.006427
 ---------------------------------------------------------------------

 SCF Done:  E(RB2PLYPD3) =  -155.700096197     A.U. after   11 cycles
 E2(B2PLYPD3) =    -0.2255606276D+00 E(B2PLYPD3) =    -0.15592565682490D+03

 The electronic state is 1-A.
 Alpha  occ. eigenvalues --  -10.62713 -10.62147 -10.61680 -10.60994  -0.93061
 Alpha  occ. eigenvalues --   -0.85005  -0.70578  -0.64165  -0.54761  -0.54092
 Alpha  occ. eigenvalues --   -0.46867  -0.46007  -0.41173  -0.38058  -0.27622
 Alpha virt. eigenvalues --    0.01558   0.06994   0.07494   0.08090   0.09731
 Alpha virt. eigenvalues --    0.11730   0.12417   0.14885   0.15791   0.16127
 Alpha virt. eigenvalues --    0.18795   0.20522   0.21693   0.22860   0.23869

 Mulliken charges:
               1
     1  C   -0.180597
     2  C   -0.021839
     3  C   -0.033230
     4  C   -0.179180
     5  H    0.089034
     6  H    0.066230
     7  H    0.050931
     8  H    0.052226
     9  H    0.072070
    10  H    0.084354
 Sum of Mulliken charges =   0.00000

 Dipole moment (field-independent basis, Debye):
    X=              0.0136    Y=             -0.0200    Z=              0.0814  Tot=              0.0849
 Quadrupole moment (field-independent basis, Debye-Ang):
   XX=            -23.4714   YY=            -23.0976   ZZ=            -29.2243
   XY=             -0.1846   XZ=             -0.1062   YZ=              0.0332

 1\1\GINC-NODE12\SP\RB2PLYPD3-FC\def2QZVP\C4H6\BOITTIER\26-Aug-2020\0\\
 #p B2PLYPD3/Def2QZVP\\butadiene\\0,1\C,0,-3.850367,0.216393,-0.000119\
 C,0,-2.720237,-0.479184,0.048533\C,0,-1.383854,0.073269,0.026227\C,0,-
 0.259713,-0.669184,0.018915\H,0,-4.795365,-0.273448,0.0122\H,0,-3.8128
 58,1.278034,0.032347\H,0,-2.763688,-1.553594,0.140054\H,0,-1.323054,1.
 162319,0.000741\H,0,-0.261623,-1.734181,0.036375\H,0,0.708529,-0.17216
 ,0.006966\\Version=ES64L-G09RevD.01\State=1-A\HF=-155.7000962\MP2=-155
 .9256568\RMSD=5.636e-09\PG=C01 [X(C4H6)]\\@

 Normal termination of Gaussian 09 at Wed Aug 26 21:40:33 2020.
