 Gaussian 09, Revision D.01,
 Gaussian 09:  ES64L-G09RevD.01 24-Apr-2013

 --------------------
 #p B2PLYPD3/Def2QZVP
 --------------------

 ---------
 butadiene
 ---------
 Symbolic Z-matrix:
 Charge =  0 Multiplicity = 1

                         Standard orientation:
 ---------------------------------------------------------------------
 Center     Atomic      Atomic             Coordinates (Angstroms)
 Number     Number       Type             X           Y           Z
 ---------------------------------------------------------------------
      1          6           0       -1.835999   -0.119150    0.005669
      2          6           0       -0.607754    0.415832   -0.017694
      3          6           0        0.607831   -0.383773   -0.015217
      4          6           0        1.839457    0.095481    0.015854
      5          1           0       -2.715497    0.493293    0.069641
      6          1           0       -2.011932   -1.197205    0.041606
      7          1           0       -0.495020    1.486475   -0.072845
      8          1           0        0.468056   -1.464991   -0.035181
      9          1           0        2.021044    1.175435    0.064959
     10          1           0        2.712141   -0.543348    0.000146
 ---------------------------------------------------------------------

 SCF Done:  E(RB2PLYPD3) =  -155.700949107     A.U. after   11 cycles
 E2(B2PLYPD3) =    -0.2255324835D+00 E(B2PLYPD3) =    -0.15592648159068D+03

 The electronic state is 1-A.
 Alpha  occ. eigenvalues --  -10.62619 -10.62334 -10.61657 -10.61410  -0.93009
 Alpha  occ. eigenvalues --   -0.85000  -0.70112  -0.64009  -0.54746  -0.53829
 Alpha  occ. eigenvalues --   -0.46937  -0.45322  -0.40999  -0.38156  -0.27795
 Alpha virt. eigenvalues --    0.01814   0.07015   0.07401   0.08062   0.09649
 Alpha virt. eigenvalues --    0.11644   0.12436   0.14678   0.15818   0.16243
 Alpha virt. eigenvalues --    0.18828   0.20385   0.21752   0.22731   0.23695

 Mulliken charges:
               1
     1  C   -0.171967
     2  C   -0.037692
     3  C   -0.024602
     4  C   -0.174291
     5  H    0.083993
     6  H    0.064785
     7  H    0.058924
     8  H    0.052530
     9  H    0.061428
    10  H    0.086893
 Sum of Mulliken charges =   0.00000

 Dipole moment (field-independent basis, Debye):
    X=             -0.0267    Y=              0.0017    Z=              0.0424  Tot=              0.0502
 Quadrupole moment (field-independent basis, Debye-Ang):
   XX=            -23.3923   YY=            -23.1396   ZZ=            -29.2431
   XY=              0.1383   XZ=             -0.1512   YZ=              0.0201

 1\1\GINC-NODE39\SP\RB2PLYPD3-FC\def2QZVP\C4H6\BOITTIER\26-Aug-2020\0\\
 #p B2PLYPD3/Def2QZVP\\butadiene\\0,1\C,0,-3.836751,0.233468,0.009172\C
 ,0,-2.724952,-0.513115,0.052247\C,0,-1.385194,0.053925,0.029134\C,0,-0
 .260169,-0.640123,0.016126\H,0,-4.812372,-0.212128,-0.038814\H,0,-3.81
 5642,1.32399,-0.05983\H,0,-2.80684,-1.584382,0.140048\H,0,-1.327804,1.
 142733,0.016016\H,0,-0.276279,-1.736103,0.000199\H,0,0.713379,-0.16881
 7,0.015053\\Version=ES64L-G09RevD.01\State=1-A\HF=-155.7009491\MP2=-15
 5.9264816\RMSD=5.284e-09\PG=C01 [X(C4H6)]\\@

 Normal termination of Gaussian 09 at Wed Aug 26 22:10:37 2020.
