 Gaussian 09, Revision D.01,
 Gaussian 09:  ES64L-G09RevD.01 24-Apr-2013

 --------------------
 #p B2PLYPD3/Def2QZVP
 --------------------

 ---------
 butadiene
 ---------
 Symbolic Z-matrix:
 Charge =  0 Multiplicity = 1

                         Standard orientation:
 ---------------------------------------------------------------------
 Center     Atomic      Atomic             Coordinates (Angstroms)
 Number     Number       Type             X           Y           Z
 ---------------------------------------------------------------------
      1          6           0       -1.791394   -0.179887   -0.018070
      2          6           0       -0.618840    0.447870    0.016524
      3          6           0        0.584089   -0.344410   -0.015133
      4          6           0        1.828523    0.081575   -0.047719
      5          1           0       -2.663058    0.528056    0.058032
      6          1           0       -1.925714   -1.218643   -0.068250
      7          1           0       -0.533489    1.580475    0.039697
      8          1           0        0.499104   -1.436374    0.189445
      9          1           0        1.984696    1.082078    0.071940
     10          1           0        2.624198   -0.566479    0.095519
 ---------------------------------------------------------------------

 SCF Done:  E(RB2PLYPD3) =  -155.683203809     A.U. after   11 cycles
 E2(B2PLYPD3) =    -0.2256982948D+00 E(B2PLYPD3) =    -0.15590890210346D+03

 The electronic state is 1-A.
 Alpha  occ. eigenvalues --  -10.63013 -10.61969 -10.61729 -10.59499  -0.93526
 Alpha  occ. eigenvalues --   -0.85612  -0.70111  -0.63784  -0.55328  -0.54077
 Alpha  occ. eigenvalues --   -0.47522  -0.44510  -0.41138  -0.38024  -0.27838
 Alpha virt. eigenvalues --    0.01910   0.07002   0.07176   0.08003   0.09515
 Alpha virt. eigenvalues --    0.11893   0.12403   0.14995   0.15507   0.16252
 Alpha virt. eigenvalues --    0.18550   0.19931   0.21851   0.22997   0.24392

 Mulliken charges:
               1
     1  C   -0.170956
     2  C   -0.040880
     3  C   -0.006143
     4  C   -0.177774
     5  H    0.074821
     6  H    0.086450
     7  H    0.054523
     8  H    0.043352
     9  H    0.056513
    10  H    0.080094
 Sum of Mulliken charges =   0.00000

 Dipole moment (field-independent basis, Debye):
    X=             -0.1128    Y=              0.0040    Z=              0.3498  Tot=              0.3675
 Quadrupole moment (field-independent basis, Debye-Ang):
   XX=            -24.2006   YY=            -22.8544   ZZ=            -29.0488
   XY=              0.0381   XZ=              0.5601   YZ=             -0.0272

 1\1\GINC-NODE23\SP\RB2PLYPD3-FC\def2QZVP\C4H6\BOITTIER\26-Aug-2020\0\\
 #p B2PLYPD3/Def2QZVP\\butadiene\\0,1\C,0,-3.783478,0.276956,0.033298\C
 ,0,-2.739595,-0.547767,0.01602\C,0,-1.416085,0.021494,0.019528\C,0,-0.
 2655,-0.615234,0.062782\H,0,-4.766425,-0.268888,-0.018104\H,0,-3.73302
 3,1.324204,0.050587\H,0,-2.854513,-1.67792,0.028837\H,0,-1.309743,1.10
 4526,-0.219625\H,0,-0.288279,-1.630837,-0.025224\H,0,0.630393,-0.12177
 8,-0.102952\\Version=ES64L-G09RevD.01\State=1-A\HF=-155.6832038\MP2=-1
 55.9089021\RMSD=9.826e-09\PG=C01 [X(C4H6)]\\@

 Normal termination of Gaussian 09 at Wed Aug 26 15:00:22 2020.
