 Gaussian 09, Revision D.01,
 Gaussian 09:  ES64L-G09RevD.01 24-Apr-2013

 --------------------
 #p B2PLYPD3/Def2QZVP
 --------------------

 ---------
 butadiene
 ---------
 Symbolic Z-matrix:
 Charge =  0 Multiplicity = 1

                         Standard orientation:
 ---------------------------------------------------------------------
 Center     Atomic      Atomic             Coordinates (Angstroms)
 Number     Number       Type             X           Y           Z
 ---------------------------------------------------------------------
      1          6           0       -1.871404    0.073247    0.074094
      2          6           0       -0.608144   -0.354335   -0.093989
      3          6           0        0.621182    0.465025   -0.067567
      4          6           0        1.851842   -0.148672    0.022161
      5          1           0       -2.780393   -0.638685    0.140294
      6          1           0       -2.083360    1.134870    0.110129
      7          1           0       -0.536186   -1.401441   -0.125562
      8          1           0        0.525792    1.582303   -0.154054
      9          1           0        2.066309   -1.259589    0.090676
     10          1           0        2.846979    0.370954    0.330323
 ---------------------------------------------------------------------

 SCF Done:  E(RB2PLYPD3) =  -155.676213431     A.U. after   11 cycles
 E2(B2PLYPD3) =    -0.2286091543D+00 E(B2PLYPD3) =    -0.15590482258511D+03

 The electronic state is 1-A.
 Alpha  occ. eigenvalues --  -10.64758 -10.63931 -10.62641 -10.62348  -0.92140
 Alpha  occ. eigenvalues --   -0.83915  -0.69220  -0.64087  -0.53877  -0.52770
 Alpha  occ. eigenvalues --   -0.46684  -0.43805  -0.40897  -0.37370  -0.27460
 Alpha virt. eigenvalues --    0.01027   0.06760   0.07229   0.07624   0.09012
 Alpha virt. eigenvalues --    0.11275   0.12345   0.13940   0.15712   0.16528
 Alpha virt. eigenvalues --    0.19054   0.19768   0.21381   0.22536   0.23337

 Mulliken charges:
               1
     1  C   -0.170872
     2  C   -0.029456
     3  C   -0.053777
     4  C   -0.154831
     5  H    0.078516
     6  H    0.061434
     7  H    0.067036
     8  H    0.072159
     9  H    0.062095
    10  H    0.067695
 Sum of Mulliken charges =   0.00000

 Dipole moment (field-independent basis, Debye):
    X=              0.0489    Y=             -0.0479    Z=              0.2184  Tot=              0.2289
 Quadrupole moment (field-independent basis, Debye-Ang):
   XX=            -23.5323   YY=            -23.2661   ZZ=            -29.5711
   XY=             -0.3307   XZ=              0.5260   YZ=             -0.0453

 1\1\GINC-NODE26\SP\RB2PLYPD3-FC\def2QZVP\C4H6\BOITTIER\26-Aug-2020\0\\
 #p B2PLYPD3/Def2QZVP\\butadiene\\0,1\C,0,-3.881823,0.185656,0.090299\C
 ,0,-2.713455,-0.464626,-0.047376\C,0,-1.359583,0.127189,-0.056077\C,0,
 -0.255123,-0.686847,0.073209\H,0,-4.901221,-0.351742,0.187885\H,0,-3.9
 04514,1.268394,0.069581\H,0,-2.826044,-1.508357,-0.023832\H,0,-1.25813
 2,1.237819,-0.201324\H,0,-0.238277,-1.813006,0.200919\H,0,0.816545,-0.
 333959,0.360037\\Version=ES64L-G09RevD.01\State=1-A\HF=-155.6762134\MP
 2=-155.9048226\RMSD=7.913e-09\PG=C01 [X(C4H6)]\\@

 Normal termination of Gaussian 09 at Wed Aug 26 11:55:14 2020.
