 Gaussian 09, Revision D.01,
 Gaussian 09:  ES64L-G09RevD.01 24-Apr-2013

 --------------------
 #p B2PLYPD3/Def2QZVP
 --------------------

 ---------
 butadiene
 ---------
 Symbolic Z-matrix:
 Charge =  0 Multiplicity = 1

                         Standard orientation:
 ---------------------------------------------------------------------
 Center     Atomic      Atomic             Coordinates (Angstroms)
 Number     Number       Type             X           Y           Z
 ---------------------------------------------------------------------
      1          6           0        1.880810    0.066367    0.018842
      2          6           0        0.613961   -0.362173   -0.076246
      3          6           0       -0.592530    0.425930   -0.048753
      4          6           0       -1.862549   -0.112622    0.044627
      5          1           0        2.731100   -0.553273    0.089732
      6          1           0        2.118113    1.089716    0.284205
      7          1           0        0.339965   -1.413074   -0.153347
      8          1           0       -0.518600    1.570014   -0.081746
      9          1           0       -2.083652   -1.236981    0.279226
     10          1           0       -2.825078    0.438583   -0.048898
 ---------------------------------------------------------------------

 SCF Done:  E(RB2PLYPD3) =  -155.680700085     A.U. after   12 cycles
 E2(B2PLYPD3) =    -0.2283625217D+00 E(B2PLYPD3) =    -0.15590906260639D+03

 The electronic state is 1-A.
 Alpha  occ. eigenvalues --  -10.64209 -10.63817 -10.63055 -10.61639  -0.92558
 Alpha  occ. eigenvalues --   -0.84011  -0.70857  -0.63157  -0.55183  -0.52517
 Alpha  occ. eigenvalues --   -0.47267  -0.44395  -0.40447  -0.37778  -0.27273
 Alpha virt. eigenvalues --    0.00442   0.06899   0.07185   0.07921   0.09397
 Alpha virt. eigenvalues --    0.11295   0.12405   0.14510   0.15920   0.16310
 Alpha virt. eigenvalues --    0.19047   0.20105   0.21632   0.22134   0.22478

 Mulliken charges:
               1
     1  C   -0.161711
     2  C   -0.028307
     3  C   -0.036267
     4  C   -0.170381
     5  H    0.084979
     6  H    0.061300
     7  H    0.057667
     8  H    0.054203
     9  H    0.052687
    10  H    0.085828
 Sum of Mulliken charges =   0.00000

 Dipole moment (field-independent basis, Debye):
    X=             -0.0524    Y=             -0.0125    Z=              0.2543  Tot=              0.2600
 Quadrupole moment (field-independent basis, Debye-Ang):
   XX=            -22.8384   YY=            -23.7623   ZZ=            -29.4261
   XY=              0.3520   XZ=              0.4907   YZ=             -0.0273

 1\1\GINC-NODE38\SP\RB2PLYPD3-FC\def2QZVP\C4H6\BOITTIER\26-Aug-2020\0\\
 #p B2PLYPD3/Def2QZVP\\butadiene\\0,1\C,0,-3.883805,0.197391,-0.01165\C
 ,0,-2.718919,-0.45727,0.098135\C,0,-1.386886,0.092228,0.06317\C,0,-0.2
 38941,-0.674619,-0.013486\H,0,-4.834322,-0.254645,-0.076104\H,0,-3.926
 155,1.241875,-0.296664\H,0,-2.645243,-1.539157,0.195619\H,0,-1.246891,
 1.230533,0.075194\H,0,-0.230238,-1.824665,-0.22662\H,0,0.809086,-0.310
 25,0.075451\\Version=ES64L-G09RevD.01\State=1-A\HF=-155.6807001\MP2=-1
 55.9090626\RMSD=4.316e-09\PG=C01 [X(C4H6)]\\@

 Normal termination of Gaussian 09 at Wed Aug 26 12:59:00 2020.
