 Gaussian 09, Revision D.01,
 Gaussian 09:  ES64L-G09RevD.01 24-Apr-2013

 --------------------
 #p B2PLYPD3/Def2QZVP
 --------------------

 ---------
 butadiene
 ---------
 Symbolic Z-matrix:
 Charge =  0 Multiplicity = 1

                         Standard orientation:
 ---------------------------------------------------------------------
 Center     Atomic      Atomic             Coordinates (Angstroms)
 Number     Number       Type             X           Y           Z
 ---------------------------------------------------------------------
      1          6           0        1.832944    0.099427   -0.025718
      2          6           0        0.602929   -0.391003    0.011147
      3          6           0       -0.597767    0.416667    0.009801
      4          6           0       -1.829049   -0.113431   -0.011846
      5          1           0        2.714554   -0.533132    0.055106
      6          1           0        2.011270    1.162356   -0.057472
      7          1           0        0.427411   -1.458352    0.064839
      8          1           0       -0.508205    1.490926    0.100722
      9          1           0       -1.960954   -1.212729   -0.047258
     10          1           0       -2.738421    0.480967   -0.016239
 ---------------------------------------------------------------------

 SCF Done:  E(RB2PLYPD3) =  -155.700187700     A.U. after   11 cycles
 E2(B2PLYPD3) =    -0.2257523378D+00 E(B2PLYPD3) =    -0.15592594003816D+03

 The electronic state is 1-A.
 Alpha  occ. eigenvalues --  -10.62499 -10.62335 -10.61890 -10.61360  -0.93173
 Alpha  occ. eigenvalues --   -0.84858  -0.70006  -0.64145  -0.54683  -0.53805
 Alpha  occ. eigenvalues --   -0.46835  -0.45189  -0.41195  -0.38188  -0.27701
 Alpha virt. eigenvalues --    0.01773   0.07038   0.07379   0.08038   0.09592
 Alpha virt. eigenvalues --    0.11667   0.12485   0.14622   0.15784   0.16257
 Alpha virt. eigenvalues --    0.18783   0.20252   0.21755   0.22827   0.23712

 Mulliken charges:
               1
     1  C   -0.173084
     2  C   -0.028296
     3  C   -0.031168
     4  C   -0.174741
     5  H    0.084198
     6  H    0.065469
     7  H    0.055612
     8  H    0.057306
     9  H    0.058702
    10  H    0.086002
 Sum of Mulliken charges =   0.00000

 Dipole moment (field-independent basis, Debye):
    X=             -0.0198    Y=              0.0263    Z=              0.1048  Tot=              0.1098
 Quadrupole moment (field-independent basis, Debye-Ang):
   XX=            -23.4332   YY=            -23.1764   ZZ=            -29.2485
   XY=              0.1218   XZ=              0.1695   YZ=             -0.0101

 1\1\GINC-NODE24\SP\RB2PLYPD3-FC\def2QZVP\C4H6\BOITTIER\26-Aug-2020\0\\
 #p B2PLYPD3/Def2QZVP\\butadiene\\0,1\C,0,-3.8359,0.21436,0.03929\C,0,-
 2.715204,-0.491716,0.021543\C,0,-1.38804,0.084685,0.001509\C,0,-0.2731
 36,-0.658789,0.043484\H,0,-4.817735,-0.250205,-0.024567\H,0,-3.818599,
 1.292471,0.0374\H,0,-2.736123,-1.574347,0.001635\H,0,-1.281708,1.15402
 8,-0.123072\H,0,-0.342506,-1.762145,0.113494\H,0,0.728892,-0.239146,0.
 032221\\Version=ES64L-G09RevD.01\State=1-A\HF=-155.7001877\MP2=-155.92
 594\RMSD=4.475e-09\PG=C01 [X(C4H6)]\\@

 Normal termination of Gaussian 09 at Wed Aug 26 13:45:01 2020.
