 Gaussian 09, Revision D.01,
 Gaussian 09:  ES64L-G09RevD.01 24-Apr-2013

 --------------------
 #p B2PLYPD3/Def2QZVP
 --------------------

 ---------
 butadiene
 ---------
 Symbolic Z-matrix:
 Charge =  0 Multiplicity = 1

                         Standard orientation:
 ---------------------------------------------------------------------
 Center     Atomic      Atomic             Coordinates (Angstroms)
 Number     Number       Type             X           Y           Z
 ---------------------------------------------------------------------
      1          6           0       -1.815177   -0.112606   -0.014533
      2          6           0       -0.611077    0.423722    0.000111
      3          6           0        0.589893   -0.445823    0.068038
      4          6           0        1.843662    0.110253   -0.049597
      5          1           0       -2.717584    0.578459   -0.019776
      6          1           0       -1.974450   -1.211190    0.006352
      7          1           0       -0.485386    1.521289    0.022290
      8          1           0        0.328975   -1.478115   -0.100074
      9          1           0        1.989745    1.189896    0.044080
     10          1           0        2.814896   -0.453612    0.023017
 ---------------------------------------------------------------------

 SCF Done:  E(RB2PLYPD3) =  -155.685660346     A.U. after   11 cycles
 E2(B2PLYPD3) =    -0.2277460134D+00 E(B2PLYPD3) =    -0.15591340635979D+03

 The electronic state is 1-A.
 Alpha  occ. eigenvalues --  -10.63601 -10.62867 -10.62648 -10.62056  -0.92620
 Alpha  occ. eigenvalues --   -0.84075  -0.69207  -0.63990  -0.53846  -0.52814
 Alpha  occ. eigenvalues --   -0.46565  -0.45050  -0.40546  -0.37775  -0.27640
 Alpha virt. eigenvalues --    0.01567   0.06956   0.07135   0.07972   0.08613
 Alpha virt. eigenvalues --    0.11693   0.12412   0.14332   0.15181   0.16378
 Alpha virt. eigenvalues --    0.18578   0.19501   0.22090   0.22956   0.23873

 Mulliken charges:
               1
     1  C   -0.174871
     2  C   -0.020745
     3  C   -0.048515
     4  C   -0.166199
     5  H    0.078308
     6  H    0.064491
     7  H    0.057453
     8  H    0.070253
     9  H    0.064498
    10  H    0.075326
 Sum of Mulliken charges =   0.00000

 Dipole moment (field-independent basis, Debye):
    X=             -0.0282    Y=              0.0512    Z=              0.0323  Tot=              0.0667
 Quadrupole moment (field-independent basis, Debye-Ang):
   XX=            -23.8403   YY=            -23.0786   ZZ=            -29.5405
   XY=              0.4570   XZ=              0.1135   YZ=              0.2076

 1\1\GINC-NODE39\SP\RB2PLYPD3-FC\def2QZVP\C4H6\BOITTIER\26-Aug-2020\0\\
 #p B2PLYPD3/Def2QZVP\\butadiene\\0,1\C,0,-3.816912,0.226882,0.037633\C
 ,0,-2.731769,-0.521545,0.031246\C,0,-1.391737,0.111671,-0.048777\C,0,-
 0.261096,-0.663393,0.077408\H,0,-4.830832,-0.286617,0.052515\H,0,-3.77
 185,1.335621,0.000778\H,0,-2.809753,-1.623735,0.025013\H,0,-1.458335,1
 .176617,0.104264\H,0,-0.315905,-1.752732,-0.000567\H,0,0.796978,-0.288
 519,-0.002969\\Version=ES64L-G09RevD.01\State=1-A\HF=-155.6856603\MP2=
 -155.9134064\RMSD=8.725e-09\PG=C01 [X(C4H6)]\\@

 Normal termination of Gaussian 09 at Wed Aug 26 14:54:18 2020.
