 Gaussian 09, Revision D.01,
 Gaussian 09:  ES64L-G09RevD.01 24-Apr-2013

 --------------------
 #p B2PLYPD3/Def2QZVP
 --------------------

 ---------
 butadiene
 ---------
 Symbolic Z-matrix:
 Charge =  0 Multiplicity = 1

                         Standard orientation:
 ---------------------------------------------------------------------
 Center     Atomic      Atomic             Coordinates (Angstroms)
 Number     Number       Type             X           Y           Z
 ---------------------------------------------------------------------
      1          6           0        1.830696   -0.100649    0.009290
      2          6           0        0.589671    0.393121   -0.016304
      3          6           0       -0.590898   -0.426829   -0.037836
      4          6           0       -1.825982    0.115572    0.024242
      5          1           0        2.667274    0.570921    0.019060
      6          1           0        2.032436   -1.160124    0.040767
      7          1           0        0.474625    1.504648    0.059799
      8          1           0       -0.402072   -1.500529   -0.001902
      9          1           0       -1.999120    1.176073   -0.074487
     10          1           0       -2.794063   -0.478270    0.080406
 ---------------------------------------------------------------------

 SCF Done:  E(RB2PLYPD3) =  -155.695069097     A.U. after   11 cycles
 E2(B2PLYPD3) =    -0.2266856557D+00 E(B2PLYPD3) =    -0.15592175475251D+03

 The electronic state is 1-A.
 Alpha  occ. eigenvalues --  -10.62962 -10.62667 -10.62413 -10.61274  -0.93117
 Alpha  occ. eigenvalues --   -0.84478  -0.70096  -0.63858  -0.54526  -0.53545
 Alpha  occ. eigenvalues --   -0.46616  -0.45005  -0.41175  -0.38228  -0.27381
 Alpha virt. eigenvalues --    0.01478   0.06994   0.07270   0.07947   0.09373
 Alpha virt. eigenvalues --    0.11656   0.12436   0.14654   0.15825   0.16121
 Alpha virt. eigenvalues --    0.18692   0.20296   0.21849   0.22619   0.23870

 Mulliken charges:
               1
     1  C   -0.183738
     2  C   -0.016424
     3  C   -0.037132
     4  C   -0.169076
     5  H    0.085345
     6  H    0.065076
     7  H    0.050290
     8  H    0.060281
     9  H    0.069798
    10  H    0.075581
 Sum of Mulliken charges =   0.00000

 Dipole moment (field-independent basis, Debye):
    X=             -0.0052    Y=              0.0167    Z=              0.0676  Tot=              0.0698
 Quadrupole moment (field-independent basis, Debye-Ang):
   XX=            -23.5649   YY=            -23.1228   ZZ=            -29.3713
   XY=             -0.3704   XZ=              0.0746   YZ=             -0.1080

 1\1\GINC-NODE14\SP\RB2PLYPD3-FC\def2QZVP\C4H6\BOITTIER\26-Aug-2020\0\\
 #p B2PLYPD3/Def2QZVP\\butadiene\\0,1\C,0,-3.832655,0.220797,0.032132\C
 ,0,-2.704411,-0.494417,0.020296\C,0,-1.392686,0.092302,-0.020477\C,0,-
 0.278959,-0.667413,0.056544\H,0,-4.778931,-0.284047,0.057807\H,0,-3.83
 4929,1.299755,0.036818\H,0,-2.796577,-1.60581,0.124364\H,0,-1.379623,1
 .182957,-0.011678\H,0,-0.305222,-1.743761,-0.015379\H,0,0.782415,-0.26
 1611,0.098875\\Version=ES64L-G09RevD.01\State=1-A\HF=-155.6950691\MP2=
 -155.9217548\RMSD=6.587e-09\PG=C01 [X(C4H6)]\\@

 Normal termination of Gaussian 09 at Wed Aug 26 10:01:35 2020.
