 Gaussian 09, Revision D.01,
 Gaussian 09:  ES64L-G09RevD.01 24-Apr-2013

 --------------------
 #p B2PLYPD3/Def2QZVP
 --------------------

 ---------
 butadiene
 ---------
 Symbolic Z-matrix:
 Charge =  0 Multiplicity = 1

                         Standard orientation:
 ---------------------------------------------------------------------
 Center     Atomic      Atomic             Coordinates (Angstroms)
 Number     Number       Type             X           Y           Z
 ---------------------------------------------------------------------
      1          6           0        1.844965   -0.113982    0.018379
      2          6           0        0.605622    0.417428   -0.044404
      3          6           0       -0.591522   -0.399079   -0.036795
      4          6           0       -1.840625    0.105117    0.028404
      5          1           0        2.727268    0.503084    0.048559
      6          1           0        1.899232   -1.196631    0.172648
      7          1           0        0.424653    1.496939   -0.124371
      8          1           0       -0.400409   -1.454399   -0.055629
      9          1           0       -2.034458    1.143927    0.233847
     10          1           0       -2.726927   -0.549817   -0.068562
 ---------------------------------------------------------------------

 SCF Done:  E(RB2PLYPD3) =  -155.695998167     A.U. after   11 cycles
 E2(B2PLYPD3) =    -0.2267369476D+00 E(B2PLYPD3) =    -0.15592273511495D+03

 The electronic state is 1-A.
 Alpha  occ. eigenvalues --  -10.62777 -10.62593 -10.61965 -10.61897  -0.92927
 Alpha  occ. eigenvalues --   -0.84417  -0.70174  -0.64151  -0.54610  -0.53298
 Alpha  occ. eigenvalues --   -0.46833  -0.45671  -0.41330  -0.37817  -0.27326
 Alpha virt. eigenvalues --    0.01269   0.07016   0.07348   0.08067   0.09302
 Alpha virt. eigenvalues --    0.11741   0.12388   0.14783   0.15630   0.16156
 Alpha virt. eigenvalues --    0.18737   0.20107   0.21442   0.22838   0.23575

 Mulliken charges:
               1
     1  C   -0.179508
     2  C   -0.028160
     3  C   -0.031509
     4  C   -0.182183
     5  H    0.092075
     6  H    0.063346
     7  H    0.054208
     8  H    0.057534
     9  H    0.071449
    10  H    0.082748
 Sum of Mulliken charges =   0.00000

 Dipole moment (field-independent basis, Debye):
    X=             -0.0025    Y=              0.0327    Z=              0.1493  Tot=              0.1528
 Quadrupole moment (field-independent basis, Debye-Ang):
   XX=            -23.6847   YY=            -23.2062   ZZ=            -29.3025
   XY=             -0.1510   XZ=              0.1712   YZ=              0.0713

 1\1\GINC-NODE20\SP\RB2PLYPD3-FC\def2QZVP\C4H6\BOITTIER\26-Aug-2020\0\\
 #p B2PLYPD3/Def2QZVP\\butadiene\\0,1\C,0,-3.842675,0.235643,0.041584\C
 ,0,-2.721685,-0.515031,-0.005107\C,0,-1.395403,0.068627,-0.019724\C,0,
 -0.259277,-0.653498,0.060751\H,0,-4.822792,-0.208544,0.088565\H,0,-3.6
 97381,1.313848,0.16502\H,0,-2.741512,-1.611243,-0.054259\H,0,-1.390408
 ,1.140149,-0.068655\H,0,-0.257756,-1.704059,0.295749\H,0,0.731402,-0.1
 74702,-0.054061\\Version=ES64L-G09RevD.01\State=1-A\HF=-155.6959982\MP
 2=-155.9227351\RMSD=4.091e-09\PG=C01 [X(C4H6)]\\@

 Normal termination of Gaussian 09 at Wed Aug 26 10:40:09 2020.
