 Gaussian 09, Revision D.01,
 Gaussian 09:  ES64L-G09RevD.01 24-Apr-2013

 --------------------
 #p B2PLYPD3/Def2QZVP
 --------------------

 ---------
 butadiene
 ---------
 Symbolic Z-matrix:
 Charge =  0 Multiplicity = 1

                         Standard orientation:
 ---------------------------------------------------------------------
 Center     Atomic      Atomic             Coordinates (Angstroms)
 Number     Number       Type             X           Y           Z
 ---------------------------------------------------------------------
      1          6           0       -1.868299    0.086011    0.008430
      2          6           0       -0.628213   -0.347810   -0.057905
      3          6           0        0.617964    0.444326    0.005257
      4          6           0        1.841644   -0.165807    0.034665
      5          1           0       -2.758642   -0.616713   -0.041712
      6          1           0       -2.057418    1.139874    0.262519
      7          1           0       -0.487165   -1.389371   -0.037884
      8          1           0        0.724277    1.617756   -0.166016
      9          1           0        1.992326   -1.256903    0.138459
     10          1           0        2.808048    0.405037   -0.098046
 ---------------------------------------------------------------------

 SCF Done:  E(RB2PLYPD3) =  -155.678893108     A.U. after   11 cycles
 E2(B2PLYPD3) =    -0.2276554313D+00 E(B2PLYPD3) =    -0.15590654853923D+03

 The electronic state is 1-A.
 Alpha  occ. eigenvalues --  -10.64515 -10.62919 -10.62460 -10.61995  -0.92435
 Alpha  occ. eigenvalues --   -0.84615  -0.69163  -0.63193  -0.54071  -0.53224
 Alpha  occ. eigenvalues --   -0.46020  -0.44500  -0.40623  -0.37667  -0.27792
 Alpha virt. eigenvalues --    0.01433   0.06916   0.07232   0.07495   0.09142
 Alpha virt. eigenvalues --    0.11418   0.12194   0.14256   0.15585   0.16391
 Alpha virt. eigenvalues --    0.19054   0.19693   0.21398   0.22464   0.23399

 Mulliken charges:
               1
     1  C   -0.167100
     2  C   -0.032023
     3  C   -0.044888
     4  C   -0.169006
     5  H    0.082239
     6  H    0.069653
     7  H    0.064744
     8  H    0.057503
     9  H    0.062708
    10  H    0.076170
 Sum of Mulliken charges =   0.00000

 Dipole moment (field-independent basis, Debye):
    X=              0.0917    Y=             -0.1171    Z=              0.0326  Tot=              0.1522
 Quadrupole moment (field-independent basis, Debye-Ang):
   XX=            -23.3883   YY=            -23.3290   ZZ=            -29.4588
   XY=              0.1770   XZ=             -0.6024   YZ=             -0.0916

 1\1\GINC-NODE31\SP\RB2PLYPD3-FC\def2QZVP\C4H6\BOITTIER\26-Aug-2020\0\\
 #p B2PLYPD3/Def2QZVP\\butadiene\\0,1\C,0,-3.876154,0.179937,0.03638\C,
 0,-2.726266,-0.456884,-0.014913\C,0,-1.365111,0.118574,0.008104\C,0,-0
 .259656,-0.685013,0.060431\H,0,-4.871441,-0.366154,0.021065\H,0,-3.884
 603,1.260653,0.24359\H,0,-2.760142,-1.505507,0.051332\H,0,-1.067079,1.
 249283,-0.216056\H,0,-0.291341,-1.780377,0.212553\H,0,0.786681,-0.2894
 85,-0.101277\\Version=ES64L-G09RevD.01\State=1-A\HF=-155.6788931\MP2=-
 155.9065485\RMSD=8.751e-09\PG=C01 [X(C4H6)]\\@

 Normal termination of Gaussian 09 at Wed Aug 26 14:20:57 2020.
