 Gaussian 09, Revision D.01,
 Gaussian 09:  ES64L-G09RevD.01 24-Apr-2013

 --------------------
 #p B2PLYPD3/Def2QZVP
 --------------------

 ---------
 butadiene
 ---------
 Symbolic Z-matrix:
 Charge =  0 Multiplicity = 1

                         Standard orientation:
 ---------------------------------------------------------------------
 Center     Atomic      Atomic             Coordinates (Angstroms)
 Number     Number       Type             X           Y           Z
 ---------------------------------------------------------------------
      1          6           0        1.823244   -0.110795    0.005274
      2          6           0        0.597507    0.408985   -0.012900
      3          6           0       -0.598158   -0.401403   -0.014500
      4          6           0       -1.830331    0.110934    0.016488
      5          1           0        2.750892    0.481832    0.036239
      6          1           0        1.981121   -1.167428   -0.012466
      7          1           0        0.475729    1.508209    0.006365
      8          1           0       -0.454793   -1.472622    0.026636
      9          1           0       -2.034429    1.155282   -0.015105
     10          1           0       -2.672086   -0.551600   -0.007841
 ---------------------------------------------------------------------

 SCF Done:  E(RB2PLYPD3) =  -155.700065911     A.U. after   11 cycles
 E2(B2PLYPD3) =    -0.2255935753D+00 E(B2PLYPD3) =    -0.15592565948580D+03

 The electronic state is 1-A.
 Alpha  occ. eigenvalues --  -10.62593 -10.62406 -10.61462 -10.61142  -0.93186
 Alpha  occ. eigenvalues --   -0.84924  -0.70238  -0.64178  -0.54652  -0.54089
 Alpha  occ. eigenvalues --   -0.46554  -0.45626  -0.41166  -0.38291  -0.27621
 Alpha virt. eigenvalues --    0.01791   0.07027   0.07393   0.08045   0.09572
 Alpha virt. eigenvalues --    0.11695   0.12512   0.14809   0.15853   0.16203
 Alpha virt. eigenvalues --    0.18728   0.20404   0.21943   0.22923   0.23745

 Mulliken charges:
               1
     1  C   -0.172920
     2  C   -0.025774
     3  C   -0.031813
     4  C   -0.177195
     5  H    0.081463
     6  H    0.062343
     7  H    0.053426
     8  H    0.057568
     9  H    0.070507
    10  H    0.082396
 Sum of Mulliken charges =   0.00000

 Dipole moment (field-independent basis, Debye):
    X=              0.0112    Y=             -0.0171    Z=              0.0067  Tot=              0.0215
 Quadrupole moment (field-independent basis, Debye-Ang):
   XX=            -23.4731   YY=            -23.0734   ZZ=            -29.2310
   XY=             -0.2837   XZ=              0.1366   YZ=             -0.0025

 1\1\GINC-NODE12\SP\RB2PLYPD3-FC\def2QZVP\C4H6\BOITTIER\26-Aug-2020\0\\
 #p B2PLYPD3/Def2QZVP\\butadiene\\0,1\C,0,-3.825425,0.227124,0.026356\C
 ,0,-2.714984,-0.507618,0.023674\C,0,-1.391713,0.070955,0.000158\C,0,-0
 .27337,-0.65628,0.046413\H,0,-4.845367,-0.185444,0.073298\H,0,-3.78824
 4,1.293928,-0.021182\H,0,-2.795413,-1.609662,0.073908\H,0,-1.337345,1.
 151085,0.011072\H,0,-0.263085,-1.720802,0.044326\H,0,0.674881,-0.15916
 6,0.004078\\Version=ES64L-G09RevD.01\State=1-A\HF=-155.7000659\MP2=-15
 5.9256595\RMSD=4.741e-09\PG=C01 [X(C4H6)]\\@

 Normal termination of Gaussian 09 at Wed Aug 26 18:14:10 2020.
