 Gaussian 09, Revision D.01,
 Gaussian 09:  ES64L-G09RevD.01 24-Apr-2013

 --------------------
 #p B2PLYPD3/Def2QZVP
 --------------------

 ---------
 butadiene
 ---------
 Symbolic Z-matrix:
 Charge =  0 Multiplicity = 1

                         Standard orientation:
 ---------------------------------------------------------------------
 Center     Atomic      Atomic             Coordinates (Angstroms)
 Number     Number       Type             X           Y           Z
 ---------------------------------------------------------------------
      1          6           0        1.861462   -0.098049    0.061418
      2          6           0        0.620203    0.335620   -0.084896
      3          6           0       -0.625015   -0.441411   -0.089514
      4          6           0       -1.853110    0.146711    0.066649
      5          1           0        2.586554    0.785259    0.027701
      6          1           0        2.109541   -1.126663    0.078340
      7          1           0        0.478641    1.411938    0.119014
      8          1           0       -0.425334   -1.424595   -0.016790
      9          1           0       -2.047613    1.159956   -0.111998
     10          1           0       -2.723031   -0.463121    0.181795
 ---------------------------------------------------------------------

 SCF Done:  E(RB2PLYPD3) =  -155.676886680     A.U. after   11 cycles
 E2(B2PLYPD3) =    -0.2266820829D+00 E(B2PLYPD3) =    -0.15590356876315D+03

 The electronic state is 1-A.
 Alpha  occ. eigenvalues --  -10.62533 -10.62162 -10.61894 -10.61669  -0.92836
 Alpha  occ. eigenvalues --   -0.84940  -0.71035  -0.64374  -0.54597  -0.53823
 Alpha  occ. eigenvalues --   -0.47418  -0.45764  -0.40604  -0.37412  -0.27625
 Alpha virt. eigenvalues --    0.01130   0.06816   0.07654   0.08066   0.09122
 Alpha virt. eigenvalues --    0.11795   0.12348   0.14885   0.15094   0.16109
 Alpha virt. eigenvalues --    0.18733   0.19319   0.21530   0.23419   0.24593

 Mulliken charges:
               1
     1  C   -0.189434
     2  C   -0.004959
     3  C   -0.063327
     4  C   -0.170099
     5  H    0.081292
     6  H    0.072094
     7  H    0.047022
     8  H    0.066576
     9  H    0.082396
    10  H    0.078440
 Sum of Mulliken charges =   0.00000

 Dipole moment (field-independent basis, Debye):
    X=             -0.1404    Y=             -0.0583    Z=              0.1065  Tot=              0.1856
 Quadrupole moment (field-independent basis, Debye-Ang):
   XX=            -23.9482   YY=            -23.0162   ZZ=            -29.2109
   XY=             -0.4607   XZ=             -0.0221   YZ=             -0.1737

 1\1\GINC-NODE09\SP\RB2PLYPD3-FC\def2QZVP\C4H6\BOITTIER\26-Aug-2020\0\\
 #p B2PLYPD3/Def2QZVP\\butadiene\\0,1\C,0,-3.866138,0.212912,0.086031\C
 ,0,-2.723817,-0.441839,-0.04283\C,0,-1.359267,0.09797,-0.074077\C,0,-0
 .256061,-0.695367,0.104935\H,0,-4.73834,-0.526266,0.083499\H,0,-3.9252
 21,1.269299,0.065245\H,0,-2.776925,-1.518025,0.200238\H,0,-1.378612,1.
 103003,-0.037384\H,0,-0.247771,-1.732831,-0.036525\H,0,0.709889,-0.248
 138,0.198965\\Version=ES64L-G09RevD.01\State=1-A\HF=-155.6768867\MP2=-
 155.9035688\RMSD=8.445e-09\PG=C01 [X(C4H6)]\\@

 Normal termination of Gaussian 09 at Wed Aug 26 14:52:36 2020.
