 Gaussian 09, Revision D.01,
 Gaussian 09:  ES64L-G09RevD.01 24-Apr-2013

 --------------------
 #p B2PLYPD3/Def2QZVP
 --------------------

 ---------
 butadiene
 ---------
 Symbolic Z-matrix:
 Charge =  0 Multiplicity = 1

                         Standard orientation:
 ---------------------------------------------------------------------
 Center     Atomic      Atomic             Coordinates (Angstroms)
 Number     Number       Type             X           Y           Z
 ---------------------------------------------------------------------
      1          6           0       -1.825592    0.104161   -0.023706
      2          6           0       -0.600634   -0.401777    0.012410
      3          6           0        0.590224    0.397277    0.017472
      4          6           0        1.831258   -0.111747   -0.010565
      5          1           0       -2.708765   -0.491469    0.036249
      6          1           0       -1.950935    1.187895   -0.082889
      7          1           0       -0.494666   -1.476073    0.075873
      8          1           0        0.477716    1.490081    0.103541
      9          1           0        2.020431   -1.160337   -0.074637
     10          1           0        2.684687    0.522426   -0.031801
 ---------------------------------------------------------------------

 SCF Done:  E(RB2PLYPD3) =  -155.700190641     A.U. after   11 cycles
 E2(B2PLYPD3) =    -0.2255275669D+00 E(B2PLYPD3) =    -0.15592571820770D+03

 The electronic state is 1-A.
 Alpha  occ. eigenvalues --  -10.62621 -10.62124 -10.61240 -10.61183  -0.93323
 Alpha  occ. eigenvalues --   -0.85013  -0.70442  -0.64043  -0.54971  -0.54149
 Alpha  occ. eigenvalues --   -0.46624  -0.45469  -0.41471  -0.38288  -0.27569
 Alpha virt. eigenvalues --    0.01692   0.07085   0.07414   0.08039   0.09695
 Alpha virt. eigenvalues --    0.11692   0.12529   0.14783   0.15830   0.16301
 Alpha virt. eigenvalues --    0.18742   0.20332   0.21815   0.22746   0.23876

 Mulliken charges:
               1
     1  C   -0.173792
     2  C   -0.026388
     3  C   -0.029376
     4  C   -0.179081
     5  H    0.088033
     6  H    0.059948
     7  H    0.054878
     8  H    0.053520
     9  H    0.067353
    10  H    0.084903
 Sum of Mulliken charges =   0.00000

 Dipole moment (field-independent basis, Debye):
    X=             -0.0046    Y=             -0.0289    Z=              0.0400  Tot=              0.0495
 Quadrupole moment (field-independent basis, Debye-Ang):
   XX=            -23.4368   YY=            -23.1229   ZZ=            -29.1729
   XY=             -0.0532   XZ=             -0.2058   YZ=             -0.0163

 1\1\GINC-NODE39\SP\RB2PLYPD3-FC\def2QZVP\C4H6\BOITTIER\26-Aug-2020\0\\
 #p B2PLYPD3/Def2QZVP\\butadiene\\0,1\C,0,-3.827859,0.219145,-0.0014\C,
 0,-2.714786,-0.49935,0.049921\C,0,-1.398763,0.070218,0.031703\C,0,-0.2
 70769,-0.65609,0.018994\H,0,-4.804081,-0.204389,0.075881\H,0,-3.754904
 ,1.305452,-0.092552\H,0,-2.805061,-1.57274,0.145067\H,0,-1.310799,1.16
 7332,0.085476\H,0,-0.27521,-1.72301,-0.014077\H,0,0.68339,-0.188147,-0
 .020729\\Version=ES64L-G09RevD.01\State=1-A\HF=-155.7001906\MP2=-155.9
 257182\RMSD=5.629e-09\PG=C01 [X(C4H6)]\\@

 Normal termination of Gaussian 09 at Wed Aug 26 18:40:51 2020.
