 Gaussian 09, Revision D.01,
 Gaussian 09:  ES64L-G09RevD.01 24-Apr-2013

 --------------------
 #p B2PLYPD3/Def2QZVP
 --------------------

 ---------
 butadiene
 ---------
 Symbolic Z-matrix:
 Charge =  0 Multiplicity = 1

                         Standard orientation:
 ---------------------------------------------------------------------
 Center     Atomic      Atomic             Coordinates (Angstroms)
 Number     Number       Type             X           Y           Z
 ---------------------------------------------------------------------
      1          6           0       -1.865707   -0.096900    0.044184
      2          6           0       -0.614656    0.391786   -0.041606
      3          6           0        0.590345   -0.382565   -0.108166
      4          6           0        1.860264    0.099651    0.016495
      5          1           0       -2.756375    0.480403    0.156407
      6          1           0       -1.959835   -1.167954   -0.001764
      7          1           0       -0.475127    1.494601   -0.047876
      8          1           0        0.451566   -1.419206    0.070931
      9          1           0        2.248667    1.076903    0.094116
     10          1           0        2.669629   -0.536582    0.262743
 ---------------------------------------------------------------------

 SCF Done:  E(RB2PLYPD3) =  -155.686751238     A.U. after   11 cycles
 E2(B2PLYPD3) =    -0.2268248371D+00 E(B2PLYPD3) =    -0.15591357607516D+03

 The electronic state is 1-A.
 Alpha  occ. eigenvalues --  -10.62981 -10.62861 -10.61742 -10.61590  -0.92947
 Alpha  occ. eigenvalues --   -0.84692  -0.71637  -0.64258  -0.55670  -0.53352
 Alpha  occ. eigenvalues --   -0.47758  -0.44955  -0.40836  -0.38076  -0.27297
 Alpha virt. eigenvalues --    0.00731   0.07011   0.07575   0.08101   0.09401
 Alpha virt. eigenvalues --    0.11442   0.12740   0.14953   0.15605   0.16437
 Alpha virt. eigenvalues --    0.18970   0.19872   0.22211   0.22736   0.23980

 Mulliken charges:
               1
     1  C   -0.176225
     2  C   -0.028268
     3  C   -0.032249
     4  C   -0.163288
     5  H    0.094109
     6  H    0.059208
     7  H    0.049724
     8  H    0.064108
     9  H    0.064502
    10  H    0.068379
 Sum of Mulliken charges =   0.00000

 Dipole moment (field-independent basis, Debye):
    X=              0.0586    Y=              0.0445    Z=              0.3769  Tot=              0.3840
 Quadrupole moment (field-independent basis, Debye-Ang):
   XX=            -22.8361   YY=            -23.6086   ZZ=            -29.1601
   XY=              0.4380   XZ=              0.6007   YZ=             -0.1293

 1\1\GINC-NODE28\SP\RB2PLYPD3-FC\def2QZVP\C4H6\BOITTIER\26-Aug-2020\0\\
 #p B2PLYPD3/Def2QZVP\\butadiene\\0,1\C,0,-3.864737,0.223755,-0.028501\
 C,0,-2.724605,-0.483817,0.075147\C,0,-1.396643,0.056346,0.103747\C,0,-
 0.239112,-0.657414,-0.003192\H,0,-4.847905,-0.18307,-0.112385\H,0,-3.7
 58893,1.2947,-0.029783\H,0,-2.791119,-1.592099,0.129868\H,0,-1.343536,
 1.092089,-0.120701\H,0,-0.038789,-1.692074,-0.038581\H,0,0.671058,-0.1
 93104,-0.279795\\Version=ES64L-G09RevD.01\State=1-A\HF=-155.6867512\MP
 2=-155.9135761\RMSD=6.248e-09\PG=C01 [X(C4H6)]\\@

 Normal termination of Gaussian 09 at Wed Aug 26 15:16:01 2020.
