 Gaussian 09, Revision D.01,
 Gaussian 09:  ES64L-G09RevD.01 24-Apr-2013

 --------------------
 #p B2PLYPD3/Def2QZVP
 --------------------

 ---------
 butadiene
 ---------
 Symbolic Z-matrix:
 Charge =  0 Multiplicity = 1

                         Standard orientation:
 ---------------------------------------------------------------------
 Center     Atomic      Atomic             Coordinates (Angstroms)
 Number     Number       Type             X           Y           Z
 ---------------------------------------------------------------------
      1          6           0       -1.837945    0.098085    0.042922
      2          6           0       -0.587118   -0.397098   -0.015133
      3          6           0        0.585232    0.427831   -0.050728
      4          6           0        1.818516   -0.120208    0.021452
      5          1           0       -2.669153   -0.593680    0.064915
      6          1           0       -2.054080    1.146853   -0.088883
      7          1           0       -0.414052   -1.420599   -0.086209
      8          1           0        0.529644    1.532192    0.009365
      9          1           0        2.022311   -1.168522   -0.023708
     10          1           0        2.713221    0.452089    0.133446
 ---------------------------------------------------------------------

 SCF Done:  E(RB2PLYPD3) =  -155.694601967     A.U. after   11 cycles
 E2(B2PLYPD3) =    -0.2262580950D+00 E(B2PLYPD3) =    -0.15592086006188D+03

 The electronic state is 1-A.
 Alpha  occ. eigenvalues --  -10.62842 -10.62134 -10.61473 -10.61407  -0.93192
 Alpha  occ. eigenvalues --   -0.84529  -0.70577  -0.64650  -0.54743  -0.54010
 Alpha  occ. eigenvalues --   -0.46342  -0.45665  -0.41861  -0.38044  -0.27141
 Alpha virt. eigenvalues --    0.01365   0.07052   0.07474   0.08079   0.09250
 Alpha virt. eigenvalues --    0.11686   0.12519   0.14898   0.15732   0.16422
 Alpha virt. eigenvalues --    0.18828   0.20179   0.21918   0.23349   0.23668

 Mulliken charges:
               1
     1  C   -0.178335
     2  C   -0.039467
     3  C   -0.025681
     4  C   -0.175360
     5  H    0.079685
     6  H    0.073300
     7  H    0.067603
     8  H    0.058924
     9  H    0.061603
    10  H    0.077728
 Sum of Mulliken charges =   0.00000

 Dipole moment (field-independent basis, Debye):
    X=              0.1020    Y=             -0.0433    Z=             -0.0519  Tot=              0.1223
 Quadrupole moment (field-independent basis, Debye-Ang):
   XX=            -23.5849   YY=            -23.0060   ZZ=            -29.2449
   XY=             -0.3061   XZ=              0.4493   YZ=              0.0795

 1\1\GINC-NODE21\SP\RB2PLYPD3-FC\def2QZVP\C4H6\BOITTIER\26-Aug-2020\0\\
 #p B2PLYPD3/Def2QZVP\\butadiene\\0,1\C,0,-3.837691,0.222369,0.055689\C
 ,0,-2.700435,-0.497558,0.016955\C,0,-1.395372,0.094406,-0.033716\C,0,-
 0.285211,-0.670767,0.059009\H,0,-4.782824,-0.302415,0.091123\H,0,-3.85
 5438,1.289197,-0.104198\H,0,-2.720246,-1.536907,-0.026845\H,0,-1.24511
 7,1.191108,-0.00236\H,0,-0.279439,-1.739509,0.041916\H,0,0.7001,-0.271
 594,0.160924\\Version=ES64L-G09RevD.01\State=1-A\HF=-155.694602\MP2=-1
 55.9208601\RMSD=4.717e-09\PG=C01 [X(C4H6)]\\@

 Normal termination of Gaussian 09 at Wed Aug 26 08:43:11 2020.
