 Gaussian 09, Revision D.01,
 Gaussian 09:  ES64L-G09RevD.01 24-Apr-2013

 --------------------
 #p B2PLYPD3/Def2QZVP
 --------------------

 ---------
 butadiene
 ---------
 Symbolic Z-matrix:
 Charge =  0 Multiplicity = 1

                         Standard orientation:
 ---------------------------------------------------------------------
 Center     Atomic      Atomic             Coordinates (Angstroms)
 Number     Number       Type             X           Y           Z
 ---------------------------------------------------------------------
      1          6           0        1.827433   -0.124969   -0.038054
      2          6           0        0.561360    0.442408    0.037595
      3          6           0       -0.583478   -0.396111    0.005375
      4          6           0       -1.823645    0.067534   -0.006409
      5          1           0        2.707015    0.462898   -0.040403
      6          1           0        2.021618   -1.155538   -0.124376
      7          1           0        0.404445    1.545471    0.236443
      8          1           0       -0.371854   -1.426953    0.229324
      9          1           0       -1.926640    1.135380   -0.258034
     10          1           0       -2.724601   -0.494431   -0.034000
 ---------------------------------------------------------------------

 SCF Done:  E(RB2PLYPD3) =  -155.686409447     A.U. after   11 cycles
 E2(B2PLYPD3) =    -0.2272443336D+00 E(B2PLYPD3) =    -0.15591365378015D+03

 The electronic state is 1-A.
 Alpha  occ. eigenvalues --  -10.63669 -10.61972 -10.61811 -10.61221  -0.93423
 Alpha  occ. eigenvalues --   -0.84233  -0.71029  -0.64028  -0.55375  -0.53341
 Alpha  occ. eigenvalues --   -0.46740  -0.45360  -0.41728  -0.37782  -0.27079
 Alpha virt. eigenvalues --    0.01004   0.07204   0.07322   0.07914   0.09084
 Alpha virt. eigenvalues --    0.11644   0.12724   0.14770   0.15451   0.16233
 Alpha virt. eigenvalues --    0.18648   0.19777   0.21970   0.23074   0.23241

 Mulliken charges:
               1
     1  C   -0.185880
     2  C   -0.040548
     3  C   -0.015260
     4  C   -0.177550
     5  H    0.082578
     6  H    0.070908
     7  H    0.063512
     8  H    0.062978
     9  H    0.053662
    10  H    0.085599
 Sum of Mulliken charges =   0.00000

 Dipole moment (field-independent basis, Debye):
    X=              0.0514    Y=             -0.0702    Z=              0.0360  Tot=              0.0942
 Quadrupole moment (field-independent basis, Debye-Ang):
   XX=            -23.4000   YY=            -23.3926   ZZ=            -29.1520
   XY=             -0.3445   XZ=              0.1755   YZ=             -0.1007

 1\1\GINC-NODE07\SP\RB2PLYPD3-FC\def2QZVP\C4H6\BOITTIER\26-Aug-2020\0\\
 #p B2PLYPD3/Def2QZVP\\butadiene\\0,1\C,0,-3.823991,0.255951,-0.014827\
 C,0,-2.689947,-0.541814,0.075142\C,0,-1.405667,0.060334,0.021752\C,0,-
 0.277568,-0.632857,0.021694\H,0,-4.800023,-0.152049,-0.002327\H,0,-3.8
 17257,1.302167,-0.127162\H,0,-2.746622,-1.64921,0.301798\H,0,-1.414492
 ,1.117858,0.219581\H,0,-0.382586,-1.706524,-0.202869\H,0,0.714325,-0.2
 55114,-0.020082\\Version=ES64L-G09RevD.01\State=1-A\HF=-155.6864094\MP
 2=-155.9136538\RMSD=8.485e-09\PG=C01 [X(C4H6)]\\@

 Normal termination of Gaussian 09 at Wed Aug 26 14:04:33 2020.
