 Gaussian 09, Revision D.01,
 Gaussian 09:  ES64L-G09RevD.01 24-Apr-2013

 --------------------
 #p B2PLYPD3/Def2QZVP
 --------------------

 ---------
 butadiene
 ---------
 Symbolic Z-matrix:
 Charge =  0 Multiplicity = 1

                         Standard orientation:
 ---------------------------------------------------------------------
 Center     Atomic      Atomic             Coordinates (Angstroms)
 Number     Number       Type             X           Y           Z
 ---------------------------------------------------------------------
      1          6           0       -1.831986   -0.135173    0.034180
      2          6           0       -0.605764    0.424257   -0.047320
      3          6           0        0.603135   -0.395912   -0.045780
      4          6           0        1.830952    0.102978    0.057139
      5          1           0       -2.714529    0.546936    0.123646
      6          1           0       -1.944699   -1.244396    0.010202
      7          1           0       -0.484647    1.516282   -0.094501
      8          1           0        0.501031   -1.469679   -0.062002
      9          1           0        1.932475    1.185103    0.010847
     10          1           0        2.732351   -0.511151    0.022493
 ---------------------------------------------------------------------

 SCF Done:  E(RB2PLYPD3) =  -155.695741268     A.U. after   11 cycles
 E2(B2PLYPD3) =    -0.2266149340D+00 E(B2PLYPD3) =    -0.15592235620196D+03

 The electronic state is 1-A.
 Alpha  occ. eigenvalues --  -10.63058 -10.62521 -10.62333 -10.61378  -0.92873
 Alpha  occ. eigenvalues --   -0.84639  -0.69261  -0.63943  -0.53943  -0.53779
 Alpha  occ. eigenvalues --   -0.46239  -0.45135  -0.41398  -0.37930  -0.27612
 Alpha virt. eigenvalues --    0.01786   0.06976   0.07249   0.07928   0.09346
 Alpha virt. eigenvalues --    0.11727   0.12330   0.14456   0.15736   0.16177
 Alpha virt. eigenvalues --    0.18659   0.19948   0.21274   0.23068   0.24067

 Mulliken charges:
               1
     1  C   -0.176178
     2  C   -0.039088
     3  C   -0.024217
     4  C   -0.171697
     5  H    0.084958
     6  H    0.072889
     7  H    0.056984
     8  H    0.053885
     9  H    0.057765
    10  H    0.084701
 Sum of Mulliken charges =   0.00000

 Dipole moment (field-independent basis, Debye):
    X=             -0.0072    Y=             -0.0074    Z=             -0.0619  Tot=              0.0628
 Quadrupole moment (field-independent basis, Debye-Ang):
   XX=            -23.9392   YY=            -22.9393   ZZ=            -29.4158
   XY=             -0.1404   XZ=             -0.3061   YZ=              0.0189

 1\1\GINC-NODE32\SP\RB2PLYPD3-FC\def2QZVP\C4H6\BOITTIER\26-Aug-2020\0\\
 #p B2PLYPD3/Def2QZVP\\butadiene\\0,1\C,0,-3.831264,0.238301,-0.020935\
 C,0,-2.722402,-0.525139,0.083033\C,0,-1.388123,0.06927,0.060808\C,0,-0
 .267315,-0.640691,-0.021436\H,0,-4.820129,-0.280507,-0.09265\H,0,-3.74
 7137,1.35026,-0.032103\H,0,-2.795127,-1.619413,0.164822\H,0,-1.299798,
 1.144234,0.04304\H,0,-0.357589,-1.721807,0.059074\H,0,0.728078,-0.1938
 11,-0.002313\\Version=ES64L-G09RevD.01\State=1-A\HF=-155.6957413\MP2=-
 155.9223562\RMSD=7.464e-09\PG=C01 [X(C4H6)]\\@

 Normal termination of Gaussian 09 at Wed Aug 26 10:52:32 2020.
