 Gaussian 09, Revision D.01,
 Gaussian 09:  ES64L-G09RevD.01 24-Apr-2013

 --------------------
 #p B2PLYPD3/Def2QZVP
 --------------------

 ---------
 butadiene
 ---------
 Symbolic Z-matrix:
 Charge =  0 Multiplicity = 1

                         Standard orientation:
 ---------------------------------------------------------------------
 Center     Atomic      Atomic             Coordinates (Angstroms)
 Number     Number       Type             X           Y           Z
 ---------------------------------------------------------------------
      1          6           0       -1.847947   -0.084792    0.047448
      2          6           0       -0.588036    0.349376   -0.071539
      3          6           0        0.627424   -0.415383    0.005653
      4          6           0        1.827751    0.131352   -0.002261
      5          1           0       -2.709936    0.605933   -0.082471
      6          1           0       -2.047291   -1.198333    0.205109
      7          1           0       -0.469147    1.441833   -0.106126
      8          1           0        0.542334   -1.447320   -0.164234
      9          1           0        1.966772    1.248996    0.306361
     10          1           0        2.602113   -0.534430   -0.034447
 ---------------------------------------------------------------------

 SCF Done:  E(RB2PLYPD3) =  -155.682285472     A.U. after   11 cycles
 E2(B2PLYPD3) =    -0.2264717899D+00 E(B2PLYPD3) =    -0.15590875726233D+03

 The electronic state is 1-A.
 Alpha  occ. eigenvalues --  -10.62471 -10.62320 -10.61814 -10.61533  -0.93431
 Alpha  occ. eigenvalues --   -0.85173  -0.70058  -0.63463  -0.54867  -0.53241
 Alpha  occ. eigenvalues --   -0.46559  -0.45034  -0.40755  -0.38230  -0.27848
 Alpha virt. eigenvalues --    0.01465   0.07022   0.07286   0.07935   0.09495
 Alpha virt. eigenvalues --    0.11674   0.12000   0.14747   0.15482   0.16259
 Alpha virt. eigenvalues --    0.18269   0.19471   0.21261   0.22541   0.24285

 Mulliken charges:
               1
     1  C   -0.175669
     2  C   -0.026450
     3  C   -0.038919
     4  C   -0.169574
     5  H    0.089153
     6  H    0.057874
     7  H    0.048427
     8  H    0.062439
     9  H    0.069126
    10  H    0.083592
 Sum of Mulliken charges =   0.00000

 Dipole moment (field-independent basis, Debye):
    X=              0.0623    Y=             -0.0664    Z=              0.0741  Tot=              0.1174
 Quadrupole moment (field-independent basis, Debye-Ang):
   XX=            -23.9718   YY=            -23.1691   ZZ=            -29.1084
   XY=             -0.2650   XZ=              0.2399   YZ=              0.2257

 1\1\GINC-NODE40\SP\RB2PLYPD3-FC\def2QZVP\C4H6\BOITTIER\26-Aug-2020\0\\
 #p B2PLYPD3/Def2QZVP\\butadiene\\0,1\C,0,-3.858081,0.197392,-0.023663\
 C,0,-2.696079,-0.4545,0.098085\C,0,-1.363452,0.079603,0.014423\C,0,-0.
 280435,-0.673195,0.025999\H,0,-4.829596,-0.326787,0.111988\H,0,-3.8550
 67,1.327414,-0.189825\H,0,-2.774697,-1.550294,0.141052\H,0,-1.262043,1
 .111341,0.176376\H,0,-0.34439,-1.799953,-0.274049\H,0,0.600702,-0.1566
 43,0.052681\\Version=ES64L-G09RevD.01\State=1-A\HF=-155.6822855\MP2=-1
 55.9087573\RMSD=7.839e-09\PG=C01 [X(C4H6)]\\@

 Normal termination of Gaussian 09 at Wed Aug 26 12:36:55 2020.
