 Gaussian 09, Revision D.01,
 Gaussian 09:  ES64L-G09RevD.01 24-Apr-2013

 --------------------
 #p B2PLYPD3/Def2QZVP
 --------------------

 ---------
 butadiene
 ---------
 Symbolic Z-matrix:
 Charge =  0 Multiplicity = 1

                         Standard orientation:
 ---------------------------------------------------------------------
 Center     Atomic      Atomic             Coordinates (Angstroms)
 Number     Number       Type             X           Y           Z
 ---------------------------------------------------------------------
      1          6           0        1.819775   -0.116561    0.044647
      2          6           0        0.604967    0.459385   -0.117291
      3          6           0       -0.560993   -0.368086   -0.067122
      4          6           0       -1.821271    0.066960    0.049179
      5          1           0        2.755334    0.354421    0.187017
      6          1           0        1.871497   -1.199614    0.123013
      7          1           0        0.356466    1.482409    0.071255
      8          1           0       -0.451269   -1.447245   -0.068208
      9          1           0       -2.076313    1.107546    0.114587
     10          1           0       -2.710583   -0.547698    0.115854
 ---------------------------------------------------------------------

 SCF Done:  E(RB2PLYPD3) =  -155.689830185     A.U. after   11 cycles
 E2(B2PLYPD3) =    -0.2266127212D+00 E(B2PLYPD3) =    -0.15591644290600D+03

 The electronic state is 1-A.
 Alpha  occ. eigenvalues --  -10.62832 -10.62230 -10.62080 -10.61162  -0.93456
 Alpha  occ. eigenvalues --   -0.84511  -0.70915  -0.64624  -0.55626  -0.53244
 Alpha  occ. eigenvalues --   -0.47208  -0.44961  -0.41334  -0.38215  -0.27276
 Alpha virt. eigenvalues --    0.01194   0.07080   0.07390   0.08232   0.09190
 Alpha virt. eigenvalues --    0.11617   0.12878   0.14636   0.15422   0.16714
 Alpha virt. eigenvalues --    0.18836   0.19897   0.21979   0.22785   0.24090

 Mulliken charges:
               1
     1  C   -0.157696
     2  C   -0.041605
     3  C   -0.011664
     4  C   -0.182283
     5  H    0.084255
     6  H    0.059383
     7  H    0.068029
     8  H    0.050689
     9  H    0.050802
    10  H    0.080090
 Sum of Mulliken charges =   0.00000

 Dipole moment (field-independent basis, Debye):
    X=              0.1062    Y=             -0.0196    Z=              0.3728  Tot=              0.3881
 Quadrupole moment (field-independent basis, Debye-Ang):
   XX=            -23.1246   YY=            -23.5084   ZZ=            -29.1462
   XY=             -0.4075   XZ=              0.3388   YZ=              0.1655

 1\1\GINC-NODE34\SP\RB2PLYPD3-FC\def2QZVP\C4H6\BOITTIER\26-Aug-2020\0\\
 #p B2PLYPD3/Def2QZVP\\butadiene\\0,1\C,0,-3.810294,0.249817,0.075615\C
 ,0,-2.72779,-0.550797,-0.068951\C,0,-1.425699,0.041289,-0.042858\C,0,-
 0.270323,-0.621623,0.086556\H,0,-4.817478,-0.030597,0.231539\H,0,-3.65
 5056,1.32479,0.122028\H,0,-2.677013,-1.596496,0.149717\H,0,-1.32857,1.
 121153,-0.075764\H,0,-0.217114,-1.689367,0.182659\H,0,0.719843,-0.1853
 7,0.13534\\Version=ES64L-G09RevD.01\State=1-A\HF=-155.6898302\MP2=-155
 .9164429\RMSD=6.661e-09\PG=C01 [X(C4H6)]\\@

 Normal termination of Gaussian 09 at Wed Aug 26 12:36:15 2020.
