 Gaussian 09, Revision D.01,
 Gaussian 09:  ES64L-G09RevD.01 24-Apr-2013

 --------------------
 #p B2PLYPD3/Def2QZVP
 --------------------

 ---------
 butadiene
 ---------
 Symbolic Z-matrix:
 Charge =  0 Multiplicity = 1

                         Standard orientation:
 ---------------------------------------------------------------------
 Center     Atomic      Atomic             Coordinates (Angstroms)
 Number     Number       Type             X           Y           Z
 ---------------------------------------------------------------------
      1          6           0        1.825756   -0.117144    0.007414
      2          6           0        0.602737    0.401782   -0.008370
      3          6           0       -0.593763   -0.395577   -0.015449
      4          6           0       -1.836538    0.106204    0.017942
      5          1           0        2.699918    0.533131   -0.044661
      6          1           0        1.936215   -1.189790    0.064009
      7          1           0        0.487337    1.484351    0.026494
      8          1           0       -0.435832   -1.443837   -0.029009
      9          1           0       -1.978861    1.170729   -0.010411
     10          1           0       -2.697931   -0.526179   -0.015647
 ---------------------------------------------------------------------

 SCF Done:  E(RB2PLYPD3) =  -155.700100958     A.U. after   11 cycles
 E2(B2PLYPD3) =    -0.2255625767D+00 E(B2PLYPD3) =    -0.15592566353458D+03

 The electronic state is 1-A.
 Alpha  occ. eigenvalues --  -10.62187 -10.62110 -10.61437 -10.61320  -0.93375
 Alpha  occ. eigenvalues --   -0.84972  -0.70263  -0.64366  -0.54523  -0.54262
 Alpha  occ. eigenvalues --   -0.46510  -0.45902  -0.41522  -0.38260  -0.27556
 Alpha virt. eigenvalues --    0.01685   0.07028   0.07455   0.08095   0.09681
 Alpha virt. eigenvalues --    0.11786   0.12480   0.14753   0.15788   0.16117
 Alpha virt. eigenvalues --    0.18673   0.20492   0.21525   0.22979   0.24105

 Mulliken charges:
               1
     1  C   -0.181389
     2  C   -0.020221
     3  C   -0.032087
     4  C   -0.179535
     5  H    0.087923
     6  H    0.065853
     7  H    0.050877
     8  H    0.054638
     9  H    0.066555
    10  H    0.087386
 Sum of Mulliken charges =   0.00000

 Dipole moment (field-independent basis, Debye):
    X=              0.0113    Y=             -0.0013    Z=             -0.0268  Tot=              0.0291
 Quadrupole moment (field-independent basis, Debye-Ang):
   XX=            -23.6601   YY=            -23.0558   ZZ=            -29.2013
   XY=              0.0043   XZ=              0.0874   YZ=             -0.0508

 1\1\GINC-NODE26\SP\RB2PLYPD3-FC\def2QZVP\C4H6\BOITTIER\26-Aug-2020\0\\
 #p B2PLYPD3/Def2QZVP\\butadiene\\0,1\C,0,-3.826942,0.229427,0.026947\C
 ,0,-2.717737,-0.501992,0.026444\C,0,-1.397012,0.065788,-0.001031\C,0,-
 0.265089,-0.651022,0.047178\H,0,-4.804309,-0.253515,-0.008372\H,0,-3.7
 41768,1.305516,0.054363\H,0,-2.799484,-1.586276,0.090727\H,0,-1.363205
 ,1.124589,-0.043132\H,0,-0.317346,-1.724121,0.047806\H,0,0.696156,-0.1
 85663,-0.002664\\Version=ES64L-G09RevD.01\State=1-A\HF=-155.700101\MP2
 =-155.9256635\RMSD=4.803e-09\PG=C01 [X(C4H6)]\\@

 Normal termination of Gaussian 09 at Wed Aug 26 16:30:06 2020.
