 Gaussian 09, Revision D.01,
 Gaussian 09:  ES64L-G09RevD.01 24-Apr-2013

 --------------------
 #p B2PLYPD3/Def2QZVP
 --------------------

 ---------
 butadiene
 ---------
 Symbolic Z-matrix:
 Charge =  0 Multiplicity = 1

                         Standard orientation:
 ---------------------------------------------------------------------
 Center     Atomic      Atomic             Coordinates (Angstroms)
 Number     Number       Type             X           Y           Z
 ---------------------------------------------------------------------
      1          6           0        1.859289    0.089350   -0.040202
      2          6           0        0.616993   -0.365954    0.008128
      3          6           0       -0.614772    0.417547    0.036415
      4          6           0       -1.841582   -0.127501   -0.026865
      5          1           0        2.741810   -0.552197    0.042775
      6          1           0        2.025015    1.123522   -0.055603
      7          1           0        0.402632   -1.425813    0.159690
      8          1           0       -0.550092    1.548023    0.099033
      9          1           0       -1.971241   -1.241592   -0.081837
     10          1           0       -2.767696    0.467403   -0.028919
 ---------------------------------------------------------------------

 SCF Done:  E(RB2PLYPD3) =  -155.694683715     A.U. after   11 cycles
 E2(B2PLYPD3) =    -0.2262944888D+00 E(B2PLYPD3) =    -0.15592097820425D+03

 The electronic state is 1-A.
 Alpha  occ. eigenvalues --  -10.63334 -10.62614 -10.62461 -10.61228  -0.92814
 Alpha  occ. eigenvalues --   -0.84929  -0.70091  -0.63391  -0.54541  -0.53608
 Alpha  occ. eigenvalues --   -0.47093  -0.45071  -0.40616  -0.37863  -0.27932
 Alpha virt. eigenvalues --    0.01620   0.07003   0.07297   0.07894   0.09637
 Alpha virt. eigenvalues --    0.11577   0.12432   0.14482   0.15667   0.16198
 Alpha virt. eigenvalues --    0.18878   0.20323   0.21460   0.22603   0.23482

 Mulliken charges:
               1
     1  C   -0.176162
     2  C   -0.020714
     3  C   -0.036109
     4  C   -0.169745
     5  H    0.087821
     6  H    0.068030
     7  H    0.053038
     8  H    0.046916
     9  H    0.058576
    10  H    0.088348
 Sum of Mulliken charges =   0.00000

 Dipole moment (field-independent basis, Debye):
    X=             -0.0428    Y=              0.0307    Z=              0.1444  Tot=              0.1538
 Quadrupole moment (field-independent basis, Debye-Ang):
   XX=            -23.1852   YY=            -23.3900   ZZ=            -29.3275
   XY=              0.1182   XZ=              0.3046   YZ=             -0.0877

 1\1\GINC-NODE06\SP\RB2PLYPD3-FC\def2QZVP\C4H6\BOITTIER\26-Aug-2020\0\\
 #p B2PLYPD3/Def2QZVP\\butadiene\\0,1\C,0,-3.864525,0.201066,0.052169\C
 ,0,-2.722278,-0.467702,0.021202\C,0,-1.371494,0.08478,-0.024223\C,0,-0
 .260212,-0.66642,0.058814\H,0,-4.846613,-0.276565,-0.016257\H,0,-3.844
 901,1.248269,0.038177\H,0,-2.698735,-1.552587,-0.100015\H,0,-1.235492,
 1.206696,-0.118501\H,0,-0.329371,-1.783909,0.145238\H,0,0.756445,-0.24
 465,0.047811\\Version=ES64L-G09RevD.01\State=1-A\HF=-155.6946837\MP2=-
 155.9209782\RMSD=5.485e-09\PG=C01 [X(C4H6)]\\@

 Normal termination of Gaussian 09 at Wed Aug 26 08:41:27 2020.
