 Gaussian 09, Revision D.01,
 Gaussian 09:  ES64L-G09RevD.01 24-Apr-2013

 --------------------
 #p B2PLYPD3/Def2QZVP
 --------------------

 ---------
 butadiene
 ---------
 Symbolic Z-matrix:
 Charge =  0 Multiplicity = 1

                         Standard orientation:
 ---------------------------------------------------------------------
 Center     Atomic      Atomic             Coordinates (Angstroms)
 Number     Number       Type             X           Y           Z
 ---------------------------------------------------------------------
      1          6           0        1.820543    0.120967    0.036537
      2          6           0        0.566284   -0.415465   -0.076333
      3          6           0       -0.592295    0.381186   -0.010232
      4          6           0       -1.798512   -0.108678    0.013613
      5          1           0        2.731989   -0.530770    0.183649
      6          1           0        1.885687    1.192955    0.025633
      7          1           0        0.393159   -1.400407   -0.070151
      8          1           0       -0.509963    1.452244   -0.189531
      9          1           0       -1.936915   -1.184862    0.057453
     10          1           0       -2.540075    0.602786    0.211438
 ---------------------------------------------------------------------

 SCF Done:  E(RB2PLYPD3) =  -155.680801042     A.U. after   12 cycles
 E2(B2PLYPD3) =    -0.2261309044D+00 E(B2PLYPD3) =    -0.15590693194686D+03

 The electronic state is 1-A.
 Alpha  occ. eigenvalues --  -10.62396 -10.61507 -10.61248 -10.60357  -0.94326
 Alpha  occ. eigenvalues --   -0.84980  -0.70433  -0.64987  -0.55023  -0.53796
 Alpha  occ. eigenvalues --   -0.46520  -0.45510  -0.42444  -0.38231  -0.27229
 Alpha virt. eigenvalues --    0.01498   0.07045   0.07503   0.08066   0.09495
 Alpha virt. eigenvalues --    0.11905   0.12418   0.14828   0.15072   0.16318
 Alpha virt. eigenvalues --    0.18035   0.19812   0.22127   0.23027   0.24870

 Mulliken charges:
               1
     1  C   -0.181148
     2  C   -0.047780
     3  C   -0.002554
     4  C   -0.185671
     5  H    0.084962
     6  H    0.071485
     7  H    0.064429
     8  H    0.051786
     9  H    0.061812
    10  H    0.082679
 Sum of Mulliken charges =   0.00000

 Dipole moment (field-independent basis, Debye):
    X=             -0.0047    Y=             -0.0170    Z=              0.1539  Tot=              0.1549
 Quadrupole moment (field-independent basis, Debye-Ang):
   XX=            -24.3899   YY=            -22.9060   ZZ=            -28.9845
   XY=             -0.1113   XZ=              0.0250   YZ=             -0.1574

 1\1\GINC-NODE10\SP\RB2PLYPD3-FC\def2QZVP\C4H6\BOITTIER\26-Aug-2020\0\\
 #p B2PLYPD3/Def2QZVP\\butadiene\\0,1\C,0,-3.819374,0.240385,-0.021573\
 C,0,-2.685202,-0.515757,0.103202\C,0,-1.399828,0.052751,0.026141\C,0,-
 0.304432,-0.651123,0.013322\H,0,-4.835362,-0.234853,-0.159608\H,0,-3.6
 86045,1.306072,-0.029051\H,0,-2.696366,-1.515695,0.114161\H,0,-1.28340
 6,1.123573,0.187011\H,0,-0.366558,-1.734984,-0.011897\H,0,0.555248,-0.
 091824,-0.194924\\Version=ES64L-G09RevD.01\State=1-A\HF=-155.680801\MP
 2=-155.9069319\RMSD=5.960e-09\PG=C01 [X(C4H6)]\\@

 Normal termination of Gaussian 09 at Wed Aug 26 15:46:42 2020.
