 Gaussian 09, Revision D.01,
 Gaussian 09:  ES64L-G09RevD.01 24-Apr-2013

 --------------------
 #p B2PLYPD3/Def2QZVP
 --------------------

 ---------
 butadiene
 ---------
 Symbolic Z-matrix:
 Charge =  0 Multiplicity = 1

                         Standard orientation:
 ---------------------------------------------------------------------
 Center     Atomic      Atomic             Coordinates (Angstroms)
 Number     Number       Type             X           Y           Z
 ---------------------------------------------------------------------
      1          6           0        1.830529    0.093930    0.038252
      2          6           0        0.586355   -0.389627   -0.033841
      3          6           0       -0.597278    0.428970   -0.047948
      4          6           0       -1.825050   -0.133930    0.044022
      5          1           0        2.680041   -0.594208   -0.085234
      6          1           0        2.055704    1.174914    0.159240
      7          1           0        0.430063   -1.438587   -0.046519
      8          1           0       -0.468309    1.521629   -0.093531
      9          1           0       -1.978403   -1.206440    0.079140
     10          1           0       -2.686432    0.546639   -0.016007
 ---------------------------------------------------------------------

 SCF Done:  E(RB2PLYPD3) =  -155.695948494     A.U. after   11 cycles
 E2(B2PLYPD3) =    -0.2266268949D+00 E(B2PLYPD3) =    -0.15592257538878D+03

 The electronic state is 1-A.
 Alpha  occ. eigenvalues --  -10.62803 -10.62067 -10.62001 -10.61854  -0.93094
 Alpha  occ. eigenvalues --   -0.84421  -0.69823  -0.64158  -0.53964  -0.53844
 Alpha  occ. eigenvalues --   -0.46154  -0.45732  -0.41445  -0.37946  -0.27308
 Alpha virt. eigenvalues --    0.01461   0.06983   0.07310   0.07972   0.09462
 Alpha virt. eigenvalues --    0.11765   0.12184   0.14857   0.15663   0.16044
 Alpha virt. eigenvalues --    0.18746   0.20328   0.21251   0.22577   0.24030

 Mulliken charges:
               1
     1  C   -0.179884
     2  C   -0.028039
     3  C   -0.034466
     4  C   -0.179179
     5  H    0.081578
     6  H    0.066141
     7  H    0.060336
     8  H    0.058173
     9  H    0.073538
    10  H    0.081802
 Sum of Mulliken charges =   0.00000

 Dipole moment (field-independent basis, Debye):
    X=             -0.0357    Y=             -0.0139    Z=             -0.0559  Tot=              0.0677
 Quadrupole moment (field-independent basis, Debye-Ang):
   XX=            -24.0671   YY=            -22.8450   ZZ=            -29.3590
   XY=              0.2654   XZ=             -0.0224   YZ=              0.0870

 1\1\GINC-NODE01\SP\RB2PLYPD3-FC\def2QZVP\C4H6\BOITTIER\26-Aug-2020\0\\
 #p B2PLYPD3/Def2QZVP\\butadiene\\0,1\C,0,-3.834905,0.21386,-0.01951\C,
 0,-2.70087,-0.488279,0.069708\C,0,-1.386648,0.098275,0.061777\C,0,-0.2
 83914,-0.683691,-0.010649\H,0,-4.79622,-0.301978,0.122751\H,0,-3.85749
 5,1.313719,-0.173348\H,0,-2.740455,-1.547222,0.114179\H,0,-1.311957,1.
 196856,0.074289\H,0,-0.330891,-1.766656,-0.013253\H,0,0.688303,-0.1719
 94,0.030774\\Version=ES64L-G09RevD.01\State=1-A\HF=-155.6959485\MP2=-1
 55.9225754\RMSD=7.894e-09\PG=C01 [X(C4H6)]\\@

 Normal termination of Gaussian 09 at Wed Aug 26 08:52:20 2020.
