 Gaussian 09, Revision D.01,
 Gaussian 09:  ES64L-G09RevD.01 24-Apr-2013

 --------------------
 #p B2PLYPD3/Def2QZVP
 --------------------

 ---------
 butadiene
 ---------
 Symbolic Z-matrix:
 Charge =  0 Multiplicity = 1

                         Standard orientation:
 ---------------------------------------------------------------------
 Center     Atomic      Atomic             Coordinates (Angstroms)
 Number     Number       Type             X           Y           Z
 ---------------------------------------------------------------------
      1          6           0        1.820794   -0.145174   -0.063807
      2          6           0        0.608510    0.474132    0.053424
      3          6           0       -0.591725   -0.414551    0.030011
      4          6           0       -1.836878    0.092513   -0.011518
      5          1           0        2.772547    0.494605    0.007396
      6          1           0        1.811175   -1.252121   -0.229461
      7          1           0        0.508909    1.530893    0.235813
      8          1           0       -0.300391   -1.420492    0.328162
      9          1           0       -2.059943    1.109459   -0.315584
     10          1           0       -2.736502   -0.503870   -0.074985
 ---------------------------------------------------------------------

 SCF Done:  E(RB2PLYPD3) =  -155.681372565     A.U. after   12 cycles
 E2(B2PLYPD3) =    -0.2280986101D+00 E(B2PLYPD3) =    -0.15590947117528D+03

 The electronic state is 1-A.
 Alpha  occ. eigenvalues --  -10.63297 -10.63103 -10.62987 -10.61663  -0.92349
 Alpha  occ. eigenvalues --   -0.83973  -0.69217  -0.64302  -0.54238  -0.52594
 Alpha  occ. eigenvalues --   -0.46604  -0.45457  -0.40552  -0.37012  -0.27629
 Alpha virt. eigenvalues --    0.01569   0.07097   0.07240   0.07467   0.08600
 Alpha virt. eigenvalues --    0.11652   0.12432   0.14437   0.15183   0.15800
 Alpha virt. eigenvalues --    0.18365   0.19652   0.21619   0.22734   0.23376

 Mulliken charges:
               1
     1  C   -0.180177
     2  C   -0.044771
     3  C   -0.039225
     4  C   -0.173456
     5  H    0.084731
     6  H    0.068310
     7  H    0.072962
     8  H    0.072673
     9  H    0.065614
    10  H    0.073339
 Sum of Mulliken charges =   0.00000

 Dipole moment (field-independent basis, Debye):
    X=              0.0099    Y=              0.0720    Z=              0.0146  Tot=              0.0742
 Quadrupole moment (field-independent basis, Debye-Ang):
   XX=            -24.0422   YY=            -23.2327   ZZ=            -29.2912
   XY=             -0.2688   XZ=              0.5405   YZ=             -0.0984

 1\1\GINC-NODE10\SP\RB2PLYPD3-FC\def2QZVP\C4H6\BOITTIER\26-Aug-2020\0\\
 #p B2PLYPD3/Def2QZVP\\butadiene\\0,1\C,0,-3.816223,0.257446,-0.035282\
 C,0,-2.735645,-0.568525,0.095244\C,0,-1.394165,0.085984,0.041202\C,0,-
 0.262323,-0.640087,0.009631\H,0,-4.8677,-0.196275,0.05829\H,0,-3.60712
 4,1.339094,-0.233223\H,0,-2.828074,-1.620244,0.30802\H,0,-1.495105,1.1
 36086,0.310991\H,0,-0.230566,-1.688752,-0.265481\H,0,0.73008,-0.219321
 ,-0.074737\\Version=ES64L-G09RevD.01\State=1-A\HF=-155.6813726\MP2=-15
 5.9094712\RMSD=4.433e-09\PG=C01 [X(C4H6)]\\@

 Normal termination of Gaussian 09 at Wed Aug 26 11:53:40 2020.
