 Gaussian 09, Revision D.01,
 Gaussian 09:  ES64L-G09RevD.01 24-Apr-2013

 --------------------
 #p B2PLYPD3/Def2QZVP
 --------------------

 ---------
 butadiene
 ---------
 Symbolic Z-matrix:
 Charge =  0 Multiplicity = 1

                         Standard orientation:
 ---------------------------------------------------------------------
 Center     Atomic      Atomic             Coordinates (Angstroms)
 Number     Number       Type             X           Y           Z
 ---------------------------------------------------------------------
      1          6           0       -1.840191    0.109337    0.027497
      2          6           0       -0.626855   -0.356762   -0.107152
      3          6           0        0.614321    0.389795   -0.079423
      4          6           0        1.827271   -0.144086    0.075923
      5          1           0       -2.724542   -0.594022    0.308112
      6          1           0       -2.062504    1.102677    0.063686
      7          1           0       -0.476783   -1.392278   -0.047111
      8          1           0        0.698108    1.573973    0.060164
      9          1           0        2.045817   -1.147222    0.059960
     10          1           0        2.672630    0.467163    0.054117
 ---------------------------------------------------------------------

 SCF Done:  E(RB2PLYPD3) =  -155.674396377     A.U. after   12 cycles
 E2(B2PLYPD3) =    -0.2256545437D+00 E(B2PLYPD3) =    -0.15590005092060D+03

 The electronic state is 1-A.
 Alpha  occ. eigenvalues --  -10.63575 -10.62033 -10.61416 -10.60441  -0.93353
 Alpha  occ. eigenvalues --   -0.85758  -0.70848  -0.64068  -0.55210  -0.54270
 Alpha  occ. eigenvalues --   -0.47285  -0.44654  -0.40285  -0.38430  -0.28047
 Alpha virt. eigenvalues --    0.01643   0.06890   0.07388   0.07825   0.09734
 Alpha virt. eigenvalues --    0.11642   0.12437   0.14790   0.15617   0.16520
 Alpha virt. eigenvalues --    0.18818   0.19159   0.22675   0.23007   0.23953

 Mulliken charges:
               1
     1  C   -0.161755
     2  C   -0.027783
     3  C   -0.033693
     4  C   -0.167295
     5  H    0.069944
     6  H    0.076725
     7  H    0.065469
     8  H    0.040149
     9  H    0.059496
    10  H    0.078744
 Sum of Mulliken charges =   0.00000

 Dipole moment (field-independent basis, Debye):
    X=              0.0811    Y=             -0.0612    Z=              0.2963  Tot=              0.3132
 Quadrupole moment (field-independent basis, Debye-Ang):
   XX=            -23.3314   YY=            -23.3645   ZZ=            -28.9903
   XY=             -0.1927   XZ=             -0.6670   YZ=             -0.0288

 1\1\GINC-NODE33\SP\RB2PLYPD3-FC\def2QZVP\C4H6\BOITTIER\26-Aug-2020\0\\
 #p B2PLYPD3/Def2QZVP\\butadiene\\0,1\C,0,-3.843335,0.207966,0.065235\C
 ,0,-2.728531,-0.462819,-0.056512\C,0,-1.378174,0.061715,-0.062489\C,0,
 -0.272215,-0.665024,0.108138\H,0,-4.831473,-0.323464,0.3762\H,0,-3.892
 937,1.225313,0.06433\H,0,-2.756271,-1.505822,0.042464\H,0,-1.092583,1.
 218612,0.031362\H,0,-0.227778,-1.690627,0.129645\H,0,0.664567,-0.20807
 4,0.059475\\Version=ES64L-G09RevD.01\State=1-A\HF=-155.6743964\MP2=-15
 5.9000509\RMSD=3.949e-09\PG=C01 [X(C4H6)]\\@

 Normal termination of Gaussian 09 at Wed Aug 26 12:45:54 2020.
