 Gaussian 09, Revision D.01,
 Gaussian 09:  ES64L-G09RevD.01 24-Apr-2013

 --------------------
 #p B2PLYPD3/Def2QZVP
 --------------------

 ---------
 butadiene
 ---------
 Symbolic Z-matrix:
 Charge =  0 Multiplicity = 1

                         Standard orientation:
 ---------------------------------------------------------------------
 Center     Atomic      Atomic             Coordinates (Angstroms)
 Number     Number       Type             X           Y           Z
 ---------------------------------------------------------------------
      1          6           0        1.849020    0.097739   -0.000927
      2          6           0        0.605459   -0.391270    0.005037
      3          6           0       -0.601927    0.413468   -0.013217
      4          6           0       -1.841867   -0.119874    0.012474
      5          1           0        2.718728   -0.553167   -0.027738
      6          1           0        2.035802    1.175900    0.067297
      7          1           0        0.433366   -1.443811   -0.037418
      8          1           0       -0.498644    1.501346   -0.022880
      9          1           0       -2.003078   -1.180442    0.035883
     10          1           0       -2.750279    0.499801   -0.035342
 ---------------------------------------------------------------------

 SCF Done:  E(RB2PLYPD3) =  -155.699875772     A.U. after   11 cycles
 E2(B2PLYPD3) =    -0.2261422803D+00 E(B2PLYPD3) =    -0.15592601805251D+03

 The electronic state is 1-A.
 Alpha  occ. eigenvalues --  -10.62846 -10.62407 -10.61879 -10.61773  -0.92888
 Alpha  occ. eigenvalues --   -0.84622  -0.70164  -0.64234  -0.54471  -0.53750
 Alpha  occ. eigenvalues --   -0.46635  -0.45566  -0.41215  -0.38043  -0.27537
 Alpha virt. eigenvalues --    0.01507   0.06980   0.07433   0.08040   0.09521
 Alpha virt. eigenvalues --    0.11646   0.12409   0.14675   0.15849   0.16159
 Alpha virt. eigenvalues --    0.18825   0.20461   0.21579   0.22883   0.23610

 Mulliken charges:
               1
     1  C   -0.175195
     2  C   -0.032613
     3  C   -0.030437
     4  C   -0.176147
     5  H    0.085953
     6  H    0.066232
     7  H    0.058355
     8  H    0.055562
     9  H    0.065428
    10  H    0.082862
 Sum of Mulliken charges =   0.00000

 Dipole moment (field-independent basis, Debye):
    X=             -0.0197    Y=             -0.0216    Z=             -0.0204  Tot=              0.0356
 Quadrupole moment (field-independent basis, Debye-Ang):
   XX=            -23.4137   YY=            -23.1365   ZZ=            -29.3468
   XY=              0.1999   XZ=              0.0748   YZ=              0.0628

 1\1\GINC-NODE24\SP\RB2PLYPD3-FC\def2QZVP\C4H6\BOITTIER\26-Aug-2020\0\\
 #p B2PLYPD3/Def2QZVP\\butadiene\\0,1\C,0,-3.851821,0.215299,0.018202\C
 ,0,-2.717126,-0.490312,0.031936\C,0,-1.384141,0.083133,0.026326\C,0,-0
 .261087,-0.666063,0.021824\H,0,-4.824734,-0.266448,0.064572\H,0,-3.840
 938,1.306562,-0.086688\H,0,-2.737916,-1.554599,0.110172\H,0,-1.289107,
 1.171467,-0.000828\H,0,-0.294261,-1.738481,0.034474\H,0,0.744508,-0.21
 9508,0.051188\\Version=ES64L-G09RevD.01\State=1-A\HF=-155.6998758\MP2=
 -155.9260181\RMSD=5.039e-09\PG=C01 [X(C4H6)]\\@

 Normal termination of Gaussian 09 at Wed Aug 26 19:43:18 2020.
