 Gaussian 09, Revision D.01,
 Gaussian 09:  ES64L-G09RevD.01 24-Apr-2013

 --------------------
 #p B2PLYPD3/Def2QZVP
 --------------------

 ---------
 butadiene
 ---------
 Symbolic Z-matrix:
 Charge =  0 Multiplicity = 1

                         Standard orientation:
 ---------------------------------------------------------------------
 Center     Atomic      Atomic             Coordinates (Angstroms)
 Number     Number       Type             X           Y           Z
 ---------------------------------------------------------------------
      1          6           0        1.820392    0.125553    0.010051
      2          6           0        0.606027   -0.424625   -0.025888
      3          6           0       -0.581321    0.374650   -0.015035
      4          6           0       -1.827273   -0.095852    0.042099
      5          1           0        2.721275   -0.478505    0.130976
      6          1           0        1.937278    1.209123   -0.027978
      7          1           0        0.497453   -1.500442   -0.084406
      8          1           0       -0.547714    1.497848   -0.038721
      9          1           0       -2.074894   -1.142422   -0.022434
     10          1           0       -2.640352    0.536045   -0.024802
 ---------------------------------------------------------------------

 SCF Done:  E(RB2PLYPD3) =  -155.694942326     A.U. after   11 cycles
 E2(B2PLYPD3) =    -0.2258176574D+00 E(B2PLYPD3) =    -0.15592075998379D+03

 The electronic state is 1-A.
 Alpha  occ. eigenvalues --  -10.62607 -10.62475 -10.61744 -10.60564  -0.93336
 Alpha  occ. eigenvalues --   -0.85097  -0.70418  -0.63831  -0.54856  -0.54289
 Alpha  occ. eigenvalues --   -0.46582  -0.45013  -0.41548  -0.38273  -0.27515
 Alpha virt. eigenvalues --    0.01641   0.07055   0.07354   0.07962   0.09667
 Alpha virt. eigenvalues --    0.11645   0.12511   0.14786   0.15812   0.16456
 Alpha virt. eigenvalues --    0.18720   0.19956   0.22081   0.22574   0.24183

 Mulliken charges:
               1
     1  C   -0.169242
     2  C   -0.037411
     3  C   -0.019714
     4  C   -0.173595
     5  H    0.084389
     6  H    0.068765
     7  H    0.063213
     8  H    0.045895
     9  H    0.056468
    10  H    0.081232
 Sum of Mulliken charges =   0.00000

 Dipole moment (field-independent basis, Debye):
    X=              0.0377    Y=             -0.0193    Z=             -0.0972  Tot=              0.1060
 Quadrupole moment (field-independent basis, Debye-Ang):
   XX=            -23.5285   YY=            -23.0687   ZZ=            -29.1845
   XY=              0.0058   XZ=              0.4740   YZ=             -0.0467

 1\1\GINC-NODE34\SP\RB2PLYPD3-FC\def2QZVP\C4H6\BOITTIER\26-Aug-2020\0\\
 #p B2PLYPD3/Def2QZVP\\butadiene\\0,1\C,0,-3.817331,0.237967,0.002484\C
 ,0,-2.722083,-0.520713,0.061694\C,0,-1.410068,0.050731,0.033032\C,0,-0
 .269395,-0.63818,-0.003033\H,0,-4.812391,-0.197251,-0.10494\H,0,-3.736
 895,1.325506,0.006974\H,0,-2.809283,-1.596156,0.153425\H,0,-1.240574,1
 .161778,0.022435\H,0,-0.214553,-1.709746,0.094577\H,0,0.644313,-0.1614
 31,0.049071\\Version=ES64L-G09RevD.01\State=1-A\HF=-155.6949423\MP2=-1
 55.92076\RMSD=6.443e-09\PG=C01 [X(C4H6)]\\@

 Normal termination of Gaussian 09 at Wed Aug 26 10:23:58 2020.
