 Gaussian 09, Revision D.01,
 Gaussian 09:  ES64L-G09RevD.01 24-Apr-2013

 --------------------
 #p B2PLYPD3/Def2QZVP
 --------------------

 ---------
 butadiene
 ---------
 Symbolic Z-matrix:
 Charge =  0 Multiplicity = 1

                         Standard orientation:
 ---------------------------------------------------------------------
 Center     Atomic      Atomic             Coordinates (Angstroms)
 Number     Number       Type             X           Y           Z
 ---------------------------------------------------------------------
      1          6           0       -1.837778   -0.099553   -0.012038
      2          6           0       -0.594150    0.389746    0.023040
      3          6           0        0.605542   -0.427990    0.001017
      4          6           0        1.829085    0.127956   -0.026008
      5          1           0       -2.743008    0.510378   -0.007128
      6          1           0       -1.979187   -1.146928   -0.066412
      7          1           0       -0.478197    1.483557    0.053309
      8          1           0        0.499053   -1.497136    0.089704
      9          1           0        1.968445    1.199642   -0.028826
     10          1           0        2.716699   -0.490467    0.043285
 ---------------------------------------------------------------------

 SCF Done:  E(RB2PLYPD3) =  -155.699542911     A.U. after   11 cycles
 E2(B2PLYPD3) =    -0.2259529282D+00 E(B2PLYPD3) =    -0.15592549583883D+03

 The electronic state is 1-A.
 Alpha  occ. eigenvalues --  -10.62710 -10.62609 -10.61673 -10.61230  -0.92966
 Alpha  occ. eigenvalues --   -0.84772  -0.70029  -0.64262  -0.54461  -0.54092
 Alpha  occ. eigenvalues --   -0.46591  -0.45406  -0.41476  -0.38033  -0.27534
 Alpha virt. eigenvalues --    0.01686   0.07044   0.07424   0.08005   0.09431
 Alpha virt. eigenvalues --    0.11674   0.12547   0.14646   0.15830   0.16267
 Alpha virt. eigenvalues --    0.18762   0.20420   0.21656   0.22936   0.23783

 Mulliken charges:
               1
     1  C   -0.177152
     2  C   -0.024064
     3  C   -0.039285
     4  C   -0.173372
     5  H    0.085414
     6  H    0.062338
     7  H    0.052481
     8  H    0.061712
     9  H    0.069187
    10  H    0.082741
 Sum of Mulliken charges =   0.00000

 Dipole moment (field-independent basis, Debye):
    X=              0.0279    Y=             -0.0181    Z=              0.0921  Tot=              0.0979
 Quadrupole moment (field-independent basis, Debye-Ang):
   XX=            -23.4984   YY=            -23.0680   ZZ=            -29.2928
   XY=              0.0933   XZ=              0.2761   YZ=             -0.0504

 1\1\GINC-NODE26\SP\RB2PLYPD3-FC\def2QZVP\C4H6\BOITTIER\26-Aug-2020\0\\
 #p B2PLYPD3/Def2QZVP\\butadiene\\0,1\C,0,-3.843204,0.21089,0.032212\C,
 0,-2.707244,-0.493722,0.012929\C,0,-1.380648,0.096657,0.007292\C,0,-0.
 275963,-0.667875,0.052301\H,0,-4.842849,-0.227225,0.04793\H,0,-3.79487
 6,1.26788,0.0518\H,0,-2.788762,-1.591038,0.018985\H,0,-1.294978,1.1641
 45,-0.116838\H,0,-0.330288,-1.746539,0.090682\H,0,0.707397,-0.220682,-
 0.037854\\Version=ES64L-G09RevD.01\State=1-A\HF=-155.6995429\MP2=-155.
 9254958\RMSD=5.666e-09\PG=C01 [X(C4H6)]\\@

 Normal termination of Gaussian 09 at Wed Aug 26 16:25:24 2020.
