 Gaussian 09, Revision D.01,
 Gaussian 09:  ES64L-G09RevD.01 24-Apr-2013

 --------------------
 #p B2PLYPD3/Def2QZVP
 --------------------

 ---------
 butadiene
 ---------
 Symbolic Z-matrix:
 Charge =  0 Multiplicity = 1

                         Standard orientation:
 ---------------------------------------------------------------------
 Center     Atomic      Atomic             Coordinates (Angstroms)
 Number     Number       Type             X           Y           Z
 ---------------------------------------------------------------------
      1          6           0        1.830805    0.094043    0.032043
      2          6           0        0.595241   -0.410453   -0.055037
      3          6           0       -0.593333    0.388769   -0.018338
      4          6           0       -1.831406   -0.106140    0.008694
      5          1           0        2.721019   -0.511241    0.024307
      6          1           0        1.959993    1.239595    0.149079
      7          1           0        0.419874   -1.468705   -0.150921
      8          1           0       -0.348013    1.389445   -0.050772
      9          1           0       -2.169968   -1.055791    0.339530
     10          1           0       -2.590749    0.609379   -0.115396
 ---------------------------------------------------------------------

 SCF Done:  E(RB2PLYPD3) =  -155.685018072     A.U. after   12 cycles
 E2(B2PLYPD3) =    -0.2260235832D+00 E(B2PLYPD3) =    -0.15591104165561D+03

 The electronic state is 1-A.
 Alpha  occ. eigenvalues --  -10.62363 -10.62010 -10.61805 -10.60925  -0.93549
 Alpha  occ. eigenvalues --   -0.84826  -0.70954  -0.64481  -0.55319  -0.53385
 Alpha  occ. eigenvalues --   -0.47713  -0.45495  -0.40879  -0.37972  -0.27381
 Alpha virt. eigenvalues --    0.01217   0.06996   0.07439   0.08266   0.09468
 Alpha virt. eigenvalues --    0.11751   0.12330   0.15013   0.15713   0.16167
 Alpha virt. eigenvalues --    0.18517   0.20276   0.21386   0.22841   0.23787

 Mulliken charges:
               1
     1  C   -0.175590
     2  C   -0.026400
     3  C   -0.037246
     4  C   -0.180551
     5  H    0.091420
     6  H    0.051288
     7  H    0.057064
     8  H    0.064369
     9  H    0.083130
    10  H    0.072516
 Sum of Mulliken charges =   0.00000

 Dipole moment (field-independent basis, Debye):
    X=              0.0053    Y=             -0.0219    Z=              0.1589  Tot=              0.1604
 Quadrupole moment (field-independent basis, Debye-Ang):
   XX=            -23.5989   YY=            -23.3228   ZZ=            -28.9967
   XY=              0.3885   XZ=             -0.1743   YZ=             -0.2292

 1\1\GINC-NODE30\SP\RB2PLYPD3-FC\def2QZVP\C4H6\BOITTIER\26-Aug-2020\0\\
 #p B2PLYPD3/Def2QZVP\\butadiene\\0,1\C,0,-3.830348,0.230266,-0.012716\
 C,0,-2.713789,-0.499158,0.087048\C,0,-1.394408,0.056596,0.030644\C,0,-
 0.27408,-0.66669,0.016094\H,0,-4.819905,-0.193023,0.009951\H,0,-3.7384
 44,1.376154,-0.158222\H,0,-2.743758,-1.568745,0.209244\H,0,-1.443523,1
 .086216,0.038149\H,0,-0.125063,-1.671387,-0.290977\H,0,0.608734,-0.106
 963,0.122453\\Version=ES64L-G09RevD.01\State=1-A\HF=-155.6850181\MP2=-
 155.9110417\RMSD=4.668e-09\PG=C01 [X(C4H6)]\\@

 Normal termination of Gaussian 09 at Wed Aug 26 12:56:36 2020.
