 Gaussian 09, Revision D.01,
 Gaussian 09:  ES64L-G09RevD.01 24-Apr-2013

 --------------------
 #p B2PLYPD3/Def2QZVP
 --------------------

 ---------
 butadiene
 ---------
 Symbolic Z-matrix:
 Charge =  0 Multiplicity = 1

                         Standard orientation:
 ---------------------------------------------------------------------
 Center     Atomic      Atomic             Coordinates (Angstroms)
 Number     Number       Type             X           Y           Z
 ---------------------------------------------------------------------
      1          6           0        1.820784   -0.131485   -0.051470
      2          6           0        0.617197    0.429189    0.048682
      3          6           0       -0.593315   -0.375802    0.018084
      4          6           0       -1.834024    0.085519   -0.021394
      5          1           0        2.736328    0.458847    0.001607
      6          1           0        1.902095   -1.234139   -0.041284
      7          1           0        0.459166    1.522829    0.072497
      8          1           0       -0.452807   -1.432330    0.143487
      9          1           0       -1.949540    1.187065   -0.084885
     10          1           0       -2.759088   -0.546791   -0.054834
 ---------------------------------------------------------------------

 SCF Done:  E(RB2PLYPD3) =  -155.695927266     A.U. after   11 cycles
 E2(B2PLYPD3) =    -0.2261807386D+00 E(B2PLYPD3) =    -0.15592210800451D+03

 The electronic state is 1-A.
 Alpha  occ. eigenvalues --  -10.62846 -10.62103 -10.61960 -10.61909  -0.93211
 Alpha  occ. eigenvalues --   -0.84889  -0.69482  -0.63866  -0.54362  -0.53470
 Alpha  occ. eigenvalues --   -0.46962  -0.44801  -0.40871  -0.38165  -0.27911
 Alpha virt. eigenvalues --    0.01896   0.07015   0.07251   0.07963   0.09539
 Alpha virt. eigenvalues --    0.11663   0.12477   0.14414   0.15513   0.16287
 Alpha virt. eigenvalues --    0.18677   0.19813   0.21689   0.22650   0.23923

 Mulliken charges:
               1
     1  C   -0.165055
     2  C   -0.039762
     3  C   -0.016047
     4  C   -0.178018
     5  H    0.085963
     6  H    0.064093
     7  H    0.052699
     8  H    0.053224
     9  H    0.054488
    10  H    0.088415
 Sum of Mulliken charges =   0.00000

 Dipole moment (field-independent basis, Debye):
    X=              0.0560    Y=             -0.0156    Z=              0.0801  Tot=              0.0990
 Quadrupole moment (field-independent basis, Debye-Ang):
   XX=            -23.5659   YY=            -23.2498   ZZ=            -29.2983
   XY=              0.0728   XZ=              0.2074   YZ=             -0.1020

 1\1\GINC-NODE06\SP\RB2PLYPD3-FC\def2QZVP\C4H6\BOITTIER\26-Aug-2020\0\\
 #p B2PLYPD3/Def2QZVP\\butadiene\\0,1\C,0,-3.818943,0.238057,-0.027775\
 C,0,-2.734095,-0.525697,0.085339\C,0,-1.399651,0.049631,0.034902\C,0,-
 0.261224,-0.626301,0.006022\H,0,-4.824781,-0.17817,0.039853\H,0,-3.702
 383,1.33747,-0.044071\H,0,-2.773399,-1.629119,0.135378\H,0,-1.349021,1
 .116941,0.134923\H,0,-0.344179,-1.73198,-0.031012\H,0,0.761556,-0.1700
 15,-0.042988\\Version=ES64L-G09RevD.01\State=1-A\HF=-155.6959273\MP2=-
 155.922108\RMSD=7.089e-09\PG=C01 [X(C4H6)]\\@

 Normal termination of Gaussian 09 at Wed Aug 26 09:09:34 2020.
