 Gaussian 09, Revision D.01,
 Gaussian 09:  ES64L-G09RevD.01 24-Apr-2013

 --------------------
 #p B2PLYPD3/Def2QZVP
 --------------------

 ---------
 butadiene
 ---------
 Symbolic Z-matrix:
 Charge =  0 Multiplicity = 1

                         Standard orientation:
 ---------------------------------------------------------------------
 Center     Atomic      Atomic             Coordinates (Angstroms)
 Number     Number       Type             X           Y           Z
 ---------------------------------------------------------------------
      1          6           0       -1.852771   -0.117767    0.025005
      2          6           0       -0.608971    0.403921   -0.013726
      3          6           0        0.615775   -0.401995   -0.032368
      4          6           0        1.848578    0.110837    0.016452
      5          1           0       -2.697993    0.542489   -0.020462
      6          1           0       -2.039123   -1.180928    0.045916
      7          1           0       -0.468757    1.492376   -0.062258
      8          1           0        0.470676   -1.469096   -0.024524
      9          1           0        1.978340    1.179019    0.076902
     10          1           0        2.741191   -0.533828    0.012248
 ---------------------------------------------------------------------

 SCF Done:  E(RB2PLYPD3) =  -155.699982442     A.U. after   11 cycles
 E2(B2PLYPD3) =    -0.2260770451D+00 E(B2PLYPD3) =    -0.15592605948680D+03

 The electronic state is 1-A.
 Alpha  occ. eigenvalues --  -10.62993 -10.62520 -10.61726 -10.61655  -0.92643
 Alpha  occ. eigenvalues --   -0.84748  -0.70040  -0.64046  -0.54236  -0.53924
 Alpha  occ. eigenvalues --   -0.46556  -0.45947  -0.41090  -0.37838  -0.27643
 Alpha virt. eigenvalues --    0.01619   0.06982   0.07415   0.08043   0.09467
 Alpha virt. eigenvalues --    0.11689   0.12354   0.14699   0.15775   0.16082
 Alpha virt. eigenvalues --    0.18828   0.20507   0.21442   0.22844   0.23813

 Mulliken charges:
               1
     1  C   -0.180130
     2  C   -0.034452
     3  C   -0.029924
     4  C   -0.175152
     5  H    0.086723
     6  H    0.070169
     7  H    0.052995
     8  H    0.056251
     9  H    0.066591
    10  H    0.086929
 Sum of Mulliken charges =   0.00000

 Dipole moment (field-independent basis, Debye):
    X=             -0.0011    Y=             -0.0164    Z=             -0.0027  Tot=              0.0166
 Quadrupole moment (field-independent basis, Debye-Ang):
   XX=            -23.5538   YY=            -23.0416   ZZ=            -29.3659
   XY=              0.1596   XZ=              0.1951   YZ=             -0.0420

 1\1\GINC-NODE10\SP\RB2PLYPD3-FC\def2QZVP\C4H6\BOITTIER\26-Aug-2020\0\\
 #p B2PLYPD3/Def2QZVP\\butadiene\\0,1\C,0,-3.854721,0.229877,-0.004914\
 C,0,-2.723662,-0.503776,0.051248\C,0,-1.374775,0.070945,0.044103\C,0,-
 0.253433,-0.654848,0.012468\H,0,-4.803853,-0.267231,0.061707\H,0,-3.84
 8659,1.308,-0.060497\H,0,-2.779482,-1.597659,0.135243\H,0,-1.327347,1.
 146004,0.001467\H,0,-0.316516,-1.730427,-0.013125\H,0,0.73982,-0.17993
 1,-0.003983\\Version=ES64L-G09RevD.01\State=1-A\HF=-155.6999824\MP2=-1
 55.9260595\RMSD=5.452e-09\PG=C01 [X(C4H6)]\\@

 Normal termination of Gaussian 09 at Wed Aug 26 21:44:05 2020.
