 Gaussian 09, Revision D.01,
 Gaussian 09:  ES64L-G09RevD.01 24-Apr-2013

 --------------------
 #p B2PLYPD3/Def2QZVP
 --------------------

 ---------
 butadiene
 ---------
 Symbolic Z-matrix:
 Charge =  0 Multiplicity = 1

                         Standard orientation:
 ---------------------------------------------------------------------
 Center     Atomic      Atomic             Coordinates (Angstroms)
 Number     Number       Type             X           Y           Z
 ---------------------------------------------------------------------
      1          6           0       -1.832532    0.073740    0.006499
      2          6           0       -0.600570   -0.347097   -0.021715
      3          6           0        0.611510    0.450729   -0.028027
      4          6           0        1.796572   -0.149451    0.039087
      5          1           0       -2.698791   -0.565216   -0.098014
      6          1           0       -1.916277    1.179203    0.338516
      7          1           0       -0.413980   -1.436334   -0.078937
      8          1           0        0.487938    1.472937   -0.227887
      9          1           0        1.847109   -1.268858    0.122518
     10          1           0        2.844123    0.450743   -0.031262
 ---------------------------------------------------------------------

 SCF Done:  E(RB2PLYPD3) =  -155.677701551     A.U. after   12 cycles
 E2(B2PLYPD3) =    -0.2267106248D+00 E(B2PLYPD3) =    -0.15590441217569D+03

 The electronic state is 1-A.
 Alpha  occ. eigenvalues --  -10.63443 -10.62287 -10.62028 -10.61571  -0.93605
 Alpha  occ. eigenvalues --   -0.85045  -0.68848  -0.63849  -0.54342  -0.52813
 Alpha  occ. eigenvalues --   -0.47763  -0.43509  -0.40437  -0.38237  -0.28041
 Alpha virt. eigenvalues --    0.01952   0.06899   0.07238   0.07699   0.09280
 Alpha virt. eigenvalues --    0.11639   0.12313   0.14286   0.15233   0.16186
 Alpha virt. eigenvalues --    0.18447   0.19565   0.21194   0.22505   0.24042

 Mulliken charges:
               1
     1  C   -0.188109
     2  C   -0.006019
     3  C   -0.047911
     4  C   -0.159794
     5  H    0.094765
     6  H    0.055221
     7  H    0.040423
     8  H    0.071728
     9  H    0.066505
    10  H    0.073190
 Sum of Mulliken charges =   0.00000

 Dipole moment (field-independent basis, Debye):
    X=              0.0979    Y=             -0.0801    Z=             -0.0243  Tot=              0.1288
 Quadrupole moment (field-independent basis, Debye-Ang):
   XX=            -23.9364   YY=            -23.4585   ZZ=            -29.1504
   XY=              0.2898   XZ=             -0.2538   YZ=              0.0821

 1\1\GINC-NODE19\SP\RB2PLYPD3-FC\def2QZVP\C4H6\BOITTIER\26-Aug-2020\0\\
 #p B2PLYPD3/Def2QZVP\\butadiene\\0,1\C,0,-3.841135,0.17772,0.031345\C,
 0,-2.702703,-0.454165,0.013361\C,0,-1.369175,0.117188,-0.017704\C,0,-0
 .307855,-0.680233,0.064823\H,0,-4.807009,-0.301329,-0.053457\H,0,-3.72
 6799,1.289508,0.331599\H,0,-2.711145,-1.560406,-0.012833\H,0,-1.312184
 ,1.139174,-0.246656\H,0,-0.454612,-1.788256,0.180296\H,0,0.828507,-0.2
 76156,-0.024327\\Version=ES64L-G09RevD.01\State=1-A\HF=-155.6777016\MP
 2=-155.9044122\RMSD=2.848e-09\PG=C01 [X(C4H6)]\\@

 Normal termination of Gaussian 09 at Wed Aug 26 15:00:58 2020.
