 Gaussian 09, Revision D.01,
 Gaussian 09:  ES64L-G09RevD.01 24-Apr-2013

 --------------------
 #p B2PLYPD3/Def2QZVP
 --------------------

 ---------
 butadiene
 ---------
 Symbolic Z-matrix:
 Charge =  0 Multiplicity = 1

                         Standard orientation:
 ---------------------------------------------------------------------
 Center     Atomic      Atomic             Coordinates (Angstroms)
 Number     Number       Type             X           Y           Z
 ---------------------------------------------------------------------
      1          6           0        1.834743   -0.102484    0.024371
      2          6           0        0.606840    0.393214   -0.038776
      3          6           0       -0.596839   -0.421493   -0.048164
      4          6           0       -1.842239    0.114706    0.042451
      5          1           0        2.675242    0.552857    0.021126
      6          1           0        1.981483   -1.199295    0.059592
      7          1           0        0.480546    1.486072    0.074461
      8          1           0       -0.425360   -1.479899   -0.027312
      9          1           0       -1.921936    1.217273   -0.082029
     10          1           0       -2.805009   -0.480661    0.074865
 ---------------------------------------------------------------------

 SCF Done:  E(RB2PLYPD3) =  -155.693552777     A.U. after   11 cycles
 E2(B2PLYPD3) =    -0.2268560982D+00 E(B2PLYPD3) =    -0.15592040887484D+03

 The electronic state is 1-A.
 Alpha  occ. eigenvalues --  -10.62924 -10.62779 -10.62527 -10.61465  -0.92971
 Alpha  occ. eigenvalues --   -0.84543  -0.69658  -0.63845  -0.54322  -0.53398
 Alpha  occ. eigenvalues --   -0.46538  -0.45053  -0.41241  -0.38008  -0.27559
 Alpha virt. eigenvalues --    0.01516   0.06996   0.07283   0.07979   0.09274
 Alpha virt. eigenvalues --    0.11685   0.12453   0.14383   0.15575   0.16142
 Alpha virt. eigenvalues --    0.18718   0.19896   0.21476   0.22951   0.24183

 Mulliken charges:
               1
     1  C   -0.180244
     2  C   -0.018328
     3  C   -0.039552
     4  C   -0.171341
     5  H    0.090279
     6  H    0.062276
     7  H    0.050615
     8  H    0.057727
     9  H    0.064068
    10  H    0.084499
 Sum of Mulliken charges =   0.00000

 Dipole moment (field-independent basis, Debye):
    X=              0.0321    Y=             -0.0133    Z=              0.0462  Tot=              0.0578
 Quadrupole moment (field-independent basis, Debye-Ang):
   XX=            -23.6219   YY=            -23.1891   ZZ=            -29.4081
   XY=              0.0440   XZ=              0.1507   YZ=             -0.0910

 1\1\GINC-NODE11\SP\RB2PLYPD3-FC\def2QZVP\C4H6\BOITTIER\26-Aug-2020\0\\
 #p B2PLYPD3/Def2QZVP\\butadiene\\0,1\C,0,-3.838437,0.21487,0.048046\C,
 0,-2.719941,-0.495053,-0.001201\C,0,-1.389463,0.089381,-0.031921\C,0,-
 0.260362,-0.659439,0.073634\H,0,-4.783062,-0.278496,0.062022\H,0,-3.78
 5454,1.320731,0.053724\H,0,-2.791676,-1.589415,0.141409\H,0,-1.367782,
 1.161544,-0.039587\H,0,-0.380721,-1.76127,-0.021147\H,0,0.793886,-0.24
 6262,0.090483\\Version=ES64L-G09RevD.01\State=1-A\HF=-155.6935528\MP2=
 -155.9204089\RMSD=8.800e-09\PG=C01 [X(C4H6)]\\@

 Normal termination of Gaussian 09 at Wed Aug 26 10:33:29 2020.
