 Gaussian 09, Revision D.01,
 Gaussian 09:  ES64L-G09RevD.01 24-Apr-2013

 --------------------
 #p B2PLYPD3/Def2QZVP
 --------------------

 ---------
 butadiene
 ---------
 Symbolic Z-matrix:
 Charge =  0 Multiplicity = 1

                         Standard orientation:
 ---------------------------------------------------------------------
 Center     Atomic      Atomic             Coordinates (Angstroms)
 Number     Number       Type             X           Y           Z
 ---------------------------------------------------------------------
      1          6           0        1.838744    0.094372   -0.036746
      2          6           0        0.605432   -0.389643    0.015469
      3          6           0       -0.618054    0.427559    0.026774
      4          6           0       -1.835243   -0.127206   -0.016544
      5          1           0        2.659024   -0.574800    0.061633
      6          1           0        2.115760    1.166100   -0.131392
      7          1           0        0.456003   -1.427987    0.147095
      8          1           0       -0.494615    1.525462    0.168185
      9          1           0       -1.963939   -1.232336   -0.120178
     10          1           0       -2.717507    0.513070   -0.059068
 ---------------------------------------------------------------------

 SCF Done:  E(RB2PLYPD3) =  -155.696193182     A.U. after   11 cycles
 E2(B2PLYPD3) =    -0.2259018793D+00 E(B2PLYPD3) =    -0.15592209506119D+03

 The electronic state is 1-A.
 Alpha  occ. eigenvalues --  -10.62957 -10.62203 -10.62044 -10.61386  -0.92752
 Alpha  occ. eigenvalues --   -0.84893  -0.69733  -0.63753  -0.54439  -0.53595
 Alpha  occ. eigenvalues --   -0.46795  -0.45422  -0.40830  -0.37722  -0.27890
 Alpha virt. eigenvalues --    0.01942   0.07074   0.07295   0.07979   0.09375
 Alpha virt. eigenvalues --    0.11580   0.12284   0.14742   0.15632   0.16052
 Alpha virt. eigenvalues --    0.18792   0.20098   0.21491   0.22570   0.23916

 Mulliken charges:
               1
     1  C   -0.174795
     2  C   -0.035028
     3  C   -0.039590
     4  C   -0.173777
     5  H    0.081391
     6  H    0.066808
     7  H    0.063176
     8  H    0.060189
     9  H    0.065774
    10  H    0.085852
 Sum of Mulliken charges =   0.00000

 Dipole moment (field-independent basis, Debye):
    X=              0.0072    Y=              0.0031    Z=              0.0813  Tot=              0.0817
 Quadrupole moment (field-independent basis, Debye-Ang):
   XX=            -23.6898   YY=            -23.0198   ZZ=            -29.2632
   XY=              0.2421   XZ=              0.3196   YZ=             -0.0609

 1\1\GINC-NODE09\SP\RB2PLYPD3-FC\def2QZVP\C4H6\BOITTIER\26-Aug-2020\0\\
 #p B2PLYPD3/Def2QZVP\\butadiene\\0,1\C,0,-3.844584,0.211522,0.049102\C
 ,0,-2.719355,-0.48909,0.016583\C,0,-1.368168,0.092436,-0.014825\C,0,-0
 .271447,-0.671867,0.05024\H,0,-4.772609,-0.30084,-0.032044\H,0,-3.9228
 58,1.318083,0.109874\H,0,-2.760577,-1.540879,-0.082676\H,0,-1.291049,1
 .189672,-0.19019\H,0,-0.344766,-1.778319,0.188087\H,0,0.712215,-0.2008
 46,0.076686\\Version=ES64L-G09RevD.01\State=1-A\HF=-155.6961932\MP2=-1
 55.9220951\RMSD=5.456e-09\PG=C01 [X(C4H6)]\\@

 Normal termination of Gaussian 09 at Wed Aug 26 09:26:11 2020.
