 Gaussian 09, Revision D.01,
 Gaussian 09:  ES64L-G09RevD.01 24-Apr-2013

 --------------------
 #p B2PLYPD3/Def2QZVP
 --------------------

 ---------
 butadiene
 ---------
 Symbolic Z-matrix:
 Charge =  0 Multiplicity = 1

                         Standard orientation:
 ---------------------------------------------------------------------
 Center     Atomic      Atomic             Coordinates (Angstroms)
 Number     Number       Type             X           Y           Z
 ---------------------------------------------------------------------
      1          6           0       -1.836893    0.101077    0.008781
      2          6           0       -0.594898   -0.400930   -0.005501
      3          6           0        0.606384    0.416652   -0.017725
      4          6           0        1.826590   -0.123565    0.000299
      5          1           0       -2.741050   -0.511595   -0.033992
      6          1           0       -1.985136    1.183864    0.089309
      7          1           0       -0.468431   -1.470537   -0.030909
      8          1           0        0.492847    1.519312   -0.044741
      9          1           0        1.977403   -1.189945    0.075451
     10          1           0        2.717268    0.509494    0.029755
 ---------------------------------------------------------------------

 SCF Done:  E(RB2PLYPD3) =  -155.699794197     A.U. after   11 cycles
 E2(B2PLYPD3) =    -0.2260723516D+00 E(B2PLYPD3) =    -0.15592586654815D+03

 The electronic state is 1-A.
 Alpha  occ. eigenvalues --  -10.62834 -10.62507 -10.61746 -10.61589  -0.92973
 Alpha  occ. eigenvalues --   -0.84731  -0.69786  -0.64009  -0.54362  -0.53885
 Alpha  occ. eigenvalues --   -0.46469  -0.45261  -0.41276  -0.38136  -0.27601
 Alpha virt. eigenvalues --    0.01762   0.07016   0.07332   0.07984   0.09444
 Alpha virt. eigenvalues --    0.11676   0.12444   0.14615   0.15911   0.16142
 Alpha virt. eigenvalues --    0.18731   0.20463   0.21522   0.22889   0.23717

 Mulliken charges:
               1
     1  C   -0.175144
     2  C   -0.031673
     3  C   -0.029583
     4  C   -0.173469
     5  H    0.085642
     6  H    0.061492
     7  H    0.057462
     8  H    0.055035
     9  H    0.067656
    10  H    0.082581
 Sum of Mulliken charges =   0.00000

 Dipole moment (field-independent basis, Debye):
    X=              0.0252    Y=             -0.0165    Z=              0.0663  Tot=              0.0728
 Quadrupole moment (field-independent basis, Debye-Ang):
   XX=            -23.5725   YY=            -23.0654   ZZ=            -29.3284
   XY=             -0.0847   XZ=              0.1798   YZ=              0.0426

 1\1\GINC-NODE03\SP\RB2PLYPD3-FC\def2QZVP\C4H6\BOITTIER\26-Aug-2020\0\\
 #p B2PLYPD3/Def2QZVP\\butadiene\\0,1\C,0,-3.84117,0.214992,0.026484\C,
 0,-2.709414,-0.501865,0.029793\C,0,-1.380974,0.08631,-0.001296\C,0,-0.
 277445,-0.663321,0.035292\H,0,-4.840653,-0.226496,-0.002145\H,0,-3.792
 6,1.308612,0.07672\H,0,-2.776934,-1.577095,0.034226\H,0,-1.294907,1.19
 0277,-0.059005\H,0,-0.320239,-1.736967,0.140232\H,0,0.712408,-0.199735
 ,0.050006\\Version=ES64L-G09RevD.01\State=1-A\HF=-155.6997942\MP2=-155
 .9258665\RMSD=3.468e-09\PG=C01 [X(C4H6)]\\@

 Normal termination of Gaussian 09 at Wed Aug 26 21:39:52 2020.
