 Gaussian 09, Revision D.01,
 Gaussian 09:  ES64L-G09RevD.01 24-Apr-2013

 --------------------
 #p B2PLYPD3/Def2QZVP
 --------------------

 ---------
 butadiene
 ---------
 Symbolic Z-matrix:
 Charge =  0 Multiplicity = 1

                         Standard orientation:
 ---------------------------------------------------------------------
 Center     Atomic      Atomic             Coordinates (Angstroms)
 Number     Number       Type             X           Y           Z
 ---------------------------------------------------------------------
      1          6           0        1.856065    0.085609   -0.044259
      2          6           0        0.586524   -0.408555    0.075897
      3          6           0       -0.596435    0.471602    0.006023
      4          6           0       -1.813951   -0.134891   -0.072957
      5          1           0        2.665076   -0.616286    0.051154
      6          1           0        1.986812    1.175300   -0.190034
      7          1           0        0.325685   -1.420286    0.113658
      8          1           0       -0.500840    1.586704    0.176763
      9          1           0       -1.989174   -1.297839   -0.133704
     10          1           0       -2.680776    0.489815    0.193937
 ---------------------------------------------------------------------

 SCF Done:  E(RB2PLYPD3) =  -155.678332602     A.U. after   11 cycles
 E2(B2PLYPD3) =    -0.2286113886D+00 E(B2PLYPD3) =    -0.15590694399064D+03

 The electronic state is 1-A.
 Alpha  occ. eigenvalues --  -10.63619 -10.62987 -10.62680 -10.62141  -0.92318
 Alpha  occ. eigenvalues --   -0.83767  -0.69255  -0.63768  -0.53675  -0.52823
 Alpha  occ. eigenvalues --   -0.45998  -0.45697  -0.41121  -0.37049  -0.27163
 Alpha virt. eigenvalues --    0.01200   0.06879   0.07046   0.07776   0.08821
 Alpha virt. eigenvalues --    0.11723   0.12067   0.14488   0.15437   0.15926
 Alpha virt. eigenvalues --    0.18852   0.19906   0.20620   0.22740   0.23958

 Mulliken charges:
               1
     1  C   -0.178537
     2  C   -0.043797
     3  C   -0.033299
     4  C   -0.176485
     5  H    0.090365
     6  H    0.073931
     7  H    0.066280
     8  H    0.064508
     9  H    0.060242
    10  H    0.076792
 Sum of Mulliken charges =   0.00000

 Dipole moment (field-independent basis, Debye):
    X=             -0.0174    Y=             -0.0276    Z=              0.2553  Tot=              0.2574
 Quadrupole moment (field-independent basis, Debye-Ang):
   XX=            -24.5795   YY=            -22.7047   ZZ=            -29.5684
   XY=              0.3480   XZ=             -0.6727   YZ=              0.1294

 1\1\GINC-NODE33\SP\RB2PLYPD3-FC\def2QZVP\C4H6\BOITTIER\26-Aug-2020\0\\
 #p B2PLYPD3/Def2QZVP\\butadiene\\0,1\C,0,-3.855812,0.216549,0.066624\C
 ,0,-2.702446,-0.511114,-0.03645\C,0,-1.375128,0.134187,-0.008846\C,0,-
 0.291565,-0.685645,0.09207\H,0,-4.782778,-0.324869,0.004489\H,0,-3.778
 941,1.316582,0.16556\H,0,-2.635714,-1.554466,-0.031301\H,0,-1.262622,1
 .23933,-0.227348\H,0,-0.336058,-1.857256,0.202477\H,0,0.673597,-0.2459
 71,-0.204621\\Version=ES64L-G09RevD.01\State=1-A\HF=-155.6783326\MP2=-
 155.906944\RMSD=9.032e-09\PG=C01 [X(C4H6)]\\@

 Normal termination of Gaussian 09 at Wed Aug 26 15:36:10 2020.
