 Gaussian 09, Revision D.01,
 Gaussian 09:  ES64L-G09RevD.01 24-Apr-2013

 --------------------
 #p B2PLYPD3/Def2QZVP
 --------------------

 ---------
 butadiene
 ---------
 Symbolic Z-matrix:
 Charge =  0 Multiplicity = 1

                         Standard orientation:
 ---------------------------------------------------------------------
 Center     Atomic      Atomic             Coordinates (Angstroms)
 Number     Number       Type             X           Y           Z
 ---------------------------------------------------------------------
      1          6           0       -1.847052    0.119245    0.005816
      2          6           0       -0.615543   -0.398894    0.015616
      3          6           0        0.607277    0.382479   -0.010403
      4          6           0        1.845845   -0.110658   -0.015968
      5          1           0       -2.747202   -0.532756   -0.074093
      6          1           0       -1.963737    1.184488    0.090827
      7          1           0       -0.542168   -1.480134   -0.069269
      8          1           0        0.488603    1.498409   -0.054494
      9          1           0        2.106093   -1.148727    0.115435
     10          1           0        2.715247    0.525685    0.021227
 ---------------------------------------------------------------------

 SCF Done:  E(RB2PLYPD3) =  -155.696979326     A.U. after   11 cycles
 E2(B2PLYPD3) =    -0.2260716475D+00 E(B2PLYPD3) =    -0.15592305097373D+03

 The electronic state is 1-A.
 Alpha  occ. eigenvalues --  -10.63109 -10.62538 -10.61842 -10.61450  -0.92890
 Alpha  occ. eigenvalues --   -0.84988  -0.70135  -0.63715  -0.54699  -0.53718
 Alpha  occ. eigenvalues --   -0.46597  -0.45247  -0.40816  -0.38171  -0.27775
 Alpha virt. eigenvalues --    0.01569   0.06971   0.07430   0.07853   0.09611
 Alpha virt. eigenvalues --    0.11603   0.12426   0.14752   0.15792   0.16154
 Alpha virt. eigenvalues --    0.18870   0.20237   0.21666   0.22742   0.23612

 Mulliken charges:
               1
     1  C   -0.175638
     2  C   -0.027629
     3  C   -0.034527
     4  C   -0.167007
     5  H    0.086229
     6  H    0.067472
     7  H    0.057274
     8  H    0.049742
     9  H    0.065063
    10  H    0.079020
 Sum of Mulliken charges =   0.00000

 Dipole moment (field-independent basis, Debye):
    X=              0.0089    Y=             -0.0267    Z=              0.0448  Tot=              0.0530
 Quadrupole moment (field-independent basis, Debye-Ang):
   XX=            -23.3219   YY=            -23.2356   ZZ=            -29.2838
   XY=             -0.0859   XZ=              0.4104   YZ=              0.0725

 1\1\GINC-NODE36\SP\RB2PLYPD3-FC\def2QZVP\C4H6\BOITTIER\26-Aug-2020\0\\
 #p B2PLYPD3/Def2QZVP\\butadiene\\0,1\C,0,-3.847994,0.228317,0.0186\C,0
 ,-2.726998,-0.498122,0.047484\C,0,-1.385663,0.054829,0.007792\C,0,-0.2
 53309,-0.648643,0.020721\H,0,-4.848875,-0.256853,-0.049276\H,0,-3.7752
 71,1.299288,0.076184\H,0,-2.845172,-1.577207,-0.009784\H,0,-1.30592,1.
 172717,-0.06497\H,0,-0.180012,-1.712598,0.179499\H,0,0.714564,-0.17456
 4,0.046141\\Version=ES64L-G09RevD.01\State=1-A\HF=-155.6969793\MP2=-15
 5.923051\RMSD=4.490e-09\PG=C01 [X(C4H6)]\\@

 Normal termination of Gaussian 09 at Wed Aug 26 08:39:31 2020.
