 Gaussian 09, Revision D.01,
 Gaussian 09:  ES64L-G09RevD.01 24-Apr-2013

 --------------------
 #p B2PLYPD3/Def2QZVP
 --------------------

 ---------
 butadiene
 ---------
 Symbolic Z-matrix:
 Charge =  0 Multiplicity = 1

                         Standard orientation:
 ---------------------------------------------------------------------
 Center     Atomic      Atomic             Coordinates (Angstroms)
 Number     Number       Type             X           Y           Z
 ---------------------------------------------------------------------
      1          6           0       -1.865077    0.097217    0.090124
      2          6           0       -0.619913   -0.361854   -0.055830
      3          6           0        0.633958    0.435560   -0.064750
      4          6           0        1.832835   -0.121799    0.032121
      5          1           0       -2.639149   -0.621408   -0.067268
      6          1           0       -2.150258    1.133260    0.076180
      7          1           0       -0.459912   -1.496390   -0.101601
      8          1           0        0.599820    1.564756   -0.196206
      9          1           0        1.959177   -1.242552    0.035258
     10          1           0        2.799497    0.367591    0.243649
 ---------------------------------------------------------------------

 SCF Done:  E(RB2PLYPD3) =  -155.686337200     A.U. after   11 cycles
 E2(B2PLYPD3) =    -0.2268162464D+00 E(B2PLYPD3) =    -0.15591315344669D+03

 The electronic state is 1-A.
 Alpha  occ. eigenvalues --  -10.63698 -10.63516 -10.62340 -10.61230  -0.92376
 Alpha  occ. eigenvalues --   -0.85107  -0.69612  -0.62912  -0.54316  -0.53566
 Alpha  occ. eigenvalues --   -0.46878  -0.44525  -0.40450  -0.37484  -0.28084
 Alpha virt. eigenvalues --    0.01683   0.06883   0.07205   0.07785   0.09373
 Alpha virt. eigenvalues --    0.11286   0.12544   0.14378   0.15611   0.16676
 Alpha virt. eigenvalues --    0.18853   0.19200   0.21932   0.22901   0.23328

 Mulliken charges:
               1
     1  C   -0.166667
     2  C   -0.034322
     3  C   -0.035680
     4  C   -0.156191
     5  H    0.080396
     6  H    0.069523
     7  H    0.049828
     8  H    0.058932
     9  H    0.049693
    10  H    0.084490
 Sum of Mulliken charges =   0.00000

 Dipole moment (field-independent basis, Debye):
    X=              0.1359    Y=              0.0277    Z=             -0.0937  Tot=              0.1674
 Quadrupole moment (field-independent basis, Debye-Ang):
   XX=            -23.3651   YY=            -23.3170   ZZ=            -29.3312
   XY=             -0.2758   XZ=              0.8085   YZ=              0.0907

 1\1\GINC-NODE17\SP\RB2PLYPD3-FC\def2QZVP\C4H6\BOITTIER\26-Aug-2020\0\\
 #p B2PLYPD3/Def2QZVP\\butadiene\\0,1\C,0,-3.870355,0.205517,0.096453\C
 ,0,-2.724813,-0.469798,-0.022559\C,0,-1.3506,0.094806,-0.0526\C,0,-0.2
 68009,-0.659645,0.074441\H,0,-4.758279,-0.372056,-0.039125\H,0,-3.9695
 58,1.274147,0.040794\H,0,-2.766075,-1.615732,-0.023738\H,0,-1.186245,1
 .206549,-0.22737\H,0,-0.340025,-1.784222,0.121354\H,0,0.769318,-0.3392
 01,0.274312\\Version=ES64L-G09RevD.01\State=1-A\HF=-155.6863372\MP2=-1
 55.9131534\RMSD=9.394e-09\PG=C01 [X(C4H6)]\\@

 Normal termination of Gaussian 09 at Wed Aug 26 15:47:58 2020.
