 Gaussian 09, Revision D.01,
 Gaussian 09:  ES64L-G09RevD.01 24-Apr-2013

 --------------------
 #p B2PLYPD3/Def2QZVP
 --------------------

 ---------
 butadiene
 ---------
 Symbolic Z-matrix:
 Charge =  0 Multiplicity = 1

                         Standard orientation:
 ---------------------------------------------------------------------
 Center     Atomic      Atomic             Coordinates (Angstroms)
 Number     Number       Type             X           Y           Z
 ---------------------------------------------------------------------
      1          6           0        1.840905   -0.103243    0.003277
      2          6           0        0.605919    0.386499   -0.024529
      3          6           0       -0.604706   -0.399166   -0.010400
      4          6           0       -1.843765    0.104934    0.006665
      5          1           0        2.691174    0.568218    0.068920
      6          1           0        2.046582   -1.173426    0.019917
      7          1           0        0.469686    1.477645   -0.000927
      8          1           0       -0.434209   -1.471207    0.004847
      9          1           0       -2.040346    1.167649    0.030690
     10          1           0       -2.723006   -0.503020    0.026479
 ---------------------------------------------------------------------

 SCF Done:  E(RB2PLYPD3) =  -155.700625146     A.U. after   11 cycles
 E2(B2PLYPD3) =    -0.2256660062D+00 E(B2PLYPD3) =    -0.15592629115172D+03

 The electronic state is 1-A.
 Alpha  occ. eigenvalues --  -10.62581 -10.62436 -10.61579 -10.61524  -0.93100
 Alpha  occ. eigenvalues --   -0.84951  -0.70537  -0.63852  -0.54878  -0.53772
 Alpha  occ. eigenvalues --   -0.46994  -0.45531  -0.40801  -0.38281  -0.27717
 Alpha virt. eigenvalues --    0.01607   0.06990   0.07387   0.08072   0.09786
 Alpha virt. eigenvalues --    0.11644   0.12423   0.14814   0.15895   0.16075
 Alpha virt. eigenvalues --    0.18846   0.20586   0.21752   0.22674   0.23602

 Mulliken charges:
               1
     1  C   -0.177227
     2  C   -0.020884
     3  C   -0.032845
     4  C   -0.172566
     5  H    0.085756
     6  H    0.065116
     7  H    0.049421
     8  H    0.053233
     9  H    0.064279
    10  H    0.085717
 Sum of Mulliken charges =   0.00000

 Dipole moment (field-independent basis, Debye):
    X=             -0.0193    Y=              0.0038    Z=              0.1133  Tot=              0.1150
 Quadrupole moment (field-independent basis, Debye-Ang):
   XX=            -23.3047   YY=            -23.2114   ZZ=            -29.2462
   XY=             -0.2895   XZ=              0.1130   YZ=              0.0468

 1\1\GINC-NODE20\SP\RB2PLYPD3-FC\def2QZVP\C4H6\BOITTIER\26-Aug-2020\0\\
 #p B2PLYPD3/Def2QZVP\\butadiene\\0,1\C,0,-3.843342,0.222678,0.025579\C
 ,0,-2.719035,-0.485585,0.015129\C,0,-1.384984,0.065128,0.004934\C,0,-0
 .259082,-0.65654,0.039804\H,0,-4.801833,-0.279241,0.112171\H,0,-3.8495
 4,1.312398,0.007053\H,0,-2.784746,-1.581886,0.074483\H,0,-1.356264,1.1
 50186,-0.015006\H,0,-0.260259,-1.735943,0.09872\H,0,0.716684,-0.219567
 ,0.040729\\Version=ES64L-G09RevD.01\State=1-A\HF=-155.7006251\MP2=-155
 .9262912\RMSD=4.423e-09\PG=C01 [X(C4H6)]\\@

 Normal termination of Gaussian 09 at Wed Aug 26 16:20:25 2020.
