 Gaussian 09, Revision D.01,
 Gaussian 09:  ES64L-G09RevD.01 24-Apr-2013

 --------------------
 #p B2PLYPD3/Def2QZVP
 --------------------

 ---------
 butadiene
 ---------
 Symbolic Z-matrix:
 Charge =  0 Multiplicity = 1

                         Standard orientation:
 ---------------------------------------------------------------------
 Center     Atomic      Atomic             Coordinates (Angstroms)
 Number     Number       Type             X           Y           Z
 ---------------------------------------------------------------------
      1          6           0       -1.836994    0.121610    0.035197
      2          6           0       -0.605409   -0.439410   -0.054392
      3          6           0        0.591278    0.405572   -0.006251
      4          6           0        1.845097   -0.095821    0.017100
      5          1           0       -2.672356   -0.509272    0.097105
      6          1           0       -1.966992    1.221047   -0.026995
      7          1           0       -0.447035   -1.498114   -0.023469
      8          1           0        0.425952    1.478893   -0.093298
      9          1           0        1.979602   -1.163352    0.005362
     10          1           0        2.717000    0.519089    0.091370
 ---------------------------------------------------------------------

 SCF Done:  E(RB2PLYPD3) =  -155.696282163     A.U. after   11 cycles
 E2(B2PLYPD3) =    -0.2265531587D+00 E(B2PLYPD3) =    -0.15592283532179D+03

 The electronic state is 1-A.
 Alpha  occ. eigenvalues --  -10.62830 -10.62751 -10.61810 -10.61399  -0.92623
 Alpha  occ. eigenvalues --   -0.84457  -0.70142  -0.64314  -0.54625  -0.53644
 Alpha  occ. eigenvalues --   -0.46514  -0.45845  -0.41706  -0.37635  -0.27292
 Alpha virt. eigenvalues --    0.01537   0.07080   0.07309   0.08199   0.09042
 Alpha virt. eigenvalues --    0.11697   0.12468   0.14630   0.15602   0.16340
 Alpha virt. eigenvalues --    0.18699   0.20025   0.21770   0.23427   0.23869

 Mulliken charges:
               1
     1  C   -0.176457
     2  C   -0.043288
     3  C   -0.023598
     4  C   -0.184251
     5  H    0.087598
     6  H    0.070737
     7  H    0.061804
     8  H    0.056180
     9  H    0.062876
    10  H    0.088398
 Sum of Mulliken charges =   0.00000

 Dipole moment (field-independent basis, Debye):
    X=             -0.0427    Y=             -0.0287    Z=              0.0070  Tot=              0.0519
 Quadrupole moment (field-independent basis, Debye-Ang):
   XX=            -23.7370   YY=            -22.9284   ZZ=            -29.3837
   XY=             -0.1615   XZ=             -0.0157   YZ=             -0.1521

 1\1\GINC-NODE36\SP\RB2PLYPD3-FC\def2QZVP\C4H6\BOITTIER\26-Aug-2020\0\\
 #p B2PLYPD3/Def2QZVP\\butadiene\\0,1\C,0,-3.834314,0.243547,0.051934\C
 ,0,-2.727018,-0.536944,-0.013638\C,0,-1.395389,0.075247,0.005293\C,0,-
 0.254764,-0.646518,0.050381\H,0,-4.770954,-0.220524,0.135713\H,0,-3.76
 0658,1.345047,-0.051991\H,0,-2.765453,-1.604814,0.057568\H,0,-1.36137,
 1.156645,-0.122564\H,0,-0.318482,-1.720277,0.079235\H,0,0.715506,-0.19
 9736,0.103368\\Version=ES64L-G09RevD.01\State=1-A\HF=-155.6962822\MP2=
 -155.9228353\RMSD=6.634e-09\PG=C01 [X(C4H6)]\\@

 Normal termination of Gaussian 09 at Wed Aug 26 11:19:48 2020.
