 Gaussian 09, Revision D.01,
 Gaussian 09:  ES64L-G09RevD.01 24-Apr-2013

 --------------------
 #p B2PLYPD3/Def2QZVP
 --------------------

 ---------
 butadiene
 ---------
 Symbolic Z-matrix:
 Charge =  0 Multiplicity = 1

                         Standard orientation:
 ---------------------------------------------------------------------
 Center     Atomic      Atomic             Coordinates (Angstroms)
 Number     Number       Type             X           Y           Z
 ---------------------------------------------------------------------
      1          6           0        1.823347    0.082102    0.039748
      2          6           0        0.603524   -0.396510   -0.081085
      3          6           0       -0.572992    0.476570   -0.098165
      4          6           0       -1.798188   -0.137752    0.061190
      5          1           0        2.757249   -0.550462    0.172039
      6          1           0        2.021635    1.106967    0.244934
      7          1           0        0.290909   -1.447933   -0.060143
      8          1           0       -0.576268    1.561656   -0.194735
      9          1           0       -2.005264   -1.241137   -0.017255
     10          1           0       -2.822407    0.424445    0.325032
 ---------------------------------------------------------------------

 SCF Done:  E(RB2PLYPD3) =  -155.673936612     A.U. after   12 cycles
 E2(B2PLYPD3) =    -0.2283071147D+00 E(B2PLYPD3) =    -0.15590224372713D+03

 The electronic state is 1-A.
 Alpha  occ. eigenvalues --  -10.63853 -10.63673 -10.62987 -10.61542  -0.92929
 Alpha  occ. eigenvalues --   -0.83938  -0.68964  -0.64397  -0.54102  -0.53098
 Alpha  occ. eigenvalues --   -0.46503  -0.44111  -0.40652  -0.37801  -0.27266
 Alpha virt. eigenvalues --    0.01498   0.06817   0.07253   0.07696   0.08694
 Alpha virt. eigenvalues --    0.11416   0.12511   0.14050   0.15739   0.16483
 Alpha virt. eigenvalues --    0.18759   0.20091   0.21385   0.22580   0.23259

 Mulliken charges:
               1
     1  C   -0.162589
     2  C   -0.024270
     3  C   -0.044301
     4  C   -0.175312
     5  H    0.069698
     6  H    0.067999
     7  H    0.063779
     8  H    0.078040
     9  H    0.063189
    10  H    0.063766
 Sum of Mulliken charges =   0.00000

 Dipole moment (field-independent basis, Debye):
    X=             -0.0944    Y=              0.0158    Z=              0.2626  Tot=              0.2795
 Quadrupole moment (field-independent basis, Debye-Ang):
   XX=            -23.9360   YY=            -23.2461   ZZ=            -29.3776
   XY=              0.6271   XZ=              0.1965   YZ=              0.1721

 1\1\GINC-NODE05\SP\RB2PLYPD3-FC\def2QZVP\C4H6\BOITTIER\26-Aug-2020\0\\
 #p B2PLYPD3/Def2QZVP\\butadiene\\0,1\C,0,-3.823097,0.199696,-0.031428\
 C,0,-2.713043,-0.493883,0.104096\C,0,-1.395079,0.146209,0.106174\C,0,-
 0.305075,-0.687895,-0.035434\H,0,-4.858144,-0.251616,-0.153105\H,0,-3.
 828123,1.238757,-0.259672\H,0,-2.600736,-1.585228,0.107247\H,0,-1.1906
 82,1.21376,0.178998\H,0,-0.306047,-1.808531,0.067848\H,0,0.805433,-0.3
 31221,-0.307939\\Version=ES64L-G09RevD.01\State=1-A\HF=-155.6739366\MP
 2=-155.9022437\RMSD=5.183e-09\PG=C01 [X(C4H6)]\\@

 Normal termination of Gaussian 09 at Wed Aug 26 17:04:53 2020.
