 Gaussian 09, Revision D.01,
 Gaussian 09:  ES64L-G09RevD.01 24-Apr-2013

 --------------------
 #p B2PLYPD3/Def2QZVP
 --------------------

 ---------
 butadiene
 ---------
 Symbolic Z-matrix:
 Charge =  0 Multiplicity = 1

                         Standard orientation:
 ---------------------------------------------------------------------
 Center     Atomic      Atomic             Coordinates (Angstroms)
 Number     Number       Type             X           Y           Z
 ---------------------------------------------------------------------
      1          6           0       -1.834940    0.088903    0.022211
      2          6           0       -0.613763   -0.380645   -0.054681
      3          6           0        0.607589    0.451176   -0.014550
      4          6           0        1.828507   -0.134329    0.034983
      5          1           0       -2.689807   -0.550323    0.036735
      6          1           0       -1.944004    1.164605    0.157224
      7          1           0       -0.443013   -1.489301   -0.079690
      8          1           0        0.486783    1.531731   -0.127578
      9          1           0        1.939883   -1.253285    0.113841
     10          1           0        2.725796    0.445944   -0.028312
 ---------------------------------------------------------------------

 SCF Done:  E(RB2PLYPD3) =  -155.695305145     A.U. after   11 cycles
 E2(B2PLYPD3) =    -0.2261659082D+00 E(B2PLYPD3) =    -0.15592147105286D+03

 The electronic state is 1-A.
 Alpha  occ. eigenvalues --  -10.63209 -10.62535 -10.62232 -10.60911  -0.92705
 Alpha  occ. eigenvalues --   -0.84889  -0.69522  -0.63476  -0.54646  -0.53529
 Alpha  occ. eigenvalues --   -0.46820  -0.45057  -0.40877  -0.37872  -0.27853
 Alpha virt. eigenvalues --    0.01986   0.07038   0.07217   0.08033   0.09292
 Alpha virt. eigenvalues --    0.11677   0.12388   0.14492   0.15656   0.16223
 Alpha virt. eigenvalues --    0.18706   0.20173   0.21352   0.22852   0.23859

 Mulliken charges:
               1
     1  C   -0.176022
     2  C   -0.014598
     3  C   -0.047867
     4  C   -0.173676
     5  H    0.091712
     6  H    0.060528
     7  H    0.046037
     8  H    0.061105
     9  H    0.065406
    10  H    0.087375
 Sum of Mulliken charges =   0.00000

 Dipole moment (field-independent basis, Debye):
    X=              0.0430    Y=              0.0062    Z=              0.0214  Tot=              0.0484
 Quadrupole moment (field-independent basis, Debye-Ang):
   XX=            -23.6970   YY=            -23.0457   ZZ=            -29.3248
   XY=             -0.0020   XZ=             -0.3512   YZ=             -0.0992

 1\1\GINC-NODE09\SP\RB2PLYPD3-FC\def2QZVP\C4H6\BOITTIER\26-Aug-2020\0\\
 #p B2PLYPD3/Def2QZVP\\butadiene\\0,1\C,0,-3.840836,0.198566,0.045763\C
 ,0,-2.723658,-0.48408,-0.013982\C,0,-1.373216,0.117162,-0.006828\C,0,-
 0.276017,-0.674681,0.064217\H,0,-4.795904,-0.276707,0.085529\H,0,-3.75
 5182,1.280764,0.139403\H,0,-2.753657,-1.605549,0.003519\H,0,-1.300145,
 1.196881,-0.161223\H,0,-0.365479,-1.791759,0.185951\H,0,0.709899,-0.26
 6786,-0.02205\\Version=ES64L-G09RevD.01\State=1-A\HF=-155.6953051\MP2=
 -155.9214711\RMSD=7.541e-09\PG=C01 [X(C4H6)]\\@

 Normal termination of Gaussian 09 at Wed Aug 26 11:09:20 2020.
