 Gaussian 09, Revision D.01,
 Gaussian 09:  ES64L-G09RevD.01 24-Apr-2013

 --------------------
 #p B2PLYPD3/Def2QZVP
 --------------------

 ---------
 butadiene
 ---------
 Symbolic Z-matrix:
 Charge =  0 Multiplicity = 1

                         Standard orientation:
 ---------------------------------------------------------------------
 Center     Atomic      Atomic             Coordinates (Angstroms)
 Number     Number       Type             X           Y           Z
 ---------------------------------------------------------------------
      1          6           0        1.870873   -0.138582   -0.061494
      2          6           0        0.631181    0.439160    0.079939
      3          6           0       -0.607468   -0.361852    0.073279
      4          6           0       -1.861585    0.094266   -0.093043
      5          1           0        2.817291    0.439888   -0.154278
      6          1           0        1.911124   -1.200806   -0.039358
      7          1           0        0.532896    1.553657    0.034521
      8          1           0       -0.478729   -1.480691    0.227346
      9          1           0       -2.279071    1.110368    0.124879
     10          1           0       -2.701516   -0.620363   -0.185197
 ---------------------------------------------------------------------

 SCF Done:  E(RB2PLYPD3) =  -155.682400843     A.U. after   12 cycles
 E2(B2PLYPD3) =    -0.2283138234D+00 E(B2PLYPD3) =    -0.15591071466653D+03

 The electronic state is 1-A.
 Alpha  occ. eigenvalues --  -10.63958 -10.63906 -10.62552 -10.62393  -0.92016
 Alpha  occ. eigenvalues --   -0.84235  -0.69924  -0.63180  -0.54314  -0.52705
 Alpha  occ. eigenvalues --   -0.46649  -0.45056  -0.41055  -0.36910  -0.27362
 Alpha virt. eigenvalues --    0.00911   0.06862   0.07243   0.07746   0.08788
 Alpha virt. eigenvalues --    0.11355   0.12465   0.14443   0.15570   0.16520
 Alpha virt. eigenvalues --    0.18834   0.19936   0.21411   0.22676   0.23829

 Mulliken charges:
               1
     1  C   -0.167867
     2  C   -0.041465
     3  C   -0.036887
     4  C   -0.168659
     5  H    0.090075
     6  H    0.068417
     7  H    0.060707
     8  H    0.054133
     9  H    0.071829
    10  H    0.069717
 Sum of Mulliken charges =   0.00000

 Dipole moment (field-independent basis, Debye):
    X=              0.0364    Y=             -0.0120    Z=              0.1314  Tot=              0.1369
 Quadrupole moment (field-independent basis, Debye-Ang):
   XX=            -23.1719   YY=            -23.4258   ZZ=            -29.5438
   XY=             -0.2173   XZ=             -0.5006   YZ=             -0.0101

 1\1\GINC-NODE01\SP\RB2PLYPD3-FC\def2QZVP\C4H6\BOITTIER\26-Aug-2020\0\\
 #p B2PLYPD3/Def2QZVP\\butadiene\\0,1\C,0,-3.864962,0.250832,-0.051315\
 C,0,-2.746196,-0.530452,0.11775\C,0,-1.385878,0.039284,0.088594\C,0,-0
 .23184,-0.636224,-0.05424\H,0,-4.898544,-0.155076,-0.128066\H,0,-3.717
 545,1.303646,-0.068103\H,0,-2.845715,-1.645757,0.113489\H,0,-1.315452,
 1.168218,0.201108\H,0,0.000471,-1.701218,0.202796\H,0,0.720686,-0.0844
 43,-0.167835\\Version=ES64L-G09RevD.01\State=1-A\HF=-155.6824008\MP2=-
 155.9107147\RMSD=3.537e-09\PG=C01 [X(C4H6)]\\@

 Normal termination of Gaussian 09 at Wed Aug 26 15:07:45 2020.
