 Gaussian 09, Revision D.01,
 Gaussian 09:  ES64L-G09RevD.01 24-Apr-2013

 --------------------
 #p B2PLYPD3/Def2QZVP
 --------------------

 ---------
 butadiene
 ---------
 Symbolic Z-matrix:
 Charge =  0 Multiplicity = 1

                         Standard orientation:
 ---------------------------------------------------------------------
 Center     Atomic      Atomic             Coordinates (Angstroms)
 Number     Number       Type             X           Y           Z
 ---------------------------------------------------------------------
      1          6           0       -1.831993    0.111162    0.015600
      2          6           0       -0.609390   -0.413172   -0.012509
      3          6           0        0.598933    0.400002   -0.005096
      4          6           0        1.838345   -0.109869    0.003480
      5          1           0       -2.730852   -0.462678   -0.009681
      6          1           0       -1.935188    1.200191   -0.022390
      7          1           0       -0.511989   -1.504227   -0.021651
      8          1           0        0.479374    1.491220    0.027321
      9          1           0        2.009104   -1.181032    0.050953
     10          1           0        2.714177    0.527788   -0.033399
 ---------------------------------------------------------------------

 SCF Done:  E(RB2PLYPD3) =  -155.700237480     A.U. after   11 cycles
 E2(B2PLYPD3) =    -0.2258753504D+00 E(B2PLYPD3) =    -0.15592611283069D+03

 The electronic state is 1-A.
 Alpha  occ. eigenvalues --  -10.62814 -10.62612 -10.61602 -10.61368  -0.92928
 Alpha  occ. eigenvalues --   -0.84901  -0.69929  -0.63884  -0.54718  -0.53865
 Alpha  occ. eigenvalues --   -0.46595  -0.45218  -0.41314  -0.38095  -0.27673
 Alpha virt. eigenvalues --    0.01796   0.07046   0.07344   0.08025   0.09493
 Alpha virt. eigenvalues --    0.11653   0.12524   0.14540   0.15889   0.16244
 Alpha virt. eigenvalues --    0.18753   0.20491   0.21572   0.22830   0.23841

 Mulliken charges:
               1
     1  C   -0.170637
     2  C   -0.028869
     3  C   -0.031463
     4  C   -0.176589
     5  H    0.087840
     6  H    0.058824
     7  H    0.053921
     8  H    0.054559
     9  H    0.066735
    10  H    0.085679
 Sum of Mulliken charges =   0.00000

 Dipole moment (field-independent basis, Debye):
    X=             -0.0221    Y=             -0.0185    Z=             -0.0211  Tot=              0.0357
 Quadrupole moment (field-independent basis, Debye-Ang):
   XX=            -23.4401   YY=            -23.1094   ZZ=            -29.3063
   XY=              0.0068   XZ=              0.1031   YZ=             -0.0509

 1\1\GINC-NODE34\SP\RB2PLYPD3-FC\def2QZVP\C4H6\BOITTIER\26-Aug-2020\0\\
 #p B2PLYPD3/Def2QZVP\\butadiene\\0,1\C,0,-3.834239,0.222355,0.03157\C,
 0,-2.724705,-0.512043,0.023216\C,0,-1.390815,0.072657,0.008603\C,0,-0.
 26206,-0.649366,0.036511\H,0,-4.821026,-0.182655,0.021714\H,0,-3.74185
 5,1.310622,-0.040658\H,0,-2.823286,-1.60274,0.048382\H,0,-1.313943,1.1
 68189,0.006634\H,0,-0.284752,-1.731804,0.117847\H,0,0.713263,-0.179428
 ,-0.017817\\Version=ES64L-G09RevD.01\State=1-A\HF=-155.7002375\MP2=-15
 5.9261128\RMSD=4.044e-09\PG=C01 [X(C4H6)]\\@

 Normal termination of Gaussian 09 at Wed Aug 26 08:59:00 2020.
