 Gaussian 09, Revision D.01,
 Gaussian 09:  ES64L-G09RevD.01 24-Apr-2013

 --------------------
 #p B2PLYPD3/Def2QZVP
 --------------------

 ---------
 butadiene
 ---------
 Symbolic Z-matrix:
 Charge =  0 Multiplicity = 1

                         Standard orientation:
 ---------------------------------------------------------------------
 Center     Atomic      Atomic             Coordinates (Angstroms)
 Number     Number       Type             X           Y           Z
 ---------------------------------------------------------------------
      1          6           0        1.840322    0.104589    0.018233
      2          6           0        0.603652   -0.394245   -0.030121
      3          6           0       -0.605844    0.404540   -0.011119
      4          6           0       -1.836272   -0.107398    0.003585
      5          1           0        2.667764   -0.574614    0.075664
      6          1           0        2.056144    1.189557   -0.005821
      7          1           0        0.437261   -1.464291   -0.037268
      8          1           0       -0.453035    1.466901   -0.030407
      9          1           0       -1.998224   -1.176545    0.042441
     10          1           0       -2.721057    0.514074    0.071923
 ---------------------------------------------------------------------

 SCF Done:  E(RB2PLYPD3) =  -155.700431856     A.U. after   11 cycles
 E2(B2PLYPD3) =    -0.2256351516D+00 E(B2PLYPD3) =    -0.15592606700769D+03

 The electronic state is 1-A.
 Alpha  occ. eigenvalues --  -10.62410 -10.62267 -10.61682 -10.61502  -0.93094
 Alpha  occ. eigenvalues --   -0.84907  -0.70263  -0.64116  -0.54673  -0.53767
 Alpha  occ. eigenvalues --   -0.46860  -0.45706  -0.41004  -0.38158  -0.27700
 Alpha virt. eigenvalues --    0.01725   0.07002   0.07380   0.08132   0.09649
 Alpha virt. eigenvalues --    0.11701   0.12359   0.14787   0.15881   0.16019
 Alpha virt. eigenvalues --    0.18780   0.20544   0.21576   0.22848   0.23771

 Mulliken charges:
               1
     1  C   -0.178691
     2  C   -0.030758
     3  C   -0.027726
     4  C   -0.174498
     5  H    0.086261
     6  H    0.068386
     7  H    0.053517
     8  H    0.055702
     9  H    0.063253
    10  H    0.084554
 Sum of Mulliken charges =   0.00000

 Dipole moment (field-independent basis, Debye):
    X=             -0.0062    Y=             -0.0027    Z=              0.0789  Tot=              0.0792
 Quadrupole moment (field-independent basis, Debye-Ang):
   XX=            -23.5461   YY=            -23.0830   ZZ=            -29.2465
   XY=              0.2556   XZ=             -0.0876   YZ=             -0.0715

 1\1\GINC-NODE38\SP\RB2PLYPD3-FC\def2QZVP\C4H6\BOITTIER\26-Aug-2020\0\\
 #p B2PLYPD3/Def2QZVP\\butadiene\\0,1\C,0,-3.841973,0.224168,0.000217\C
 ,0,-2.717635,-0.491796,0.06175\C,0,-1.382206,0.070834,0.024655\C,0,-0.
 266628,-0.658367,0.023459\H,0,-4.780164,-0.292866,-0.041618\H,0,-3.855
 018,1.330575,-0.002083\H,0,-2.750336,-1.573726,0.094836\H,0,-1.337472,
 1.14335,0.018195\H,0,-0.303688,-1.739696,0.010529\H,0,0.716903,-0.2115
 9,-0.058993\\Version=ES64L-G09RevD.01\State=1-A\HF=-155.7004319\MP2=-1
 55.926067\RMSD=2.470e-09\PG=C01 [X(C4H6)]\\@

 Normal termination of Gaussian 09 at Wed Aug 26 22:12:02 2020.
