 Gaussian 09, Revision D.01,
 Gaussian 09:  ES64L-G09RevD.01 24-Apr-2013

 --------------------
 #p B2PLYPD3/Def2QZVP
 --------------------

 ---------
 butadiene
 ---------
 Symbolic Z-matrix:
 Charge =  0 Multiplicity = 1

                         Standard orientation:
 ---------------------------------------------------------------------
 Center     Atomic      Atomic             Coordinates (Angstroms)
 Number     Number       Type             X           Y           Z
 ---------------------------------------------------------------------
      1          6           0       -1.828330    0.100437    0.012149
      2          6           0       -0.598024   -0.386535   -0.018603
      3          6           0        0.593311    0.407669   -0.052673
      4          6           0        1.839112   -0.116327    0.035014
      5          1           0       -2.714823   -0.509974   -0.027958
      6          1           0       -1.972620    1.165116    0.211196
      7          1           0       -0.498071   -1.482663   -0.082187
      8          1           0        0.443150    1.480779   -0.070768
      9          1           0        1.933355   -1.149673    0.141064
     10          1           0        2.772595    0.464949   -0.026665
 ---------------------------------------------------------------------

 SCF Done:  E(RB2PLYPD3) =  -155.696350174     A.U. after   11 cycles
 E2(B2PLYPD3) =    -0.2260855733D+00 E(B2PLYPD3) =    -0.15592243574753D+03

 The electronic state is 1-A.
 Alpha  occ. eigenvalues --  -10.62729 -10.62325 -10.61669 -10.61334  -0.93331
 Alpha  occ. eigenvalues --   -0.84839  -0.70441  -0.64083  -0.54724  -0.54011
 Alpha  occ. eigenvalues --   -0.46774  -0.45435  -0.41362  -0.38210  -0.27453
 Alpha virt. eigenvalues --    0.01385   0.07050   0.07457   0.07979   0.09596
 Alpha virt. eigenvalues --    0.11654   0.12592   0.14739   0.15863   0.16243
 Alpha virt. eigenvalues --    0.18777   0.20301   0.21724   0.22529   0.23724

 Mulliken charges:
               1
     1  C   -0.176963
     2  C   -0.019044
     3  C   -0.036057
     4  C   -0.174412
     5  H    0.086168
     6  H    0.059770
     7  H    0.049093
     8  H    0.056796
     9  H    0.067816
    10  H    0.086834
 Sum of Mulliken charges =   0.00000

 Dipole moment (field-independent basis, Debye):
    X=              0.0035    Y=             -0.0334    Z=              0.0914  Tot=              0.0974
 Quadrupole moment (field-independent basis, Debye-Ang):
   XX=            -23.3143   YY=            -23.3349   ZZ=            -29.1838
   XY=             -0.0087   XZ=             -0.1044   YZ=              0.0996

 1\1\GINC-NODE03\SP\RB2PLYPD3-FC\def2QZVP\C4H6\BOITTIER\26-Aug-2020\0\\
 #p B2PLYPD3/Def2QZVP\\butadiene\\0,1\C,0,-3.833345,0.212375,0.035774\C
 ,0,-2.710678,-0.488324,0.016268\C,0,-1.396141,0.077928,-0.034247\C,0,-
 0.264493,-0.659439,0.065467\H,0,-4.815222,-0.22949,0.008339\H,0,-3.783
 313,1.289653,0.211697\H,0,-2.809528,-1.585672,-0.02357\H,0,-1.351088,1
 .159918,-0.075601\H,0,-0.357119,-1.690394,0.193864\H,0,0.758037,-0.256
 846,-0.008203\\Version=ES64L-G09RevD.01\State=1-A\HF=-155.6963502\MP2=
 -155.9224357\RMSD=6.516e-09\PG=C01 [X(C4H6)]\\@

 Normal termination of Gaussian 09 at Wed Aug 26 09:08:42 2020.
