 Gaussian 09, Revision D.01,
 Gaussian 09:  ES64L-G09RevD.01 24-Apr-2013

 --------------------
 #p B2PLYPD3/Def2QZVP
 --------------------

 ---------
 butadiene
 ---------
 Symbolic Z-matrix:
 Charge =  0 Multiplicity = 1

                         Standard orientation:
 ---------------------------------------------------------------------
 Center     Atomic      Atomic             Coordinates (Angstroms)
 Number     Number       Type             X           Y           Z
 ---------------------------------------------------------------------
      1          6           0       -1.843859    0.097151   -0.020829
      2          6           0       -0.596983   -0.395489    0.008401
      3          6           0        0.594573    0.415174    0.028812
      4          6           0        1.827055   -0.114364   -0.009895
      5          1           0       -2.716082   -0.529143   -0.003133
      6          1           0       -1.988689    1.165115   -0.061845
      7          1           0       -0.396543   -1.467063    0.103489
      8          1           0        0.479576    1.509167    0.062062
      9          1           0        1.982691   -1.184030   -0.089897
     10          1           0        2.754333    0.491113   -0.049612
 ---------------------------------------------------------------------

 SCF Done:  E(RB2PLYPD3) =  -155.699165529     A.U. after   11 cycles
 E2(B2PLYPD3) =    -0.2262952519D+00 E(B2PLYPD3) =    -0.15592546078095D+03

 The electronic state is 1-A.
 Alpha  occ. eigenvalues --  -10.62755 -10.62640 -10.61945 -10.61519  -0.93091
 Alpha  occ. eigenvalues --   -0.84611  -0.70217  -0.63974  -0.54666  -0.53611
 Alpha  occ. eigenvalues --   -0.46705  -0.45365  -0.41209  -0.38164  -0.27501
 Alpha virt. eigenvalues --    0.01525   0.07034   0.07326   0.08022   0.09497
 Alpha virt. eigenvalues --    0.11659   0.12511   0.14650   0.15765   0.16165
 Alpha virt. eigenvalues --    0.18735   0.20458   0.21667   0.22939   0.23487

 Mulliken charges:
               1
     1  C   -0.180308
     2  C   -0.027355
     3  C   -0.027076
     4  C   -0.173180
     5  H    0.089792
     6  H    0.066284
     7  H    0.054214
     8  H    0.053486
     9  H    0.062332
    10  H    0.081811
 Sum of Mulliken charges =   0.00000

 Dipole moment (field-independent basis, Debye):
    X=              0.0252    Y=              0.0003    Z=             -0.0155  Tot=              0.0296
 Quadrupole moment (field-independent basis, Debye-Ang):
   XX=            -23.4213   YY=            -23.2089   ZZ=            -29.3208
   XY=             -0.2151   XZ=             -0.2328   YZ=             -0.0508

 1\1\GINC-NODE30\SP\RB2PLYPD3-FC\def2QZVP\C4H6\BOITTIER\26-Aug-2020\0\\
 #p B2PLYPD3/Def2QZVP\\butadiene\\0,1\C,0,-3.845064,0.21707,0.000347\C,
 0,-2.709301,-0.494451,0.045378\C,0,-1.389381,0.084497,0.040289\C,0,-0.
 274906,-0.662762,0.018583\H,0,-4.817087,-0.238018,0.037735\H,0,-3.7921
 67,1.291687,-0.074511\H,0,-2.707885,-1.581115,0.174405\H,0,-1.301971,1
 .181542,0.038839\H,0,-0.318174,-1.744805,-0.02746\H,0,0.747305,-0.2388
 99,-0.040146\\Version=ES64L-G09RevD.01\State=1-A\HF=-155.6991655\MP2=-
 155.9254608\RMSD=2.640e-09\PG=C01 [X(C4H6)]\\@

 Normal termination of Gaussian 09 at Wed Aug 26 16:26:27 2020.
