 Gaussian 09, Revision D.01,
 Gaussian 09:  ES64L-G09RevD.01 24-Apr-2013

 --------------------
 #p B2PLYPD3/Def2QZVP
 --------------------

 ---------
 butadiene
 ---------
 Symbolic Z-matrix:
 Charge =  0 Multiplicity = 1

                         Standard orientation:
 ---------------------------------------------------------------------
 Center     Atomic      Atomic             Coordinates (Angstroms)
 Number     Number       Type             X           Y           Z
 ---------------------------------------------------------------------
      1          6           0       -1.836012    0.113162    0.029152
      2          6           0       -0.607304   -0.394842   -0.016237
      3          6           0        0.606626    0.410103   -0.025321
      4          6           0        1.835216   -0.119384    0.016271
      5          1           0       -2.669339   -0.573582    0.010984
      6          1           0       -1.989168    1.168370   -0.017491
      7          1           0       -0.498623   -1.465322   -0.026119
      8          1           0        0.464746    1.490156   -0.049591
      9          1           0        2.002179   -1.174312   -0.028971
     10          1           0        2.699052    0.500456    0.088005
 ---------------------------------------------------------------------

 SCF Done:  E(RB2PLYPD3) =  -155.700390731     A.U. after   11 cycles
 E2(B2PLYPD3) =    -0.2254012064D+00 E(B2PLYPD3) =    -0.15592579193746D+03

 The electronic state is 1-A.
 Alpha  occ. eigenvalues --  -10.62632 -10.62173 -10.61249 -10.61110  -0.93009
 Alpha  occ. eigenvalues --   -0.85078  -0.70200  -0.64247  -0.54606  -0.54228
 Alpha  occ. eigenvalues --   -0.46491  -0.46094  -0.41376  -0.38008  -0.27661
 Alpha virt. eigenvalues --    0.01827   0.07028   0.07450   0.08099   0.09566
 Alpha virt. eigenvalues --    0.11770   0.12417   0.14846   0.15872   0.16102
 Alpha virt. eigenvalues --    0.18760   0.20394   0.21608   0.23055   0.24080

 Mulliken charges:
               1
     1  C   -0.180233
     2  C   -0.024308
     3  C   -0.035370
     4  C   -0.177052
     5  H    0.084994
     6  H    0.068804
     7  H    0.053905
     8  H    0.054747
     9  H    0.069184
    10  H    0.085329
 Sum of Mulliken charges =   0.00000

 Dipole moment (field-independent basis, Debye):
    X=              0.0381    Y=             -0.0192    Z=             -0.0560  Tot=              0.0704
 Quadrupole moment (field-independent basis, Debye-Ang):
   XX=            -23.6851   YY=            -22.9440   ZZ=            -29.2138
   XY=             -0.1213   XZ=              0.2178   YZ=              0.0369

 1\1\GINC-NODE25\SP\RB2PLYPD3-FC\def2QZVP\C4H6\BOITTIER\26-Aug-2020\0\\
 #p B2PLYPD3/Def2QZVP\\butadiene\\0,1\C,0,-3.838134,0.225013,0.043963\C
 ,0,-2.720362,-0.495907,0.017303\C,0,-1.381913,0.078036,-0.0108\C,0,-0.
 267945,-0.661481,0.050101\H,0,-4.781014,-0.301634,0.042712\H,0,-3.7999
 12,1.288799,-0.033461\H,0,-2.805179,-1.568378,0.038515\H,0,-1.328106,1
 .164881,-0.066535\H,0,-0.292702,-1.730114,0.035717\H,0,0.693067,-0.204
 547,0.106919\\Version=ES64L-G09RevD.01\State=1-A\HF=-155.7003907\MP2=-
 155.9257919\RMSD=4.286e-09\PG=C01 [X(C4H6)]\\@

 Normal termination of Gaussian 09 at Wed Aug 26 15:15:08 2020.
