 Gaussian 09, Revision D.01,
 Gaussian 09:  ES64L-G09RevD.01 24-Apr-2013

 --------------------
 #p B2PLYPD3/Def2QZVP
 --------------------

 ---------
 butadiene
 ---------
 Symbolic Z-matrix:
 Charge =  0 Multiplicity = 1

                         Standard orientation:
 ---------------------------------------------------------------------
 Center     Atomic      Atomic             Coordinates (Angstroms)
 Number     Number       Type             X           Y           Z
 ---------------------------------------------------------------------
      1          6           0        1.852886    0.100112   -0.016966
      2          6           0        0.603193   -0.389589    0.020214
      3          6           0       -0.616405    0.410960    0.010565
      4          6           0       -1.846793   -0.109587   -0.012188
      5          1           0        2.721858   -0.554404   -0.047989
      6          1           0        2.065379    1.171498    0.023984
      7          1           0        0.464269   -1.451522    0.053124
      8          1           0       -0.479027    1.494506   -0.000608
      9          1           0       -1.980829   -1.209311   -0.038514
     10          1           0       -2.748931    0.477861    0.000251
 ---------------------------------------------------------------------

 SCF Done:  E(RB2PLYPD3) =  -155.700088749     A.U. after   11 cycles
 E2(B2PLYPD3) =    -0.2260222779D+00 E(B2PLYPD3) =    -0.15592611102733D+03

 The electronic state is 1-A.
 Alpha  occ. eigenvalues --  -10.62770 -10.62599 -10.61868 -10.61852  -0.92785
 Alpha  occ. eigenvalues --   -0.84743  -0.70128  -0.64026  -0.54717  -0.53525
 Alpha  occ. eigenvalues --   -0.46982  -0.45287  -0.41013  -0.37992  -0.27684
 Alpha virt. eigenvalues --    0.01592   0.06981   0.07390   0.08076   0.09559
 Alpha virt. eigenvalues --    0.11601   0.12433   0.14566   0.15854   0.16205
 Alpha virt. eigenvalues --    0.18878   0.20510   0.21587   0.22663   0.23659

 Mulliken charges:
               1
     1  C   -0.175657
     2  C   -0.032108
     3  C   -0.031962
     4  C   -0.170425
     5  H    0.084578
     6  H    0.065623
     7  H    0.056974
     8  H    0.054478
     9  H    0.059656
    10  H    0.088844
 Sum of Mulliken charges =   0.00000

 Dipole moment (field-independent basis, Debye):
    X=             -0.0236    Y=              0.0060    Z=              0.0145  Tot=              0.0283
 Quadrupole moment (field-independent basis, Debye-Ang):
   XX=            -23.2778   YY=            -23.2113   ZZ=            -29.3476
   XY=              0.1447   XZ=              0.0026   YZ=              0.0494

 1\1\GINC-NODE38\SP\RB2PLYPD3-FC\def2QZVP\C4H6\BOITTIER\26-Aug-2020\0\\
 #p B2PLYPD3/Def2QZVP\\butadiene\\0,1\C,0,-3.85769,0.216683,0.034936\C,
 0,-2.716789,-0.491065,0.015987\C,0,-1.372919,0.076577,0.002332\C,0,-0.
 256332,-0.656103,0.044238\H,0,-4.830213,-0.269254,0.085247\H,0,-3.8738
 92,1.306956,-0.040834\H,0,-2.771533,-1.561151,0.017487\H,0,-1.312845,1
 .166939,-0.021584\H,0,-0.322464,-1.760569,0.106146\H,0,0.736805,-0.241
 482,0.014722\\Version=ES64L-G09RevD.01\State=1-A\HF=-155.7000887\MP2=-
 155.926111\RMSD=3.539e-09\PG=C01 [X(C4H6)]\\@

 Normal termination of Gaussian 09 at Wed Aug 26 19:41:04 2020.
