 Gaussian 09, Revision D.01,
 Gaussian 09:  ES64L-G09RevD.01 24-Apr-2013

 --------------------
 #p B2PLYPD3/Def2QZVP
 --------------------

 ---------
 butadiene
 ---------
 Symbolic Z-matrix:
 Charge =  0 Multiplicity = 1

                         Standard orientation:
 ---------------------------------------------------------------------
 Center     Atomic      Atomic             Coordinates (Angstroms)
 Number     Number       Type             X           Y           Z
 ---------------------------------------------------------------------
      1          6           0       -1.832469    0.092803   -0.017439
      2          6           0       -0.591122   -0.379436    0.022844
      3          6           0        0.601121    0.414589    0.014052
      4          6           0        1.831829   -0.123405   -0.034036
      5          1           0       -2.706768   -0.536233   -0.024989
      6          1           0       -2.025673    1.163983   -0.063776
      7          1           0       -0.477007   -1.455328    0.094249
      8          1           0        0.484112    1.475765    0.086659
      9          1           0        1.974653   -1.185652   -0.043667
     10          1           0        2.694527    0.510155    0.039000
 ---------------------------------------------------------------------

 SCF Done:  E(RB2PLYPD3) =  -155.700423004     A.U. after   11 cycles
 E2(B2PLYPD3) =    -0.2255883202D+00 E(B2PLYPD3) =    -0.15592601132387D+03

 The electronic state is 1-A.
 Alpha  occ. eigenvalues --  -10.62348 -10.62135 -10.61444 -10.61335  -0.93330
 Alpha  occ. eigenvalues --   -0.84923  -0.70452  -0.64304  -0.54764  -0.54185
 Alpha  occ. eigenvalues --   -0.46677  -0.45629  -0.41454  -0.38224  -0.27537
 Alpha virt. eigenvalues --    0.01587   0.07047   0.07479   0.08048   0.09741
 Alpha virt. eigenvalues --    0.11703   0.12479   0.14812   0.15882   0.16198
 Alpha virt. eigenvalues --    0.18797   0.20435   0.21672   0.22654   0.23921

 Mulliken charges:
               1
     1  C   -0.176700
     2  C   -0.022074
     3  C   -0.035936
     4  C   -0.176145
     5  H    0.085531
     6  H    0.059459
     7  H    0.052224
     8  H    0.059280
     9  H    0.069444
    10  H    0.084918
 Sum of Mulliken charges =   0.00000

 Dipole moment (field-independent basis, Debye):
    X=              0.0075    Y=              0.0023    Z=              0.1045  Tot=              0.1048
 Quadrupole moment (field-independent basis, Debye-Ang):
   XX=            -23.4846   YY=            -23.1060   ZZ=            -29.1903
   XY=             -0.0891   XZ=              0.2471   YZ=              0.0241

 1\1\GINC-NODE27\SP\RB2PLYPD3-FC\def2QZVP\C4H6\BOITTIER\26-Aug-2020\0\\
 #p B2PLYPD3/Def2QZVP\\butadiene\\0,1\C,0,-3.838595,0.208426,-0.000005\
 C,0,-2.703629,-0.480086,0.058111\C,0,-1.387,0.083647,0.031826\C,0,-0.2
 74555,-0.670043,0.00339\H,0,-4.81262,-0.251327,0.006577\H,0,-3.834068,
 1.295157,-0.076802\H,0,-2.786753,-1.556383,0.159795\H,0,-1.30921,1.150
 036,0.074494\H,0,-0.327073,-1.74041,0.023801\H,0,0.688969,-0.201903,0.
 062099\\Version=ES64L-G09RevD.01\State=1-A\HF=-155.700423\MP2=-155.926
 0113\RMSD=6.292e-09\PG=C01 [X(C4H6)]\\@

 Normal termination of Gaussian 09 at Wed Aug 26 18:43:12 2020.
