 Gaussian 09, Revision D.01,
 Gaussian 09:  ES64L-G09RevD.01 24-Apr-2013

 --------------------
 #p B2PLYPD3/Def2QZVP
 --------------------

 ---------
 butadiene
 ---------
 Symbolic Z-matrix:
 Charge =  0 Multiplicity = 1

                         Standard orientation:
 ---------------------------------------------------------------------
 Center     Atomic      Atomic             Coordinates (Angstroms)
 Number     Number       Type             X           Y           Z
 ---------------------------------------------------------------------
      1          6           0       -1.802652    0.117534    0.056006
      2          6           0       -0.575838   -0.423538   -0.087722
      3          6           0        0.577220    0.362698   -0.061277
      4          6           0        1.808325   -0.085864    0.054061
      5          1           0       -2.758001   -0.456719    0.330026
      6          1           0       -1.864821    1.244239   -0.085391
      7          1           0       -0.549731   -1.464044   -0.187543
      8          1           0        0.468108    1.432268   -0.078442
      9          1           0        2.089608   -1.165197    0.088856
     10          1           0        2.572504    0.584471    0.166087
 ---------------------------------------------------------------------

 SCF Done:  E(RB2PLYPD3) =  -155.682286159     A.U. after   12 cycles
 E2(B2PLYPD3) =    -0.2263883649D+00 E(B2PLYPD3) =    -0.15590867452377D+03

 The electronic state is 1-A.
 Alpha  occ. eigenvalues --  -10.62889 -10.61837 -10.61645 -10.60659  -0.94177
 Alpha  occ. eigenvalues --   -0.84947  -0.70103  -0.64417  -0.54690  -0.54342
 Alpha  occ. eigenvalues --   -0.46198  -0.44692  -0.42396  -0.38214  -0.27102
 Alpha virt. eigenvalues --    0.01475   0.06981   0.07441   0.07906   0.09731
 Alpha virt. eigenvalues --    0.11550   0.12463   0.14609   0.15865   0.16296
 Alpha virt. eigenvalues --    0.18663   0.20122   0.21366   0.22464   0.24331

 Mulliken charges:
               1
     1  C   -0.177367
     2  C   -0.032406
     3  C   -0.021952
     4  C   -0.177379
     5  H    0.084921
     6  H    0.056724
     7  H    0.068561
     8  H    0.052310
     9  H    0.063037
    10  H    0.083551
 Sum of Mulliken charges =   0.00000

 Dipole moment (field-independent basis, Debye):
    X=             -0.0092    Y=             -0.0350    Z=              0.1048  Tot=              0.1108
 Quadrupole moment (field-independent basis, Debye-Ang):
   XX=            -23.8408   YY=            -23.1939   ZZ=            -28.9971
   XY=              0.1981   XZ=             -0.1487   YZ=             -0.1560

 1\1\GINC-NODE30\SP\RB2PLYPD3-FC\def2QZVP\C4H6\BOITTIER\26-Aug-2020\0\\
 #p B2PLYPD3/Def2QZVP\\butadiene\\0,1\C,0,-3.801782,0.238412,0.079548\C
 ,0,-2.696864,-0.52423,-0.047035\C,0,-1.418182,0.035558,-0.042725\C,0,-
 0.290759,-0.629452,0.086922\H,0,-4.845596,-0.14096,0.369503\H,0,-3.655
 149,1.352562,-0.095069\H,0,-2.864093,-1.554066,-0.116106\H,0,-1.327682
 ,1.105889,-0.091522\H,0,-0.213784,-1.74071,0.153788\H,0,0.584712,-0.10
 908,0.179835\\Version=ES64L-G09RevD.01\State=1-A\HF=-155.6822862\MP2=-
 155.9086745\RMSD=5.631e-09\PG=C01 [X(C4H6)]\\@

 Normal termination of Gaussian 09 at Wed Aug 26 13:02:41 2020.
