 Gaussian 09, Revision D.01,
 Gaussian 09:  ES64L-G09RevD.01 24-Apr-2013

 --------------------
 #p B2PLYPD3/Def2QZVP
 --------------------

 ---------
 butadiene
 ---------
 Symbolic Z-matrix:
 Charge =  0 Multiplicity = 1

                         Standard orientation:
 ---------------------------------------------------------------------
 Center     Atomic      Atomic             Coordinates (Angstroms)
 Number     Number       Type             X           Y           Z
 ---------------------------------------------------------------------
      1          6           0       -1.797519   -0.146414    0.046751
      2          6           0       -0.597247    0.436446   -0.076963
      3          6           0        0.595658   -0.360031   -0.104302
      4          6           0        1.830464    0.102570    0.087380
      5          1           0       -2.778525    0.445377    0.045611
      6          1           0       -1.853586   -1.243353    0.123641
      7          1           0       -0.590375    1.519798    0.150150
      8          1           0        0.476743   -1.371727   -0.062658
      9          1           0        2.051807    1.122630   -0.111568
     10          1           0        2.505796   -0.668150    0.137626
 ---------------------------------------------------------------------

 SCF Done:  E(RB2PLYPD3) =  -155.678291321     A.U. after   11 cycles
 E2(B2PLYPD3) =    -0.2265127881D+00 E(B2PLYPD3) =    -0.15590480410916D+03

 The electronic state is 1-A.
 Alpha  occ. eigenvalues --  -10.62532 -10.62391 -10.61446 -10.60310  -0.93682
 Alpha  occ. eigenvalues --   -0.85256  -0.69835  -0.64537  -0.55476  -0.53298
 Alpha  occ. eigenvalues --   -0.46246  -0.45282  -0.42035  -0.37958  -0.27421
 Alpha virt. eigenvalues --    0.01440   0.07055   0.07520   0.08002   0.08979
 Alpha virt. eigenvalues --    0.11922   0.12459   0.14397   0.15426   0.16560
 Alpha virt. eigenvalues --    0.18527   0.19129   0.21838   0.23342   0.24977

 Mulliken charges:
               1
     1  C   -0.171142
     2  C   -0.032604
     3  C   -0.034405
     4  C   -0.179458
     5  H    0.079389
     6  H    0.059231
     7  H    0.063966
     8  H    0.057234
     9  H    0.082737
    10  H    0.075053
 Sum of Mulliken charges =   0.00000

 Dipole moment (field-independent basis, Debye):
    X=             -0.0880    Y=             -0.0700    Z=              0.1089  Tot=              0.1565
 Quadrupole moment (field-independent basis, Debye-Ang):
   XX=            -24.2148   YY=            -22.9545   ZZ=            -29.0951
   XY=             -0.1909   XZ=             -0.3663   YZ=             -0.1257

 1\1\GINC-NODE39\SP\RB2PLYPD3-FC\def2QZVP\C4H6\BOITTIER\26-Aug-2020\0\\
 #p B2PLYPD3/Def2QZVP\\butadiene\\0,1\C,0,-3.798424,0.247707,-0.043463\
 C,0,-2.719772,-0.532018,0.112174\C,0,-1.40477,0.041489,0.110293\C,0,-0
 .271742,-0.640156,-0.054309\H,0,-4.868598,-0.160727,-0.021122\H,0,-3.6
 5988,1.33275,-0.169235\H,0,-2.905177,-1.608559,-0.06661\H,0,-1.343058,
 1.055397,0.02319\H,0,-0.233683,-1.673379,0.19084\H,0,0.529073,-0.00395
 3,-0.135221\\Version=ES64L-G09RevD.01\State=1-A\HF=-155.6782913\MP2=-1
 55.9048041\RMSD=8.366e-09\PG=C01 [X(C4H6)]\\@

 Normal termination of Gaussian 09 at Wed Aug 26 13:25:30 2020.
