 Gaussian 09, Revision D.01,
 Gaussian 09:  ES64L-G09RevD.01 24-Apr-2013

 --------------------
 #p B2PLYPD3/Def2QZVP
 --------------------

 ---------
 butadiene
 ---------
 Symbolic Z-matrix:
 Charge =  0 Multiplicity = 1

                         Standard orientation:
 ---------------------------------------------------------------------
 Center     Atomic      Atomic             Coordinates (Angstroms)
 Number     Number       Type             X           Y           Z
 ---------------------------------------------------------------------
      1          6           0       -1.851006   -0.105400   -0.007207
      2          6           0       -0.606301    0.394608   -0.020676
      3          6           0        0.613696   -0.396768   -0.013593
      4          6           0        1.853185    0.104394    0.019323
      5          1           0       -2.727622    0.515937    0.123491
      6          1           0       -2.081470   -1.206350   -0.037823
      7          1           0       -0.491078    1.473545    0.019716
      8          1           0        0.527545   -1.463680    0.069783
      9          1           0        1.946507    1.191505   -0.033922
     10          1           0        2.768670   -0.491955   -0.008327
 ---------------------------------------------------------------------

 SCF Done:  E(RB2PLYPD3) =  -155.697223266     A.U. after   11 cycles
 E2(B2PLYPD3) =    -0.2262605812D+00 E(B2PLYPD3) =    -0.15592348384670D+03

 The electronic state is 1-A.
 Alpha  occ. eigenvalues --  -10.62909 -10.62487 -10.62192 -10.61799  -0.92856
 Alpha  occ. eigenvalues --   -0.84799  -0.69995  -0.63990  -0.54714  -0.53576
 Alpha  occ. eigenvalues --   -0.46973  -0.44800  -0.41060  -0.38056  -0.27705
 Alpha virt. eigenvalues --    0.01485   0.06989   0.07426   0.07980   0.09570
 Alpha virt. eigenvalues --    0.11564   0.12459   0.14473   0.15740   0.16406
 Alpha virt. eigenvalues --    0.18920   0.19915   0.21731   0.22702   0.23655

 Mulliken charges:
               1
     1  C   -0.168332
     2  C   -0.038955
     3  C   -0.027430
     4  C   -0.171464
     5  H    0.084239
     6  H    0.061532
     7  H    0.055998
     8  H    0.057955
     9  H    0.057344
    10  H    0.089112
 Sum of Mulliken charges =   0.00000

 Dipole moment (field-independent basis, Debye):
    X=             -0.0098    Y=             -0.0159    Z=              0.0941  Tot=              0.0959
 Quadrupole moment (field-independent basis, Debye-Ang):
   XX=            -23.2177   YY=            -23.3075   ZZ=            -29.3359
   XY=             -0.0370   XZ=             -0.3741   YZ=              0.0291

 1\1\GINC-NODE19\SP\RB2PLYPD3-FC\def2QZVP\C4H6\BOITTIER\26-Aug-2020\0\\
 #p B2PLYPD3/Def2QZVP\\butadiene\\0,1\C,0,-3.856121,0.216904,0.017507\C
 ,0,-2.719866,-0.495309,0.051536\C,0,-1.378823,0.06656,0.02654\C,0,-0.2
 47941,-0.647257,0.014216\H,0,-4.829167,-0.242744,-0.098693\H,0,-3.8875
 73,1.341689,0.01434\H,0,-2.797929,-1.578295,0.043749\H,0,-1.274376,1.1
 2884,-0.088894\H,0,-0.348937,-1.731585,0.100165\H,0,0.758846,-0.222181
 ,0.028335\\Version=ES64L-G09RevD.01\State=1-A\HF=-155.6972233\MP2=-155
 .9234838\RMSD=3.003e-09\PG=C01 [X(C4H6)]\\@

 Normal termination of Gaussian 09 at Wed Aug 26 10:32:55 2020.
