 Gaussian 09, Revision D.01,
 Gaussian 09:  ES64L-G09RevD.01 24-Apr-2013

 --------------------
 #p B2PLYPD3/Def2QZVP
 --------------------

 ---------
 butadiene
 ---------
 Symbolic Z-matrix:
 Charge =  0 Multiplicity = 1

                         Standard orientation:
 ---------------------------------------------------------------------
 Center     Atomic      Atomic             Coordinates (Angstroms)
 Number     Number       Type             X           Y           Z
 ---------------------------------------------------------------------
      1          6           0       -1.798889   -0.111115   -0.029827
      2          6           0       -0.589590    0.414818    0.043871
      3          6           0        0.581270   -0.369447    0.080461
      4          6           0        1.806433    0.081815   -0.069985
      5          1           0       -2.723662    0.457490   -0.099985
      6          1           0       -1.922669   -1.163139   -0.310114
      7          1           0       -0.371795    1.408841    0.202263
      8          1           0        0.477358   -1.433089    0.335658
      9          1           0        1.966815    1.219366   -0.108761
     10          1           0        2.578611   -0.585893   -0.166176
 ---------------------------------------------------------------------

 SCF Done:  E(RB2PLYPD3) =  -155.683853447     A.U. after   11 cycles
 E2(B2PLYPD3) =    -0.2254422562D+00 E(B2PLYPD3) =    -0.15590929570279D+03

 The electronic state is 1-A.
 Alpha  occ. eigenvalues --  -10.61584 -10.61541 -10.61402 -10.61129  -0.94315
 Alpha  occ. eigenvalues --   -0.85316  -0.70872  -0.64066  -0.55656  -0.53496
 Alpha  occ. eigenvalues --   -0.47854  -0.44876  -0.41667  -0.37699  -0.27792
 Alpha virt. eigenvalues --    0.01768   0.07218   0.07363   0.08019   0.09585
 Alpha virt. eigenvalues --    0.11739   0.12571   0.14575   0.15352   0.16132
 Alpha virt. eigenvalues --    0.18534   0.19982   0.21726   0.22396   0.23826

 Mulliken charges:
               1
     1  C   -0.169261
     2  C   -0.034509
     3  C   -0.019810
     4  C   -0.187647
     5  H    0.076985
     6  H    0.064780
     7  H    0.063177
     8  H    0.056652
     9  H    0.055863
    10  H    0.093770
 Sum of Mulliken charges =   0.00000

 Dipole moment (field-independent basis, Debye):
    X=              0.0141    Y=             -0.0072    Z=             -0.0487  Tot=              0.0512
 Quadrupole moment (field-independent basis, Debye-Ang):
   XX=            -23.8334   YY=            -23.3990   ZZ=            -28.7649
   XY=             -0.0195   XZ=              0.2763   YZ=              0.2210

 1\1\GINC-NODE38\SP\RB2PLYPD3-FC\def2QZVP\C4H6\BOITTIER\26-Aug-2020\0\\
 #p B2PLYPD3/Def2QZVP\\butadiene\\0,1\C,0,-3.797204,0.235187,0.056355\C
 ,0,-2.70905,-0.510423,-0.010175\C,0,-1.411523,0.038337,-0.061244\C,0,-
 0.292732,-0.633352,0.095083\H,0,-4.812261,-0.147668,0.137101\H,0,-3.71
 924,1.296034,0.319344\H,0,-2.683219,-1.530089,-0.152367\H,0,-1.314202,
 1.098268,-0.333883\H,0,-0.349475,-1.779971,0.152481\H,0,0.591875,-0.12
 175,0.179217\\Version=ES64L-G09RevD.01\State=1-A\HF=-155.6838534\MP2=-
 155.9092957\RMSD=7.819e-09\PG=C01 [X(C4H6)]\\@

 Normal termination of Gaussian 09 at Wed Aug 26 11:26:46 2020.
