 Gaussian 09, Revision D.01,
 Gaussian 09:  ES64L-G09RevD.01 24-Apr-2013

 --------------------
 #p B2PLYPD3/Def2QZVP
 --------------------

 ---------
 butadiene
 ---------
 Symbolic Z-matrix:
 Charge =  0 Multiplicity = 1

                         Standard orientation:
 ---------------------------------------------------------------------
 Center     Atomic      Atomic             Coordinates (Angstroms)
 Number     Number       Type             X           Y           Z
 ---------------------------------------------------------------------
      1          6           0       -1.839210    0.118916   -0.031951
      2          6           0       -0.630717   -0.445780    0.028343
      3          6           0        0.590362    0.360020    0.104621
      4          6           0        1.841086   -0.078090   -0.072138
      5          1           0       -2.818305   -0.339339   -0.067385
      6          1           0       -1.818723    1.241011   -0.046229
      7          1           0       -0.462139   -1.447565   -0.005035
      8          1           0        0.538571    1.442214   -0.036613
      9          1           0        2.069140   -1.184607    0.040821
     10          1           0        2.722327    0.557896   -0.058812
 ---------------------------------------------------------------------

 SCF Done:  E(RB2PLYPD3) =  -155.685339406     A.U. after   11 cycles
 E2(B2PLYPD3) =    -0.2266084621D+00 E(B2PLYPD3) =    -0.15591194786769D+03

 The electronic state is 1-A.
 Alpha  occ. eigenvalues --  -10.62639 -10.62387 -10.62209 -10.62076  -0.93084
 Alpha  occ. eigenvalues --   -0.84884  -0.69985  -0.64435  -0.55219  -0.53228
 Alpha  occ. eigenvalues --   -0.47433  -0.44079  -0.40768  -0.38072  -0.27916
 Alpha virt. eigenvalues --    0.01506   0.06994   0.07459   0.08137   0.09093
 Alpha virt. eigenvalues --    0.11567   0.12727   0.14163   0.15507   0.16497
 Alpha virt. eigenvalues --    0.18849   0.19376   0.22035   0.22634   0.24356

 Mulliken charges:
               1
     1  C   -0.155746
     2  C   -0.042578
     3  C   -0.027308
     4  C   -0.165017
     5  H    0.090530
     6  H    0.053313
     7  H    0.065990
     8  H    0.052291
     9  H    0.047507
    10  H    0.081017
 Sum of Mulliken charges =   0.00000

 Dipole moment (field-independent basis, Debye):
    X=             -0.0666    Y=             -0.0260    Z=             -0.0650  Tot=              0.0966
 Quadrupole moment (field-independent basis, Debye-Ang):
   XX=            -23.0567   YY=            -23.5489   ZZ=            -29.2803
   XY=              0.2041   XZ=              0.1458   YZ=             -0.2077

 1\1\GINC-NODE24\SP\RB2PLYPD3-FC\def2QZVP\C4H6\BOITTIER\26-Aug-2020\0\\
 #p B2PLYPD3/Def2QZVP\\butadiene\\0,1\C,0,-3.83601,0.229386,-0.023158\C
 ,0,-2.746138,-0.536312,0.070962\C,0,-1.401316,0.043526,0.108458\C,0,-0
 .24894,-0.61774,-0.040709\H,0,-4.880933,-0.049561,-0.037487\H,0,-3.617
 415,1.3278,-0.096812\H,0,-2.757662,-1.552461,0.091275\H,0,-1.261696,1.
 108822,-0.090096\H,0,-0.219557,-1.739629,0.131481\H,0,0.730983,-0.1479
 65,-0.058198\\Version=ES64L-G09RevD.01\State=1-A\HF=-155.6853394\MP2=-
 155.9119479\RMSD=5.516e-09\PG=C01 [X(C4H6)]\\@

 Normal termination of Gaussian 09 at Wed Aug 26 14:45:50 2020.
