 Gaussian 09, Revision D.01,
 Gaussian 09:  ES64L-G09RevD.01 24-Apr-2013

 --------------------
 #p B2PLYPD3/Def2QZVP
 --------------------

 ---------
 butadiene
 ---------
 Symbolic Z-matrix:
 Charge =  0 Multiplicity = 1

                         Standard orientation:
 ---------------------------------------------------------------------
 Center     Atomic      Atomic             Coordinates (Angstroms)
 Number     Number       Type             X           Y           Z
 ---------------------------------------------------------------------
      1          6           0       -1.839181   -0.106010    0.012723
      2          6           0       -0.606894    0.387252   -0.017958
      3          6           0        0.611891   -0.408513   -0.015093
      4          6           0        1.845252    0.119061    0.004519
      5          1           0       -2.681095    0.558366    0.041237
      6          1           0       -2.072349   -1.154431   -0.035908
      7          1           0       -0.487702    1.473058   -0.003938
      8          1           0        0.445650   -1.469697    0.052300
      9          1           0        2.006432    1.183868    0.029027
     10          1           0        2.722652   -0.541902    0.012144
 ---------------------------------------------------------------------

 SCF Done:  E(RB2PLYPD3) =  -155.700366653     A.U. after   11 cycles
 E2(B2PLYPD3) =    -0.2256134673D+00 E(B2PLYPD3) =    -0.15592598012033D+03

 The electronic state is 1-A.
 Alpha  occ. eigenvalues --  -10.62564 -10.62399 -10.61823 -10.61187  -0.92940
 Alpha  occ. eigenvalues --   -0.84948  -0.70246  -0.64110  -0.54449  -0.54047
 Alpha  occ. eigenvalues --   -0.46735  -0.45869  -0.40933  -0.38069  -0.27720
 Alpha virt. eigenvalues --    0.01720   0.06982   0.07448   0.08063   0.09614
 Alpha virt. eigenvalues --    0.11699   0.12353   0.14844   0.15745   0.16112
 Alpha virt. eigenvalues --    0.18805   0.20450   0.21652   0.22806   0.23897

 Mulliken charges:
               1
     1  C   -0.178041
     2  C   -0.023548
     3  C   -0.037849
     4  C   -0.176002
     5  H    0.082637
     6  H    0.066289
     7  H    0.050879
     8  H    0.059159
     9  H    0.071555
    10  H    0.084921
 Sum of Mulliken charges =   0.00000

 Dipole moment (field-independent basis, Debye):
    X=             -0.0183    Y=             -0.0058    Z=              0.0592  Tot=              0.0623
 Quadrupole moment (field-independent basis, Debye-Ang):
   XX=            -23.5088   YY=            -23.0601   ZZ=            -29.2632
   XY=              0.2718   XZ=              0.0820   YZ=              0.0345

 1\1\GINC-NODE05\SP\RB2PLYPD3-FC\def2QZVP\C4H6\BOITTIER\26-Aug-2020\0\\
 #p B2PLYPD3/Def2QZVP\\butadiene\\0,1\C,0,-3.843481,0.220448,0.005267\C
 ,0,-2.720424,-0.486256,0.051023\C,0,-1.377988,0.075868,0.027164\C,0,-0
 .260275,-0.666158,0.023608\H,0,-4.791644,-0.281446,-0.005524\H,0,-3.88
 3275,1.29468,0.024299\H,0,-2.799343,-1.575695,0.067515\H,0,-1.350119,1
 .147343,-0.07007\H,0,-0.294147,-1.742827,0.029072\H,0,0.722028,-0.1750
 3,-0.001594\\Version=ES64L-G09RevD.01\State=1-A\HF=-155.7003667\MP2=-1
 55.9259801\RMSD=5.490e-09\PG=C01 [X(C4H6)]\\@

 Normal termination of Gaussian 09 at Wed Aug 26 21:25:12 2020.
