 Gaussian 09, Revision D.01,
 Gaussian 09:  ES64L-G09RevD.01 24-Apr-2013

 --------------------
 #p B2PLYPD3/Def2QZVP
 --------------------

 ---------
 butadiene
 ---------
 Symbolic Z-matrix:
 Charge =  0 Multiplicity = 1

                         Standard orientation:
 ---------------------------------------------------------------------
 Center     Atomic      Atomic             Coordinates (Angstroms)
 Number     Number       Type             X           Y           Z
 ---------------------------------------------------------------------
      1          6           0        1.850960   -0.104006    0.003660
      2          6           0        0.604263    0.395008    0.003483
      3          6           0       -0.612968   -0.416206   -0.001904
      4          6           0       -1.839822    0.117699   -0.011246
      5          1           0        2.753060    0.530771   -0.025597
      6          1           0        2.035067   -1.168955   -0.035122
      7          1           0        0.460366    1.478128    0.058395
      8          1           0       -0.512804   -1.487955    0.029112
      9          1           0       -2.014789    1.195253   -0.040416
     10          1           0       -2.735504   -0.502213    0.049668
 ---------------------------------------------------------------------

 SCF Done:  E(RB2PLYPD3) =  -155.700017583     A.U. after   11 cycles
 E2(B2PLYPD3) =    -0.2261050190D+00 E(B2PLYPD3) =    -0.15592612260159D+03

 The electronic state is 1-A.
 Alpha  occ. eigenvalues --  -10.62897 -10.62678 -10.61851 -10.61808  -0.92712
 Alpha  occ. eigenvalues --   -0.84676  -0.69905  -0.64128  -0.54387  -0.53722
 Alpha  occ. eigenvalues --   -0.46676  -0.45339  -0.41090  -0.37954  -0.27662
 Alpha virt. eigenvalues --    0.01656   0.06976   0.07412   0.07997   0.09440
 Alpha virt. eigenvalues --    0.11607   0.12431   0.14586   0.15854   0.16212
 Alpha virt. eigenvalues --    0.18862   0.20370   0.21670   0.22829   0.23548

 Mulliken charges:
               1
     1  C   -0.173617
     2  C   -0.032967
     3  C   -0.035490
     4  C   -0.171006
     5  H    0.083367
     6  H    0.065008
     7  H    0.057139
     8  H    0.060094
     9  H    0.065035
    10  H    0.082436
 Sum of Mulliken charges =   0.00000

 Dipole moment (field-independent basis, Debye):
    X=             -0.0364    Y=             -0.0177    Z=              0.0300  Tot=              0.0504
 Quadrupole moment (field-independent basis, Debye-Ang):
   XX=            -23.3775   YY=            -23.1285   ZZ=            -29.3677
   XY=             -0.2014   XZ=             -0.2194   YZ=             -0.0209

 1\1\GINC-NODE30\SP\RB2PLYPD3-FC\def2QZVP\C4H6\BOITTIER\26-Aug-2020\0\\
 #p B2PLYPD3/Def2QZVP\\butadiene\\0,1\C,0,-3.854683,0.217397,0.01996\C,
 0,-2.717251,-0.496164,0.038564\C,0,-1.374643,0.083963,0.013965\C,0,-0.
 262986,-0.660634,0.024347\H,0,-4.85576,-0.246531,0.005926\H,0,-3.84555
 5,1.296519,-0.050246\H,0,-2.769161,-1.585502,0.125278\H,0,-1.281587,1.
 1568,0.013623\H,0,-0.283478,-1.752495,0.026963\H,0,0.729175,-0.209258,
 0.070432\\Version=ES64L-G09RevD.01\State=1-A\HF=-155.7000176\MP2=-155.
 9261226\RMSD=2.417e-09\PG=C01 [X(C4H6)]\\@

 Normal termination of Gaussian 09 at Wed Aug 26 20:43:31 2020.
