 Gaussian 09, Revision D.01,
 Gaussian 09:  ES64L-G09RevD.01 24-Apr-2013

 --------------------
 #p B2PLYPD3/Def2QZVP
 --------------------

 ---------
 butadiene
 ---------
 Symbolic Z-matrix:
 Charge =  0 Multiplicity = 1

                         Standard orientation:
 ---------------------------------------------------------------------
 Center     Atomic      Atomic             Coordinates (Angstroms)
 Number     Number       Type             X           Y           Z
 ---------------------------------------------------------------------
      1          6           0        1.815932   -0.118618    0.051360
      2          6           0        0.578778    0.409257   -0.019058
      3          6           0       -0.565366   -0.379851   -0.076531
      4          6           0       -1.831918    0.068211    0.017785
      5          1           0        2.667004    0.587588    0.032349
      6          1           0        2.028706   -1.202035    0.152502
      7          1           0        0.469015    1.479763   -0.260592
      8          1           0       -0.366743   -1.377058   -0.156833
      9          1           0       -2.055843    1.108687    0.265793
     10          1           0       -2.726701   -0.470939    0.125448
 ---------------------------------------------------------------------

 SCF Done:  E(RB2PLYPD3) =  -155.684919012     A.U. after   11 cycles
 E2(B2PLYPD3) =    -0.2266861869D+00 E(B2PLYPD3) =    -0.15591160519868D+03

 The electronic state is 1-A.
 Alpha  occ. eigenvalues --  -10.62387 -10.62264 -10.61627 -10.61369  -0.94035
 Alpha  occ. eigenvalues --   -0.84400  -0.71288  -0.64550  -0.55445  -0.53700
 Alpha  occ. eigenvalues --   -0.46806  -0.45065  -0.41526  -0.38250  -0.27151
 Alpha virt. eigenvalues --    0.00926   0.07087   0.07473   0.07919   0.09549
 Alpha virt. eigenvalues --    0.11612   0.12611   0.14911   0.15275   0.16483
 Alpha virt. eigenvalues --    0.18779   0.20045   0.21992   0.22713   0.23091

 Mulliken charges:
               1
     1  C   -0.188693
     2  C   -0.023055
     3  C   -0.033942
     4  C   -0.165865
     5  H    0.080874
     6  H    0.071903
     7  H    0.067287
     8  H    0.062555
     9  H    0.050706
    10  H    0.078230
 Sum of Mulliken charges =   0.00000

 Dipole moment (field-independent basis, Debye):
    X=              0.0479    Y=             -0.0620    Z=              0.0775  Tot=              0.1102
 Quadrupole moment (field-independent basis, Debye-Ang):
   XX=            -23.4452   YY=            -23.4210   ZZ=            -29.0260
   XY=             -0.3390   XZ=             -0.6297   YZ=             -0.1104

 1\1\GINC-NODE08\SP\RB2PLYPD3-FC\def2QZVP\C4H6\BOITTIER\26-Aug-2020\0\\
 #p B2PLYPD3/Def2QZVP\\butadiene\\0,1\C,0,-3.811901,0.248925,0.062198\C
 ,0,-2.699059,-0.508029,0.009633\C,0,-1.424275,0.045345,-0.051715\C,0,-
 0.26796,-0.636126,0.059378\H,0,-4.782806,-0.280747,0.047982\H,0,-3.812
 792,1.354608,0.144414\H,0,-2.796154,-1.583648,-0.213943\H,0,-1.42706,1
 .060611,-0.149431\H,0,-0.249404,-1.695839,0.325657\H,0,0.713323,-0.277
 254,0.165231\\Version=ES64L-G09RevD.01\State=1-A\HF=-155.684919\MP2=-1
 55.9116052\RMSD=6.847e-09\PG=C01 [X(C4H6)]\\@

 Normal termination of Gaussian 09 at Wed Aug 26 12:43:57 2020.
