 Gaussian 09, Revision D.01,
 Gaussian 09:  ES64L-G09RevD.01 24-Apr-2013

 --------------------
 #p B2PLYPD3/Def2QZVP
 --------------------

 ---------
 butadiene
 ---------
 Symbolic Z-matrix:
 Charge =  0 Multiplicity = 1

                         Standard orientation:
 ---------------------------------------------------------------------
 Center     Atomic      Atomic             Coordinates (Angstroms)
 Number     Number       Type             X           Y           Z
 ---------------------------------------------------------------------
      1          6           0       -1.841009    0.125481   -0.035541
      2          6           0       -0.610153   -0.405885    0.035143
      3          6           0        0.603990    0.372833   -0.010163
      4          6           0        1.846729   -0.110077   -0.005227
      5          1           0       -2.749815   -0.500649    0.069237
      6          1           0       -1.945953    1.182990   -0.000526
      7          1           0       -0.556540   -1.491966   -0.010138
      8          1           0        0.486349    1.452030    0.049988
      9          1           0        2.125197   -1.111061   -0.051703
     10          1           0        2.643419    0.574543    0.037866
 ---------------------------------------------------------------------

 SCF Done:  E(RB2PLYPD3) =  -155.696122689     A.U. after   11 cycles
 E2(B2PLYPD3) =    -0.2256594074D+00 E(B2PLYPD3) =    -0.15592178209624D+03

 The electronic state is 1-A.
 Alpha  occ. eigenvalues --  -10.62537 -10.62475 -10.61648 -10.60711  -0.93076
 Alpha  occ. eigenvalues --   -0.85152  -0.70615  -0.64257  -0.54862  -0.54279
 Alpha  occ. eigenvalues --   -0.46475  -0.45818  -0.41322  -0.38149  -0.27624
 Alpha virt. eigenvalues --    0.01471   0.06983   0.07603   0.07969   0.09678
 Alpha virt. eigenvalues --    0.11678   0.12504   0.14937   0.15607   0.16416
 Alpha virt. eigenvalues --    0.18846   0.19903   0.22202   0.22499   0.24049

 Mulliken charges:
               1
     1  C   -0.169087
     2  C   -0.033898
     3  C   -0.029009
     4  C   -0.177031
     5  H    0.081543
     6  H    0.063501
     7  H    0.057268
     8  H    0.053639
     9  H    0.072933
    10  H    0.080142
 Sum of Mulliken charges =   0.00000

 Dipole moment (field-independent basis, Debye):
    X=              0.0405    Y=             -0.0221    Z=              0.1001  Tot=              0.1103
 Quadrupole moment (field-independent basis, Debye-Ang):
   XX=            -23.3989   YY=            -23.1019   ZZ=            -29.1892
   XY=             -0.1220   XZ=             -0.1626   YZ=              0.1465

 1\1\GINC-NODE17\SP\RB2PLYPD3-FC\def2QZVP\C4H6\BOITTIER\26-Aug-2020\0\\
 #p B2PLYPD3/Def2QZVP\\butadiene\\0,1\C,0,-3.84152,0.235356,-0.011198\C
 ,0,-2.723909,-0.50408,0.069613\C,0,-1.39127,0.046434,0.009557\C,0,-0.2
 53607,-0.648654,0.023711\H,0,-4.84644,-0.217943,0.10543\H,0,-3.75753,1
 .295209,0.00371\H,0,-2.863511,-1.583154,0.044982\H,0,-1.315854,1.13034
 6,0.049183\H,0,-0.156848,-1.683815,-0.003725\H,0,0.651812,-0.115186,0.
 053812\\Version=ES64L-G09RevD.01\State=1-A\HF=-155.6961227\MP2=-155.92
 17821\RMSD=5.148e-09\PG=C01 [X(C4H6)]\\@

 Normal termination of Gaussian 09 at Wed Aug 26 08:39:19 2020.
