 Gaussian 09, Revision D.01,
 Gaussian 09:  ES64L-G09RevD.01 24-Apr-2013

 --------------------
 #p B2PLYPD3/Def2QZVP
 --------------------

 ---------
 butadiene
 ---------
 Symbolic Z-matrix:
 Charge =  0 Multiplicity = 1

                         Standard orientation:
 ---------------------------------------------------------------------
 Center     Atomic      Atomic             Coordinates (Angstroms)
 Number     Number       Type             X           Y           Z
 ---------------------------------------------------------------------
      1          6           0       -1.841224   -0.113545    0.001273
      2          6           0       -0.614035    0.395843   -0.010630
      3          6           0        0.621418   -0.404293   -0.032440
      4          6           0        1.844942    0.118937    0.014259
      5          1           0       -2.706629    0.529703    0.054516
      6          1           0       -2.034566   -1.189125    0.035345
      7          1           0       -0.494103    1.497576   -0.004355
      8          1           0        0.504197   -1.496146    0.023554
      9          1           0        1.936902    1.190464    0.012344
     10          1           0        2.727597   -0.514127    0.043829
 ---------------------------------------------------------------------

 SCF Done:  E(RB2PLYPD3) =  -155.699931307     A.U. after   11 cycles
 E2(B2PLYPD3) =    -0.2257233179D+00 E(B2PLYPD3) =    -0.15592565462490D+03

 The electronic state is 1-A.
 Alpha  occ. eigenvalues --  -10.62870 -10.62700 -10.61517 -10.61456  -0.92734
 Alpha  occ. eigenvalues --   -0.85116  -0.69739  -0.63632  -0.54517  -0.53846
 Alpha  occ. eigenvalues --   -0.46681  -0.45463  -0.40832  -0.38013  -0.27942
 Alpha virt. eigenvalues --    0.01955   0.07012   0.07324   0.07995   0.09549
 Alpha virt. eigenvalues --    0.11671   0.12381   0.14601   0.15746   0.16170
 Alpha virt. eigenvalues --    0.18781   0.20289   0.21588   0.22816   0.23952

 Mulliken charges:
               1
     1  C   -0.172493
     2  C   -0.032529
     3  C   -0.027358
     4  C   -0.176474
     5  H    0.084892
     6  H    0.065575
     7  H    0.049319
     8  H    0.052363
     9  H    0.066562
    10  H    0.090142
 Sum of Mulliken charges =   0.00000

 Dipole moment (field-independent basis, Debye):
    X=             -0.0051    Y=             -0.0116    Z=              0.1225  Tot=              0.1231
 Quadrupole moment (field-independent basis, Debye-Ang):
   XX=            -23.5114   YY=            -23.0851   ZZ=            -29.3121
   XY=              0.0145   XZ=             -0.0505   YZ=             -0.0683

 1\1\GINC-NODE03\SP\RB2PLYPD3-FC\def2QZVP\C4H6\BOITTIER\26-Aug-2020\0\\
 #p B2PLYPD3/Def2QZVP\\butadiene\\0,1\C,0,-3.846326,0.218942,0.012154\C
 ,0,-2.727281,-0.496821,0.044262\C,0,-1.370719,0.074818,0.041685\C,0,-0
 .257921,-0.655913,0.015688\H,0,-4.811201,-0.264209,-0.021165\H,0,-3.84
 8432,1.309973,-0.058985\H,0,-2.802178,-1.602097,0.075798\H,0,-1.295111
 ,1.167783,-0.051741\H,0,-0.355038,-1.72629,0.054314\H,0,0.721849,-0.18
 8614,-0.033371\\Version=ES64L-G09RevD.01\State=1-A\HF=-155.6999313\MP2
 =-155.9256546\RMSD=3.971e-09\PG=C01 [X(C4H6)]\\@

 Normal termination of Gaussian 09 at Wed Aug 26 20:04:50 2020.
