 Gaussian 09, Revision D.01,
 Gaussian 09:  ES64L-G09RevD.01 24-Apr-2013

 --------------------
 #p B2PLYPD3/Def2QZVP
 --------------------

 ---------
 butadiene
 ---------
 Symbolic Z-matrix:
 Charge =  0 Multiplicity = 1

                         Standard orientation:
 ---------------------------------------------------------------------
 Center     Atomic      Atomic             Coordinates (Angstroms)
 Number     Number       Type             X           Y           Z
 ---------------------------------------------------------------------
      1          6           0        1.822830    0.088915    0.031603
      2          6           0        0.592312   -0.347637   -0.070481
      3          6           0       -0.621064    0.392984   -0.073126
      4          6           0       -1.848181   -0.122269    0.041941
      5          1           0        2.639468   -0.597490    0.235508
      6          1           0        2.113944    1.192279    0.097244
      7          1           0        0.586043   -1.415696   -0.029031
      8          1           0       -0.443583    1.459744   -0.158283
      9          1           0       -1.888148   -1.260149   -0.056923
     10          1           0       -2.683106    0.549357    0.331867
 ---------------------------------------------------------------------

 SCF Done:  E(RB2PLYPD3) =  -155.683291098     A.U. after   11 cycles
 E2(B2PLYPD3) =    -0.2265460380D+00 E(B2PLYPD3) =    -0.15590983713624D+03

 The electronic state is 1-A.
 Alpha  occ. eigenvalues --  -10.62721 -10.62416 -10.61790 -10.61597  -0.93745
 Alpha  occ. eigenvalues --   -0.85315  -0.70001  -0.63530  -0.54688  -0.53413
 Alpha  occ. eigenvalues --   -0.46801  -0.44838  -0.40846  -0.38158  -0.27756
 Alpha virt. eigenvalues --    0.01475   0.06889   0.07355   0.07819   0.09953
 Alpha virt. eigenvalues --    0.11631   0.12186   0.14530   0.15393   0.16019
 Alpha virt. eigenvalues --    0.18659   0.19963   0.21275   0.22236   0.24606

 Mulliken charges:
               1
     1  C   -0.166056
     2  C   -0.008948
     3  C   -0.037571
     4  C   -0.180210
     5  H    0.078299
     6  H    0.049160
     7  H    0.041791
     8  H    0.056422
     9  H    0.070233
    10  H    0.096881
 Sum of Mulliken charges =   0.00000

 Dipole moment (field-independent basis, Debye):
    X=              0.0353    Y=              0.0019    Z=              0.2853  Tot=              0.2875
 Quadrupole moment (field-independent basis, Debye-Ang):
   XX=            -24.0340   YY=            -23.3177   ZZ=            -29.0491
   XY=             -0.3082   XZ=              0.0188   YZ=              0.1101

 1\1\GINC-NODE15\SP\RB2PLYPD3-FC\def2QZVP\C4H6\BOITTIER\26-Aug-2020\0\\
 #p B2PLYPD3/Def2QZVP\\butadiene\\0,1\C,0,-3.836481,0.196481,-0.022025\
 C,0,-2.703377,-0.449548,0.095856\C,0,-1.377301,0.062402,0.080452\C,0,-
 0.262132,-0.66667,-0.016474\H,0,-4.763017,-0.33874,-0.208296\H,0,-3.92
 617,1.331733,-0.120136\H,0,-2.887926,-1.502323,0.085144\H,0,-1.361337,
 1.145712,0.134432\H,0,-0.425634,-1.790093,0.115166\H,0,0.678525,-0.163
 452,-0.323355\\Version=ES64L-G09RevD.01\State=1-A\HF=-155.6832911\MP2=
 -155.9098371\RMSD=8.579e-09\PG=C01 [X(C4H6)]\\@

 Normal termination of Gaussian 09 at Wed Aug 26 13:06:08 2020.
