 Gaussian 09, Revision D.01,
 Gaussian 09:  ES64L-G09RevD.01 24-Apr-2013

 --------------------
 #p B2PLYPD3/Def2QZVP
 --------------------

 ---------
 butadiene
 ---------
 Symbolic Z-matrix:
 Charge =  0 Multiplicity = 1

                         Standard orientation:
 ---------------------------------------------------------------------
 Center     Atomic      Atomic             Coordinates (Angstroms)
 Number     Number       Type             X           Y           Z
 ---------------------------------------------------------------------
      1          6           0       -1.855839    0.139459   -0.011006
      2          6           0       -0.650633   -0.426516    0.015191
      3          6           0        0.604608    0.335788   -0.003090
      4          6           0        1.871038   -0.102449   -0.003320
      5          1           0       -2.764248   -0.454297   -0.101855
      6          1           0       -1.928549    1.280077   -0.053543
      7          1           0       -0.516813   -1.523567    0.248593
      8          1           0        0.616467    1.523262    0.096422
      9          1           0        2.092652   -1.109205   -0.240917
     10          1           0        2.685453    0.606037    0.064650
 ---------------------------------------------------------------------

 SCF Done:  E(RB2PLYPD3) =  -155.681171961     A.U. after   11 cycles
 E2(B2PLYPD3) =    -0.2273646636D+00 E(B2PLYPD3) =    -0.15590853662415D+03

 The electronic state is 1-A.
 Alpha  occ. eigenvalues --  -10.63682 -10.63617 -10.62669 -10.61237  -0.92443
 Alpha  occ. eigenvalues --   -0.85130  -0.69844  -0.62265  -0.54336  -0.53698
 Alpha  occ. eigenvalues --   -0.46989  -0.44419  -0.40243  -0.37538  -0.27931
 Alpha virt. eigenvalues --    0.01387   0.06837   0.07177   0.07686   0.09325
 Alpha virt. eigenvalues --    0.11491   0.12261   0.14320   0.15170   0.16423
 Alpha virt. eigenvalues --    0.18664   0.19617   0.21158   0.22256   0.24165

 Mulliken charges:
               1
     1  C   -0.162802
     2  C   -0.050790
     3  C   -0.013776
     4  C   -0.182374
     5  H    0.092731
     6  H    0.068769
     7  H    0.064380
     8  H    0.030648
     9  H    0.068371
    10  H    0.084842
 Sum of Mulliken charges =   0.00000

 Dipole moment (field-independent basis, Debye):
    X=             -0.0934    Y=             -0.0593    Z=             -0.0169  Tot=              0.1119
 Quadrupole moment (field-independent basis, Debye-Ang):
   XX=            -23.3899   YY=            -23.4305   ZZ=            -29.3571
   XY=              0.2393   XZ=              0.0168   YZ=              0.1162

 1\1\GINC-NODE22\SP\RB2PLYPD3-FC\def2QZVP\C4H6\BOITTIER\26-Aug-2020\0\\
 #p B2PLYPD3/Def2QZVP\\butadiene\\0,1\C,0,-3.8529,0.239847,0.008739\C,0
 ,-2.760203,-0.52019,0.052253\C,0,-1.394538,0.018862,0.014134\C,0,-0.22
 0063,-0.626368,0.027725\H,0,-4.84868,-0.194622,-0.066533\H,0,-3.732533
 ,1.374772,-0.065844\H,0,-2.812319,-1.617174,0.316479\H,0,-1.182415,1.1
 89656,0.080333\H,0,-0.172089,-1.66229,-0.181288\H,0,0.702318,-0.063652
 ,0.076796\\Version=ES64L-G09RevD.01\State=1-A\HF=-155.681172\MP2=-155.
 9085366\RMSD=7.212e-09\PG=C01 [X(C4H6)]\\@

 Normal termination of Gaussian 09 at Wed Aug 26 14:01:01 2020.
