 Gaussian 09, Revision D.01,
 Gaussian 09:  ES64L-G09RevD.01 24-Apr-2013

 --------------------
 #p B2PLYPD3/Def2QZVP
 --------------------

 ---------
 butadiene
 ---------
 Symbolic Z-matrix:
 Charge =  0 Multiplicity = 1

                         Standard orientation:
 ---------------------------------------------------------------------
 Center     Atomic      Atomic             Coordinates (Angstroms)
 Number     Number       Type             X           Y           Z
 ---------------------------------------------------------------------
      1          6           0        1.849850   -0.098148   -0.028997
      2          6           0        0.598384    0.394482    0.047156
      3          6           0       -0.619015   -0.441157    0.013510
      4          6           0       -1.841794    0.117863   -0.008041
      5          1           0        2.674229    0.561376   -0.023474
      6          1           0        2.054668   -1.164494    0.030000
      7          1           0        0.460044    1.512894   -0.065008
      8          1           0       -0.419209   -1.494707   -0.033036
      9          1           0       -1.958856    1.221207   -0.008260
     10          1           0       -2.735425   -0.474516   -0.041992
 ---------------------------------------------------------------------

 SCF Done:  E(RB2PLYPD3) =  -155.695620613     A.U. after   11 cycles
 E2(B2PLYPD3) =    -0.2265615830D+00 E(B2PLYPD3) =    -0.15592218219647D+03

 The electronic state is 1-A.
 Alpha  occ. eigenvalues --  -10.63209 -10.62928 -10.62017 -10.61380  -0.92446
 Alpha  occ. eigenvalues --   -0.84612  -0.70033  -0.63697  -0.54620  -0.53427
 Alpha  occ. eigenvalues --   -0.46885  -0.45348  -0.41025  -0.37683  -0.27626
 Alpha virt. eigenvalues --    0.01655   0.07034   0.07252   0.08118   0.09092
 Alpha virt. eigenvalues --    0.11661   0.12393   0.14605   0.15661   0.16100
 Alpha virt. eigenvalues --    0.18762   0.20019   0.21819   0.22988   0.24023

 Mulliken charges:
               1
     1  C   -0.182571
     2  C   -0.023002
     3  C   -0.044057
     4  C   -0.167476
     5  H    0.087039
     6  H    0.064248
     7  H    0.049423
     8  H    0.061704
     9  H    0.067089
    10  H    0.087603
 Sum of Mulliken charges =   0.00000

 Dipole moment (field-independent basis, Debye):
    X=             -0.0294    Y=             -0.0391    Z=             -0.0824  Tot=              0.0959
 Quadrupole moment (field-independent basis, Debye-Ang):
   XX=            -23.5640   YY=            -23.0357   ZZ=            -29.4252
   XY=             -0.2652   XZ=              0.1066   YZ=             -0.0981

 1\1\GINC-NODE13\SP\RB2PLYPD3-FC\def2QZVP\C4H6\BOITTIER\26-Aug-2020\0\\
 #p B2PLYPD3/Def2QZVP\\butadiene\\0,1\C,0,-3.855332,0.215742,-0.010554\
 C,0,-2.714497,-0.495305,0.076382\C,0,-1.365208,0.103427,0.027151\C,0,-
 0.264963,-0.669572,0.017697\H,0,-4.786154,-0.282106,0.007384\H,0,-3.86
 206,1.302509,0.027101\H,0,-2.782778,-1.622173,-0.013451\H,0,-1.369639,
 1.174625,-0.040457\H,0,-0.351101,-1.775545,0.03947\H,0,0.721622,-0.250
 919,-0.027275\\Version=ES64L-G09RevD.01\State=1-A\HF=-155.6956206\MP2=
 -155.9221822\RMSD=4.719e-09\PG=C01 [X(C4H6)]\\@

 Normal termination of Gaussian 09 at Wed Aug 26 08:50:52 2020.
