 Gaussian 09, Revision D.01,
 Gaussian 09:  ES64L-G09RevD.01 24-Apr-2013

 --------------------
 #p B2PLYPD3/Def2QZVP
 --------------------

 ---------
 butadiene
 ---------
 Symbolic Z-matrix:
 Charge =  0 Multiplicity = 1

                         Standard orientation:
 ---------------------------------------------------------------------
 Center     Atomic      Atomic             Coordinates (Angstroms)
 Number     Number       Type             X           Y           Z
 ---------------------------------------------------------------------
      1          6           0       -1.856500    0.054590   -0.045736
      2          6           0       -0.586563   -0.333281   -0.023178
      3          6           0        0.594082    0.441485    0.028014
      4          6           0        1.847024   -0.141044   -0.008380
      5          1           0       -2.691899   -0.571148    0.116921
      6          1           0       -2.121707    1.048261    0.002715
      7          1           0       -0.437307   -1.385398    0.165117
      8          1           0        0.483742    1.508103    0.115536
      9          1           0        2.088850   -1.231524   -0.033593
     10          1           0        2.690064    0.501201   -0.071010
 ---------------------------------------------------------------------

 SCF Done:  E(RB2PLYPD3) =  -155.686513907     A.U. after   12 cycles
 E2(B2PLYPD3) =    -0.2266407552D+00 E(B2PLYPD3) =    -0.15591315466226D+03

 The electronic state is 1-A.
 Alpha  occ. eigenvalues --  -10.63150 -10.62703 -10.61875 -10.60397  -0.93281
 Alpha  occ. eigenvalues --   -0.84619  -0.71548  -0.64406  -0.55237  -0.53953
 Alpha  occ. eigenvalues --   -0.47139  -0.45472  -0.41557  -0.37773  -0.27150
 Alpha virt. eigenvalues --    0.00692   0.07026   0.07507   0.08058   0.09704
 Alpha virt. eigenvalues --    0.11535   0.12560   0.15012   0.15737   0.16343
 Alpha virt. eigenvalues --    0.19044   0.20271   0.22041   0.22658   0.23313

 Mulliken charges:
               1
     1  C   -0.172460
     2  C   -0.006602
     3  C   -0.057835
     4  C   -0.172319
     5  H    0.077944
     6  H    0.053672
     7  H    0.055064
     8  H    0.063769
     9  H    0.075227
    10  H    0.083540
 Sum of Mulliken charges =   0.00000

 Dipole moment (field-independent basis, Debye):
    X=              0.1008    Y=              0.0502    Z=              0.2691  Tot=              0.2918
 Quadrupole moment (field-independent basis, Debye-Ang):
   XX=            -23.1475   YY=            -23.3101   ZZ=            -29.1801
   XY=             -0.4386   XZ=             -0.7339   YZ=             -0.1343

 1\1\GINC-NODE26\SP\RB2PLYPD3-FC\def2QZVP\C4H6\BOITTIER\26-Aug-2020\0\\
 #p B2PLYPD3/Def2QZVP\\butadiene\\0,1\C,0,-3.866601,0.184195,-0.010211\
 C,0,-2.691782,-0.434237,0.021964\C,0,-1.386329,0.106335,0.041464\C,0,-
 0.2653,-0.702017,0.021744\H,0,-4.802863,-0.267544,0.177516\H,0,-3.9402
 42,1.21106,0.003552\H,0,-2.740622,-1.48853,0.247273\H,0,-1.293788,1.17
 7072,0.091145\H,0,-0.232547,-1.818718,0.034746\H,0,0.682564,-0.232058,
 -0.066635\\Version=ES64L-G09RevD.01\State=1-A\HF=-155.6865139\MP2=-155
 .9131547\RMSD=3.641e-09\PG=C01 [X(C4H6)]\\@

 Normal termination of Gaussian 09 at Wed Aug 26 12:09:31 2020.
