 Gaussian 09, Revision D.01,
 Gaussian 09:  ES64L-G09RevD.01 24-Apr-2013

 --------------------
 #p B2PLYPD3/Def2QZVP
 --------------------

 ---------
 butadiene
 ---------
 Symbolic Z-matrix:
 Charge =  0 Multiplicity = 1

                         Standard orientation:
 ---------------------------------------------------------------------
 Center     Atomic      Atomic             Coordinates (Angstroms)
 Number     Number       Type             X           Y           Z
 ---------------------------------------------------------------------
      1          6           0        1.835017   -0.093728    0.016677
      2          6           0        0.589951    0.388014   -0.040505
      3          6           0       -0.606155   -0.443699   -0.009888
      4          6           0       -1.825704    0.132519    0.033156
      5          1           0        2.638703    0.571682   -0.009868
      6          1           0        2.034895   -1.149951    0.099220
      7          1           0        0.445810    1.488382   -0.028879
      8          1           0       -0.420511   -1.493677   -0.040937
      9          1           0       -1.957261    1.192212    0.084943
     10          1           0       -2.700288   -0.507278   -0.101121
 ---------------------------------------------------------------------

 SCF Done:  E(RB2PLYPD3) =  -155.696608317     A.U. after   11 cycles
 E2(B2PLYPD3) =    -0.2260163760D+00 E(B2PLYPD3) =    -0.15592262469280D+03

 The electronic state is 1-A.
 Alpha  occ. eigenvalues --  -10.62627 -10.62502 -10.61747 -10.60861  -0.92911
 Alpha  occ. eigenvalues --   -0.84751  -0.70241  -0.64209  -0.54408  -0.54071
 Alpha  occ. eigenvalues --   -0.47200  -0.45497  -0.41376  -0.37831  -0.27428
 Alpha virt. eigenvalues --    0.01653   0.07052   0.07344   0.08149   0.09330
 Alpha virt. eigenvalues --    0.11804   0.12364   0.14896   0.15786   0.16012
 Alpha virt. eigenvalues --    0.18728   0.20431   0.21528   0.22867   0.24181

 Mulliken charges:
               1
     1  C   -0.186184
     2  C   -0.018967
     3  C   -0.042107
     4  C   -0.174870
     5  H    0.088234
     6  H    0.064557
     7  H    0.048027
     8  H    0.064502
     9  H    0.074730
    10  H    0.082078
 Sum of Mulliken charges =   0.00000

 Dipole moment (field-independent basis, Debye):
    X=             -0.0030    Y=             -0.0045    Z=             -0.0261  Tot=              0.0267
 Quadrupole moment (field-independent basis, Debye-Ang):
   XX=            -23.9075   YY=            -22.8574   ZZ=            -29.2766
   XY=             -0.3144   XZ=              0.3510   YZ=              0.0873

 1\1\GINC-NODE06\SP\RB2PLYPD3-FC\def2QZVP\C4H6\BOITTIER\26-Aug-2020\0\\
 #p B2PLYPD3/Def2QZVP\\butadiene\\0,1\C,0,-3.839622,0.214685,0.039501\C
 ,0,-2.705143,-0.490141,-0.001861\C,0,-1.376032,0.107201,-0.001426\C,0,
 -0.283313,-0.682283,0.060706\H,0,-4.752364,-0.291559,0.036972\H,0,-3.8
 40773,1.291849,0.085184\H,0,-2.766221,-1.597159,0.048162\H,0,-1.365175
 ,1.171714,-0.06906\H,0,-0.348968,-1.745651,0.149452\H,0,0.693212,-0.21
 9785,-0.096652\\Version=ES64L-G09RevD.01\State=1-A\HF=-155.6966083\MP2
 =-155.9226247\RMSD=7.334e-09\PG=C01 [X(C4H6)]\\@

 Normal termination of Gaussian 09 at Wed Aug 26 11:09:49 2020.
