 Gaussian 09, Revision D.01,
 Gaussian 09:  ES64L-G09RevD.01 24-Apr-2013

 --------------------
 #p B2PLYPD3/Def2QZVP
 --------------------

 ---------
 butadiene
 ---------
 Symbolic Z-matrix:
 Charge =  0 Multiplicity = 1

                         Standard orientation:
 ---------------------------------------------------------------------
 Center     Atomic      Atomic             Coordinates (Angstroms)
 Number     Number       Type             X           Y           Z
 ---------------------------------------------------------------------
      1          6           0        1.827232    0.120958   -0.024019
      2          6           0        0.609997   -0.413409    0.007513
      3          6           0       -0.593860    0.379999    0.027631
      4          6           0       -1.835557   -0.101292   -0.010403
      5          1           0        2.722465   -0.507809    0.020500
      6          1           0        1.946983    1.216417   -0.061883
      7          1           0        0.468736   -1.478981    0.092826
      8          1           0       -0.480491    1.464421    0.069536
      9          1           0       -1.999634   -1.159598   -0.091682
     10          1           0       -2.704932    0.548015   -0.033625
 ---------------------------------------------------------------------

 SCF Done:  E(RB2PLYPD3) =  -155.700314203     A.U. after   11 cycles
 E2(B2PLYPD3) =    -0.2256868430D+00 E(B2PLYPD3) =    -0.15592600104597D+03

 The electronic state is 1-A.
 Alpha  occ. eigenvalues --  -10.62345 -10.62270 -10.61860 -10.61295  -0.93270
 Alpha  occ. eigenvalues --   -0.84968  -0.70006  -0.64047  -0.54497  -0.53999
 Alpha  occ. eigenvalues --   -0.46733  -0.45343  -0.41175  -0.38282  -0.27715
 Alpha virt. eigenvalues --    0.01777   0.07019   0.07395   0.08001   0.09694
 Alpha virt. eigenvalues --    0.11723   0.12407   0.14697   0.15786   0.16110
 Alpha virt. eigenvalues --    0.18716   0.20433   0.21435   0.22696   0.23992

 Mulliken charges:
               1
     1  C   -0.173115
     2  C   -0.034846
     3  C   -0.020410
     4  C   -0.179963
     5  H    0.086376
     6  H    0.066620
     7  H    0.057133
     8  H    0.049107
     9  H    0.062708
    10  H    0.086390
 Sum of Mulliken charges =   0.00000

 Dipole moment (field-independent basis, Debye):
    X=              0.0269    Y=             -0.0126    Z=              0.0143  Tot=              0.0329
 Quadrupole moment (field-independent basis, Debye-Ang):
   XX=            -23.5858   YY=            -23.1201   ZZ=            -29.2305
   XY=              0.0127   XZ=              0.2664   YZ=             -0.0455

 1\1\GINC-NODE11\SP\RB2PLYPD3-FC\def2QZVP\C4H6\BOITTIER\26-Aug-2020\0\\
 #p B2PLYPD3/Def2QZVP\\butadiene\\0,1\C,0,-3.82663,0.233421,0.038239\C,
 0,-2.725006,-0.511194,0.02487\C,0,-1.398378,0.052695,-0.010612\C,0,-0.
 263117,-0.642335,0.044318\H,0,-4.820156,-0.225542,0.006142\H,0,-3.7479
 22,1.3332,0.048016\H,0,-2.777227,-1.586647,-0.033011\H,0,-1.31543,1.13
 8442,-0.080276\H,0,-0.291465,-1.710487,0.152879\H,0,0.708639,-0.159078
 ,0.054508\\Version=ES64L-G09RevD.01\State=1-A\HF=-155.7003142\MP2=-155
 .926001\RMSD=3.384e-09\PG=C01 [X(C4H6)]\\@

 Normal termination of Gaussian 09 at Wed Aug 26 21:30:00 2020.
