 Gaussian 09, Revision D.01,
 Gaussian 09:  ES64L-G09RevD.01 24-Apr-2013

 --------------------
 #p B2PLYPD3/Def2QZVP
 --------------------

 ---------
 butadiene
 ---------
 Symbolic Z-matrix:
 Charge =  0 Multiplicity = 1

                         Standard orientation:
 ---------------------------------------------------------------------
 Center     Atomic      Atomic             Coordinates (Angstroms)
 Number     Number       Type             X           Y           Z
 ---------------------------------------------------------------------
      1          6           0       -1.844656   -0.115564   -0.027614
      2          6           0       -0.596595    0.403458    0.033079
      3          6           0        0.607815   -0.390902    0.013320
      4          6           0        1.843699    0.100176   -0.014665
      5          1           0       -2.703192    0.523605   -0.003913
      6          1           0       -2.052798   -1.155455   -0.006452
      7          1           0       -0.486011    1.477806    0.006059
      8          1           0        0.461097   -1.464914    0.027994
      9          1           0        2.018539    1.169379   -0.034260
     10          1           0        2.700791   -0.533431   -0.014145
 ---------------------------------------------------------------------

 SCF Done:  E(RB2PLYPD3) =  -155.700385715     A.U. after   11 cycles
 E2(B2PLYPD3) =    -0.2256878635D+00 E(B2PLYPD3) =    -0.15592607357829D+03

 The electronic state is 1-A.
 Alpha  occ. eigenvalues --  -10.62673 -10.62328 -10.61442 -10.61293  -0.93024
 Alpha  occ. eigenvalues --   -0.84867  -0.70689  -0.64253  -0.54839  -0.54080
 Alpha  occ. eigenvalues --   -0.46705  -0.45869  -0.41335  -0.38128  -0.27510
 Alpha virt. eigenvalues --    0.01467   0.07015   0.07503   0.08101   0.09665
 Alpha virt. eigenvalues --    0.11672   0.12487   0.14861   0.15862   0.16215
 Alpha virt. eigenvalues --    0.18853   0.20400   0.21918   0.22822   0.23721

 Mulliken charges:
               1
     1  C   -0.176531
     2  C   -0.034506
     3  C   -0.025977
     4  C   -0.176237
     5  H    0.082179
     6  H    0.068206
     7  H    0.056853
     8  H    0.053816
     9  H    0.064343
    10  H    0.087855
 Sum of Mulliken charges =   0.00000

 Dipole moment (field-independent basis, Debye):
    X=             -0.0061    Y=             -0.0150    Z=              0.0114  Tot=              0.0198
 Quadrupole moment (field-independent basis, Debye-Ang):
   XX=            -23.3378   YY=            -23.1105   ZZ=            -29.2475
   XY=              0.2206   XZ=             -0.0659   YZ=             -0.0627

 1\1\GINC-NODE26\SP\RB2PLYPD3-FC\def2QZVP\C4H6\BOITTIER\26-Aug-2020\0\\
 #p B2PLYPD3/Def2QZVP\\butadiene\\0,1\C,0,-3.846095,0.234734,0.044198\C
 ,0,-2.713488,-0.504407,0.004267\C,0,-1.384621,0.057819,0.000059\C,0,-0
 .258575,-0.648647,0.047776\H,0,-4.806647,-0.238029,0.040062\H,0,-3.861
 703,1.293817,-0.012763\H,0,-2.800054,-1.579408,0.068008\H,0,-1.3336,1.
 139479,-0.051422\H,0,-0.28105,-1.73053,0.104082\H,0,0.699455,-0.181906
 ,0.02789\\Version=ES64L-G09RevD.01\State=1-A\HF=-155.7003857\MP2=-155.
 9260736\RMSD=5.788e-09\PG=C01 [X(C4H6)]\\@

 Normal termination of Gaussian 09 at Wed Aug 26 08:40:59 2020.
