 Gaussian 09, Revision D.01,
 Gaussian 09:  ES64L-G09RevD.01 24-Apr-2013

 --------------------
 #p B2PLYPD3/Def2QZVP
 --------------------

 ---------
 butadiene
 ---------
 Symbolic Z-matrix:
 Charge =  0 Multiplicity = 1

                         Standard orientation:
 ---------------------------------------------------------------------
 Center     Atomic      Atomic             Coordinates (Angstroms)
 Number     Number       Type             X           Y           Z
 ---------------------------------------------------------------------
      1          6           0       -1.849309   -0.105220   -0.020532
      2          6           0       -0.602681    0.395768    0.015405
      3          6           0        0.612860   -0.414047    0.002522
      4          6           0        1.841494    0.116377   -0.012212
      5          1           0       -2.698602    0.543657    0.059162
      6          1           0       -2.046447   -1.159707   -0.044631
      7          1           0       -0.457097    1.467411    0.025714
      8          1           0        0.492386   -1.475277    0.057808
      9          1           0        2.012682    1.189567   -0.044328
     10          1           0        2.682894   -0.522920    0.035176
 ---------------------------------------------------------------------

 SCF Done:  E(RB2PLYPD3) =  -155.700595417     A.U. after   11 cycles
 E2(B2PLYPD3) =    -0.2256137324D+00 E(B2PLYPD3) =    -0.15592620914960D+03

 The electronic state is 1-A.
 Alpha  occ. eigenvalues --  -10.62612 -10.62420 -10.61379 -10.61361  -0.92795
 Alpha  occ. eigenvalues --   -0.84879  -0.70359  -0.64319  -0.54664  -0.54035
 Alpha  occ. eigenvalues --   -0.46635  -0.46076  -0.41338  -0.37878  -0.27593
 Alpha virt. eigenvalues --    0.01653   0.07028   0.07476   0.08140   0.09506
 Alpha virt. eigenvalues --    0.11702   0.12411   0.14826   0.15824   0.16173
 Alpha virt. eigenvalues --    0.18857   0.20416   0.21712   0.22913   0.23853

 Mulliken charges:
               1
     1  C   -0.177577
     2  C   -0.033060
     3  C   -0.034322
     4  C   -0.176944
     5  H    0.084843
     6  H    0.067125
     7  H    0.056477
     8  H    0.059205
     9  H    0.068074
    10  H    0.086180
 Sum of Mulliken charges =   0.00000

 Dipole moment (field-independent basis, Debye):
    X=              0.0322    Y=             -0.0193    Z=              0.0928  Tot=              0.1001
 Quadrupole moment (field-independent basis, Debye-Ang):
   XX=            -23.5310   YY=            -22.9844   ZZ=            -29.2663
   XY=              0.2228   XZ=             -0.0443   YZ=             -0.0307

 1\1\GINC-NODE31\SP\RB2PLYPD3-FC\def2QZVP\C4H6\BOITTIER\26-Aug-2020\0\\
 #p B2PLYPD3/Def2QZVP\\butadiene\\0,1\C,0,-3.852309,0.22301,0.035786\C,
 0,-2.717054,-0.496207,0.018884\C,0,-1.375004,0.080242,0.008168\C,0,-0.
 262586,-0.663016,0.042826\H,0,-4.805284,-0.263684,-0.024686\H,0,-3.855
 293,1.295981,0.025215\H,0,-2.767825,-1.576266,0.043681\H,0,-1.301665,1
 .143401,-0.081796\H,0,-0.288299,-1.747858,0.110132\H,0,0.680424,-0.188
 417,-0.023423\\Version=ES64L-G09RevD.01\State=1-A\HF=-155.7005954\MP2=
 -155.9262091\RMSD=2.700e-09\PG=C01 [X(C4H6)]\\@

 Normal termination of Gaussian 09 at Wed Aug 26 20:50:40 2020.
