 Gaussian 09, Revision D.01,
 Gaussian 09:  ES64L-G09RevD.01 24-Apr-2013

 --------------------
 #p B2PLYPD3/Def2QZVP
 --------------------

 ---------
 butadiene
 ---------
 Symbolic Z-matrix:
 Charge =  0 Multiplicity = 1

                         Standard orientation:
 ---------------------------------------------------------------------
 Center     Atomic      Atomic             Coordinates (Angstroms)
 Number     Number       Type             X           Y           Z
 ---------------------------------------------------------------------
      1          6           0        1.872305    0.100479   -0.083225
      2          6           0        0.611123   -0.374757    0.059392
      3          6           0       -0.642079    0.425130    0.009279
      4          6           0       -1.844076   -0.139457   -0.034707
      5          1           0        2.550506   -0.598066    0.066735
      6          1           0        2.169869    1.091195   -0.007469
      7          1           0        0.446768   -1.428049    0.162674
      8          1           0       -0.505638    1.528273    0.191046
      9          1           0       -1.958995   -1.195007   -0.105322
     10          1           0       -2.686148    0.533282   -0.012098
 ---------------------------------------------------------------------

 SCF Done:  E(RB2PLYPD3) =  -155.682784709     A.U. after   12 cycles
 E2(B2PLYPD3) =    -0.2258044623D+00 E(B2PLYPD3) =    -0.15590858917097D+03

 The electronic state is 1-A.
 Alpha  occ. eigenvalues --  -10.62937 -10.62841 -10.61381 -10.60031  -0.92492
 Alpha  occ. eigenvalues --   -0.85488  -0.70816  -0.63866  -0.54800  -0.54258
 Alpha  occ. eigenvalues --   -0.47289  -0.46611  -0.40770  -0.37170  -0.27937
 Alpha virt. eigenvalues --    0.01584   0.07066   0.07419   0.08066   0.09339
 Alpha virt. eigenvalues --    0.11653   0.12471   0.15079   0.15600   0.16176
 Alpha virt. eigenvalues --    0.18875   0.19634   0.22024   0.22781   0.24183

 Mulliken charges:
               1
     1  C   -0.165653
     2  C   -0.048105
     3  C   -0.024974
     4  C   -0.183182
     5  H    0.078518
     6  H    0.068950
     7  H    0.054032
     8  H    0.055639
     9  H    0.076002
    10  H    0.088773
 Sum of Mulliken charges =   0.00000

 Dipole moment (field-independent basis, Debye):
    X=             -0.0929    Y=             -0.0229    Z=              0.3153  Tot=              0.3295
 Quadrupole moment (field-independent basis, Debye-Ang):
   XX=            -23.8024   YY=            -22.8946   ZZ=            -29.1535
   XY=              0.3986   XZ=              0.4040   YZ=              0.1215

 1\1\GINC-NODE26\SP\RB2PLYPD3-FC\def2QZVP\C4H6\BOITTIER\26-Aug-2020\0\\
 #p B2PLYPD3/Def2QZVP\\butadiene\\0,1\C,0,-3.876741,0.221298,0.08799\C,
 0,-2.721468,-0.477903,-0.027039\C,0,-1.345189,0.086292,-0.007404\C,0,-
 0.263476,-0.681652,0.067752\H,0,-4.669521,-0.350715,-0.033301\H,0,-3.9
 92483,1.244783,-0.034006\H,0,-2.748613,-1.547193,-0.081679\H,0,-1.2826
 65,1.186626,-0.239647\H,0,-0.33905,-1.736412,0.1867\H,0,0.685302,-0.17
 2166,0.018588\\Version=ES64L-G09RevD.01\State=1-A\HF=-155.6827847\MP2=
 -155.9085892\RMSD=3.035e-09\PG=C01 [X(C4H6)]\\@

 Normal termination of Gaussian 09 at Wed Aug 26 12:15:11 2020.
