 Gaussian 09, Revision D.01,
 Gaussian 09:  ES64L-G09RevD.01 24-Apr-2013

 --------------------
 #p B2PLYPD3/Def2QZVP
 --------------------

 ---------
 butadiene
 ---------
 Symbolic Z-matrix:
 Charge =  0 Multiplicity = 1

                         Standard orientation:
 ---------------------------------------------------------------------
 Center     Atomic      Atomic             Coordinates (Angstroms)
 Number     Number       Type             X           Y           Z
 ---------------------------------------------------------------------
      1          6           0        1.840570    0.111732    0.029382
      2          6           0        0.602330   -0.406582   -0.022306
      3          6           0       -0.612603    0.400055   -0.024276
      4          6           0       -1.837860   -0.106880    0.015110
      5          1           0        2.719478   -0.518345    0.007041
      6          1           0        1.999918    1.175629    0.002968
      7          1           0        0.444693   -1.467264   -0.020707
      8          1           0       -0.447551    1.485143   -0.051851
      9          1           0       -1.948928   -1.173692   -0.001450
     10          1           0       -2.722227    0.508579    0.076544
 ---------------------------------------------------------------------

 SCF Done:  E(RB2PLYPD3) =  -155.700693328     A.U. after   11 cycles
 E2(B2PLYPD3) =    -0.2256257376D+00 E(B2PLYPD3) =    -0.15592631906565D+03

 The electronic state is 1-A.
 Alpha  occ. eigenvalues --  -10.62560 -10.62472 -10.61593 -10.61282  -0.93002
 Alpha  occ. eigenvalues --   -0.84940  -0.70193  -0.64195  -0.54675  -0.53880
 Alpha  occ. eigenvalues --   -0.46940  -0.45767  -0.41085  -0.38062  -0.27719
 Alpha virt. eigenvalues --    0.01762   0.07023   0.07409   0.08130   0.09554
 Alpha virt. eigenvalues --    0.11717   0.12524   0.14693   0.15819   0.16129
 Alpha virt. eigenvalues --    0.18764   0.20363   0.21730   0.23126   0.23773

 Mulliken charges:
               1
     1  C   -0.176350
     2  C   -0.034512
     3  C   -0.021984
     4  C   -0.178052
     5  H    0.085443
     6  H    0.066699
     7  H    0.055106
     8  H    0.049843
     9  H    0.063902
    10  H    0.089907
 Sum of Mulliken charges =   0.00000

 Dipole moment (field-independent basis, Debye):
    X=             -0.0079    Y=             -0.0040    Z=             -0.0214  Tot=              0.0232
 Quadrupole moment (field-independent basis, Debye-Ang):
   XX=            -23.4503   YY=            -23.1480   ZZ=            -29.2540
   XY=              0.1525   XZ=             -0.2005   YZ=              0.0155

 1\1\GINC-NODE37\SP\RB2PLYPD3-FC\def2QZVP\C4H6\BOITTIER\26-Aug-2020\0\\
 #p B2PLYPD3/Def2QZVP\\butadiene\\0,1\C,0,-3.843281,0.226296,-0.008455\
 C,0,-2.718584,-0.50523,0.058521\C,0,-1.378102,0.068705,0.037629\C,0,-0
 .264568,-0.651876,0.013237\H,0,-4.821291,-0.233981,0.031755\H,0,-3.808
 013,1.301798,-0.012745\H,0,-2.754834,-1.576557,0.087522\H,0,-1.344617,
 1.166103,0.033888\H,0,-0.34764,-1.720314,0.060552\H,0,0.715983,-0.2080
 65,-0.065627\\Version=ES64L-G09RevD.01\State=1-A\HF=-155.7006933\MP2=-
 155.9263191\RMSD=5.412e-09\PG=C01 [X(C4H6)]\\@

 Normal termination of Gaussian 09 at Wed Aug 26 09:19:00 2020.
