 Gaussian 09, Revision D.01,
 Gaussian 09:  ES64L-G09RevD.01 24-Apr-2013

 --------------------
 #p B2PLYPD3/Def2QZVP
 --------------------

 ---------
 butadiene
 ---------
 Symbolic Z-matrix:
 Charge =  0 Multiplicity = 1

                         Standard orientation:
 ---------------------------------------------------------------------
 Center     Atomic      Atomic             Coordinates (Angstroms)
 Number     Number       Type             X           Y           Z
 ---------------------------------------------------------------------
      1          6           0       -1.852144    0.095574   -0.020699
      2          6           0       -0.602219   -0.383164    0.010876
      3          6           0        0.603158    0.406910    0.017549
      4          6           0        1.839386   -0.116301   -0.009514
      5          1           0       -2.700101   -0.560694    0.033038
      6          1           0       -2.051125    1.144851   -0.087464
      7          1           0       -0.413801   -1.435121    0.072153
      8          1           0        0.504218    1.507475    0.106167
      9          1           0        2.027063   -1.171127   -0.063405
     10          1           0        2.704662    0.496501   -0.049758
 ---------------------------------------------------------------------

 SCF Done:  E(RB2PLYPD3) =  -155.699686699     A.U. after   11 cycles
 E2(B2PLYPD3) =    -0.2257276288D+00 E(B2PLYPD3) =    -0.15592541432741D+03

 The electronic state is 1-A.
 Alpha  occ. eigenvalues --  -10.62770 -10.62341 -10.61402 -10.61358  -0.93041
 Alpha  occ. eigenvalues --   -0.84875  -0.70811  -0.64085  -0.54874  -0.54012
 Alpha  occ. eigenvalues --   -0.46858  -0.45892  -0.41198  -0.38060  -0.27540
 Alpha virt. eigenvalues --    0.01443   0.07039   0.07475   0.08080   0.09682
 Alpha virt. eigenvalues --    0.11659   0.12472   0.14873   0.15828   0.16165
 Alpha virt. eigenvalues --    0.18866   0.20371   0.21885   0.22844   0.23578

 Mulliken charges:
               1
     1  C   -0.178651
     2  C   -0.031619
     3  C   -0.027030
     4  C   -0.177365
     5  H    0.087313
     6  H    0.069537
     7  H    0.056708
     8  H    0.052100
     9  H    0.063661
    10  H    0.085347
 Sum of Mulliken charges =   0.00000

 Dipole moment (field-independent basis, Debye):
    X=              0.0421    Y=             -0.0098    Z=              0.0201  Tot=              0.0477
 Quadrupole moment (field-independent basis, Debye-Ang):
   XX=            -23.2869   YY=            -23.1902   ZZ=            -29.2209
   XY=             -0.2756   XZ=             -0.1853   YZ=             -0.0447

 1\1\GINC-NODE24\SP\RB2PLYPD3-FC\def2QZVP\C4H6\BOITTIER\26-Aug-2020\0\\
 #p B2PLYPD3/Def2QZVP\\butadiene\\0,1\C,0,-3.854435,0.216692,0.000922\C
 ,0,-2.712944,-0.481416,0.04722\C,0,-1.383439,0.074789,0.031581\C,0,-0.
 263821,-0.666208,0.020555\H,0,-4.807803,-0.271635,0.073262\H,0,-3.8585
 77,1.282298,-0.09655\H,0,-2.719704,-1.547882,0.139279\H,0,-1.279115,1.
 176978,0.08799\H,0,-0.272378,-1.738674,-0.002422\H,0,0.698692,-0.22337
 3,-0.037019\\Version=ES64L-G09RevD.01\State=1-A\HF=-155.6996867\MP2=-1
 55.9254143\RMSD=2.805e-09\PG=C01 [X(C4H6)]\\@

 Normal termination of Gaussian 09 at Wed Aug 26 21:22:26 2020.
