 Gaussian 09, Revision D.01,
 Gaussian 09:  ES64L-G09RevD.01 24-Apr-2013

 --------------------
 #p B2PLYPD3/Def2QZVP
 --------------------

 ---------
 butadiene
 ---------
 Symbolic Z-matrix:
 Charge =  0 Multiplicity = 1

                         Standard orientation:
 ---------------------------------------------------------------------
 Center     Atomic      Atomic             Coordinates (Angstroms)
 Number     Number       Type             X           Y           Z
 ---------------------------------------------------------------------
      1          6           0       -1.818593   -0.145947    0.033549
      2          6           0       -0.607599    0.451556   -0.099851
      3          6           0        0.568343   -0.360103   -0.066090
      4          6           0        1.839669    0.062943    0.053620
      5          1           0       -2.762620    0.441442    0.326144
      6          1           0       -1.899438   -1.251590    0.098272
      7          1           0       -0.457894    1.538107   -0.032102
      8          1           0        0.434254   -1.429590   -0.202573
      9          1           0        1.927921    1.184259    0.015450
     10          1           0        2.866863   -0.533318    0.267442
 ---------------------------------------------------------------------

 SCF Done:  E(RB2PLYPD3) =  -155.674234338     A.U. after   11 cycles
 E2(B2PLYPD3) =    -0.2288796732D+00 E(B2PLYPD3) =    -0.15590311401122D+03

 The electronic state is 1-A.
 Alpha  occ. eigenvalues --  -10.63442 -10.63232 -10.63216 -10.62633  -0.93321
 Alpha  occ. eigenvalues --   -0.83945  -0.69084  -0.63914  -0.53448  -0.52982
 Alpha  occ. eigenvalues --   -0.46473  -0.43890  -0.41160  -0.37960  -0.27224
 Alpha virt. eigenvalues --    0.01096   0.06804   0.07180   0.07538   0.09127
 Alpha virt. eigenvalues --    0.11351   0.12593   0.13944   0.15475   0.16207
 Alpha virt. eigenvalues --    0.18632   0.19895   0.21360   0.22903   0.23044

 Mulliken charges:
               1
     1  C   -0.158029
     2  C   -0.042241
     3  C   -0.014966
     4  C   -0.178872
     5  H    0.077293
     6  H    0.066086
     7  H    0.061253
     8  H    0.054809
     9  H    0.044994
    10  H    0.089673
 Sum of Mulliken charges =   0.00000

 Dipole moment (field-independent basis, Debye):
    X=             -0.0831    Y=             -0.0225    Z=              0.3114  Tot=              0.3231
 Quadrupole moment (field-independent basis, Debye-Ang):
   XX=            -23.7873   YY=            -23.4937   ZZ=            -29.4196
   XY=             -0.0491   XZ=             -0.4025   YZ=              0.0780

 1\1\GINC-NODE23\SP\RB2PLYPD3-FC\def2QZVP\C4H6\BOITTIER\26-Aug-2020\0\\
 #p B2PLYPD3/Def2QZVP\\butadiene\\0,1\C,0,-3.812224,0.253845,-0.030309\
 C,0,-2.728049,-0.546597,0.128342\C,0,-1.425485,0.03906,0.072644\C,0,-0
 .251042,-0.609226,-0.027239\H,0,-4.846901,-0.163965,-0.307259\H,0,-3.6
 93237,1.353211,-0.13233\H,0,-2.776088,-1.644023,0.097631\H,0,-1.365035
 ,1.11922,0.172689\H,0,-0.365602,-1.726226,0.048801\H,0,0.866199,-0.214
 693,-0.256348\\Version=ES64L-G09RevD.01\State=1-A\HF=-155.6742343\MP2=
 -155.903114\RMSD=9.144e-09\PG=C01 [X(C4H6)]\\@

 Normal termination of Gaussian 09 at Wed Aug 26 15:06:30 2020.
