 Gaussian 09, Revision D.01,
 Gaussian 09:  ES64L-G09RevD.01 24-Apr-2013

 --------------------
 #p B2PLYPD3/Def2QZVP
 --------------------

 ---------
 butadiene
 ---------
 Symbolic Z-matrix:
 Charge =  0 Multiplicity = 1

                         Standard orientation:
 ---------------------------------------------------------------------
 Center     Atomic      Atomic             Coordinates (Angstroms)
 Number     Number       Type             X           Y           Z
 ---------------------------------------------------------------------
      1          6           0       -1.855676   -0.098788    0.019860
      2          6           0       -0.605189    0.384890   -0.037288
      3          6           0        0.625846   -0.420878   -0.040923
      4          6           0        1.853331    0.115237    0.002302
      5          1           0       -2.697397    0.576388    0.137882
      6          1           0       -2.120945   -1.162495   -0.015987
      7          1           0       -0.404332    1.431210   -0.054010
      8          1           0        0.467202   -1.454605    0.056708
      9          1           0        1.880017    1.203443    0.092611
     10          1           0        2.765580   -0.476711    0.119096
 ---------------------------------------------------------------------

 SCF Done:  E(RB2PLYPD3) =  -155.695668136     A.U. after   11 cycles
 E2(B2PLYPD3) =    -0.2261065761D+00 E(B2PLYPD3) =    -0.15592177471181D+03

 The electronic state is 1-A.
 Alpha  occ. eigenvalues --  -10.62661 -10.62315 -10.61950 -10.61929  -0.92794
 Alpha  occ. eigenvalues --   -0.84737  -0.70108  -0.64593  -0.54775  -0.53243
 Alpha  occ. eigenvalues --   -0.47287  -0.45680  -0.40876  -0.37797  -0.27725
 Alpha virt. eigenvalues --    0.01547   0.06960   0.07461   0.08210   0.09340
 Alpha virt. eigenvalues --    0.11683   0.12473   0.14609   0.15566   0.16239
 Alpha virt. eigenvalues --    0.18786   0.20172   0.21812   0.22904   0.23856

 Mulliken charges:
               1
     1  C   -0.177623
     2  C   -0.036253
     3  C   -0.030961
     4  C   -0.171788
     5  H    0.082939
     6  H    0.069251
     7  H    0.056172
     8  H    0.060154
     9  H    0.058924
    10  H    0.089186
 Sum of Mulliken charges =   0.00000

 Dipole moment (field-independent basis, Debye):
    X=             -0.0169    Y=             -0.0486    Z=              0.2569  Tot=              0.2620
 Quadrupole moment (field-independent basis, Debye-Ang):
   XX=            -23.4491   YY=            -23.2583   ZZ=            -29.2809
   XY=              0.1720   XZ=              0.2418   YZ=              0.0316

 1\1\GINC-NODE35\SP\RB2PLYPD3-FC\def2QZVP\C4H6\BOITTIER\26-Aug-2020\0\\
 #p B2PLYPD3/Def2QZVP\\butadiene\\0,1\C,0,-3.86221,0.214395,-0.004186\C
 ,0,-2.719121,-0.485151,0.065899\C,0,-1.363013,0.085268,0.048073\C,0,-0
 .25248,-0.664326,0.019219\H,0,-4.812393,-0.300815,-0.104177\H,0,-3.931
 24,1.309066,0.003248\H,0,-2.710063,-1.549732,0.110549\H,0,-1.333207,1.
 127731,-0.07712\H,0,-0.422799,-1.741499,-0.042013\H,0,0.750952,-0.2498
 33,-0.113298\\Version=ES64L-G09RevD.01\State=1-A\HF=-155.6956681\MP2=-
 155.9217747\RMSD=3.124e-09\PG=C01 [X(C4H6)]\\@

 Normal termination of Gaussian 09 at Wed Aug 26 07:47:40 2020.
