 Gaussian 09, Revision D.01,
 Gaussian 09:  ES64L-G09RevD.01 24-Apr-2013

 --------------------
 #p B2PLYPD3/Def2QZVP
 --------------------

 ---------
 butadiene
 ---------
 Symbolic Z-matrix:
 Charge =  0 Multiplicity = 1

                         Standard orientation:
 ---------------------------------------------------------------------
 Center     Atomic      Atomic             Coordinates (Angstroms)
 Number     Number       Type             X           Y           Z
 ---------------------------------------------------------------------
      1          6           0        1.818695   -0.117897    0.007150
      2          6           0        0.621414    0.401364   -0.030800
      3          6           0       -0.609569   -0.447390    0.028866
      4          6           0       -1.833417    0.124341   -0.005664
      5          1           0        2.641175    0.611050   -0.013473
      6          1           0        1.942510   -1.160350   -0.161207
      7          1           0        0.502443    1.519818    0.197636
      8          1           0       -0.370060   -1.558233    0.147566
      9          1           0       -1.898776    1.256020   -0.095218
     10          1           0       -2.800033   -0.430813   -0.072615
 ---------------------------------------------------------------------

 SCF Done:  E(RB2PLYPD3) =  -155.682207506     A.U. after   11 cycles
 E2(B2PLYPD3) =    -0.2272935136D+00 E(B2PLYPD3) =    -0.15590950101918D+03

 The electronic state is 1-A.
 Alpha  occ. eigenvalues --  -10.63898 -10.62844 -10.62770 -10.60921  -0.92632
 Alpha  occ. eigenvalues --   -0.84819  -0.68692  -0.62899  -0.53960  -0.53192
 Alpha  occ. eigenvalues --   -0.46308  -0.44881  -0.40352  -0.37581  -0.28143
 Alpha virt. eigenvalues --    0.02152   0.06773   0.07144   0.07768   0.08807
 Alpha virt. eigenvalues --    0.11749   0.12302   0.14390   0.15149   0.15758
 Alpha virt. eigenvalues --    0.18409   0.19693   0.21419   0.22928   0.24330

 Mulliken charges:
               1
     1  C   -0.179911
     2  C   -0.011793
     3  C   -0.050225
     4  C   -0.164189
     5  H    0.081295
     6  H    0.070647
     7  H    0.051378
     8  H    0.054512
     9  H    0.061406
    10  H    0.086879
 Sum of Mulliken charges =   0.00000

 Dipole moment (field-independent basis, Debye):
    X=              0.0137    Y=             -0.0160    Z=             -0.0229  Tot=              0.0312
 Quadrupole moment (field-independent basis, Debye-Ang):
   XX=            -24.0489   YY=            -23.0808   ZZ=            -29.3988
   XY=             -0.1347   XZ=              0.1168   YZ=              0.1813

 1\1\GINC-NODE15\SP\RB2PLYPD3-FC\def2QZVP\C4H6\BOITTIER\26-Aug-2020\0\\
 #p B2PLYPD3/Def2QZVP\\butadiene\\0,1\C,0,-3.822257,0.219666,0.026984\C
 ,0,-2.736085,-0.504549,0.009756\C,0,-1.373937,0.114314,0.03846\C,0,-0.
 270889,-0.666083,0.026653\H,0,-4.760923,-0.352286,0.033145\H,0,-3.7604
 95,1.260544,-0.180719\H,0,-2.815724,-1.617072,0.28036\H,0,-1.412266,1.
 25366,0.114921\H,0,-0.407475,-1.79398,-0.020055\H,0,0.778352,-0.293856
 ,-0.060326\\Version=ES64L-G09RevD.01\State=1-A\HF=-155.6822075\MP2=-15
 5.909501\RMSD=8.928e-09\PG=C01 [X(C4H6)]\\@

 Normal termination of Gaussian 09 at Wed Aug 26 14:25:17 2020.
