 Gaussian 09, Revision D.01,
 Gaussian 09:  ES64L-G09RevD.01 24-Apr-2013

 --------------------
 #p B2PLYPD3/Def2QZVP
 --------------------

 ---------
 butadiene
 ---------
 Symbolic Z-matrix:
 Charge =  0 Multiplicity = 1

                         Standard orientation:
 ---------------------------------------------------------------------
 Center     Atomic      Atomic             Coordinates (Angstroms)
 Number     Number       Type             X           Y           Z
 ---------------------------------------------------------------------
      1          6           0        1.829065   -0.117879    0.015408
      2          6           0        0.606549    0.419274   -0.035078
      3          6           0       -0.597101   -0.397729   -0.009547
      4          6           0       -1.839778    0.095037    0.000444
      5          1           0        2.741104    0.491110    0.026120
      6          1           0        1.955941   -1.190627    0.050459
      7          1           0        0.469866    1.515703    0.009405
      8          1           0       -0.412401   -1.456676   -0.027256
      9          1           0       -2.017871    1.168214    0.076193
     10          1           0       -2.729048   -0.519951    0.037720
 ---------------------------------------------------------------------

 SCF Done:  E(RB2PLYPD3) =  -155.699871242     A.U. after   11 cycles
 E2(B2PLYPD3) =    -0.2259978976D+00 E(B2PLYPD3) =    -0.15592586914004D+03

 The electronic state is 1-A.
 Alpha  occ. eigenvalues --  -10.62781 -10.62510 -10.61741 -10.61609  -0.92996
 Alpha  occ. eigenvalues --   -0.84729  -0.70036  -0.64090  -0.54652  -0.53588
 Alpha  occ. eigenvalues --   -0.46833  -0.45380  -0.41047  -0.38137  -0.27660
 Alpha virt. eigenvalues --    0.01723   0.07019   0.07323   0.08082   0.09444
 Alpha virt. eigenvalues --    0.11667   0.12515   0.14629   0.15742   0.16248
 Alpha virt. eigenvalues --    0.18756   0.20295   0.21892   0.22971   0.23570

 Mulliken charges:
               1
     1  C   -0.174809
     2  C   -0.026129
     3  C   -0.031959
     4  C   -0.173192
     5  H    0.085132
     6  H    0.064275
     7  H    0.054007
     8  H    0.055914
     9  H    0.062142
    10  H    0.084617
 Sum of Mulliken charges =   0.00000

 Dipole moment (field-independent basis, Debye):
    X=              0.0327    Y=             -0.0117    Z=              0.1299  Tot=              0.1345
 Quadrupole moment (field-independent basis, Debye-Ang):
   XX=            -23.4191   YY=            -23.1798   ZZ=            -29.3083
   XY=             -0.2269   XZ=             -0.0611   YZ=              0.0815

 1\1\GINC-NODE37\SP\RB2PLYPD3-FC\def2QZVP\C4H6\BOITTIER\26-Aug-2020\0\\
 #p B2PLYPD3/Def2QZVP\\butadiene\\0,1\C,0,-3.829106,0.23441,0.034511\C,
 0,-2.7251,-0.517902,0.005764\C,0,-1.392667,0.066513,0.006266\C,0,-0.26
 0527,-0.643777,0.036482\H,0,-4.83678,-0.197482,0.063823\H,0,-3.758298,
 1.312879,0.032237\H,0,-2.790284,-1.618695,0.088367\H,0,-1.381425,1.140
 143,-0.048412\H,0,-0.280643,-1.728191,0.149639\H,0,0.72603,-0.200192,0
 .054864\\Version=ES64L-G09RevD.01\State=1-A\HF=-155.6998712\MP2=-155.9
 258691\RMSD=3.285e-09\PG=C01 [X(C4H6)]\\@

 Normal termination of Gaussian 09 at Wed Aug 26 16:13:28 2020.
