 Gaussian 09, Revision D.01,
 Gaussian 09:  ES64L-G09RevD.01 24-Apr-2013

 --------------------
 #p B2PLYPD3/Def2QZVP
 --------------------

 ---------
 butadiene
 ---------
 Symbolic Z-matrix:
 Charge =  0 Multiplicity = 1

                         Standard orientation:
 ---------------------------------------------------------------------
 Center     Atomic      Atomic             Coordinates (Angstroms)
 Number     Number       Type             X           Y           Z
 ---------------------------------------------------------------------
      1          6           0       -1.836611    0.104081   -0.020942
      2          6           0       -0.592955   -0.387976    0.002385
      3          6           0        0.595871    0.411364    0.021660
      4          6           0        1.828899   -0.112172   -0.010407
      5          1           0       -2.679345   -0.587674    0.075587
      6          1           0       -2.054035    1.156877   -0.043533
      7          1           0       -0.447459   -1.457608    0.039195
      8          1           0        0.470567    1.497164    0.012915
      9          1           0        1.991684   -1.186236   -0.065993
     10          1           0        2.747363    0.485690    0.025655
 ---------------------------------------------------------------------

 SCF Done:  E(RB2PLYPD3) =  -155.699749824     A.U. after   11 cycles
 E2(B2PLYPD3) =    -0.2260515679D+00 E(B2PLYPD3) =    -0.15592580139173D+03

 The electronic state is 1-A.
 Alpha  occ. eigenvalues --  -10.62555 -10.62313 -10.61838 -10.61558  -0.93243
 Alpha  occ. eigenvalues --   -0.84688  -0.70254  -0.64145  -0.54452  -0.53987
 Alpha  occ. eigenvalues --   -0.46465  -0.45509  -0.41270  -0.38290  -0.27470
 Alpha virt. eigenvalues --    0.01506   0.06985   0.07398   0.08004   0.09661
 Alpha virt. eigenvalues --    0.11685   0.12403   0.14803   0.15849   0.16110
 Alpha virt. eigenvalues --    0.18794   0.20538   0.21612   0.22634   0.23762

 Mulliken charges:
               1
     1  C   -0.179326
     2  C   -0.026023
     3  C   -0.030077
     4  C   -0.172580
     5  H    0.081993
     6  H    0.069709
     7  H    0.056067
     8  H    0.055091
     9  H    0.062113
    10  H    0.083033
 Sum of Mulliken charges =   0.00000

 Dipole moment (field-independent basis, Debye):
    X=              0.0413    Y=              0.0014    Z=              0.0539  Tot=              0.0679
 Quadrupole moment (field-independent basis, Debye-Ang):
   XX=            -23.5380   YY=            -23.1027   ZZ=            -29.2833
   XY=             -0.2649   XZ=             -0.2184   YZ=             -0.0566

 1\1\GINC-NODE29\SP\RB2PLYPD3-FC\def2QZVP\C4H6\BOITTIER\26-Aug-2020\0\\
 #p B2PLYPD3/Def2QZVP\\butadiene\\0,1\C,0,-3.838379,0.221947,0.001209\C
 ,0,-2.705902,-0.488874,0.04086\C,0,-1.390587,0.079041,0.034328\C,0,-0.
 274647,-0.662538,0.019639\H,0,-4.793083,-0.30003,0.120054\H,0,-3.85922
 8,1.295484,-0.055759\H,0,-2.758765,-1.565303,0.112572\H,0,-1.314748,1.
 168552,-0.009856\H,0,-0.311859,-1.749459,-0.000848\H,0,0.738051,-0.242
 446,0.036394\\Version=ES64L-G09RevD.01\State=1-A\HF=-155.6997498\MP2=-
 155.9258014\RMSD=2.999e-09\PG=C01 [X(C4H6)]\\@

 Normal termination of Gaussian 09 at Wed Aug 26 18:39:51 2020.
