 Gaussian 09, Revision D.01,
 Gaussian 09:  ES64L-G09RevD.01 24-Apr-2013

 --------------------
 #p B2PLYPD3/Def2QZVP
 --------------------

 ---------
 butadiene
 ---------
 Symbolic Z-matrix:
 Charge =  0 Multiplicity = 1

                         Standard orientation:
 ---------------------------------------------------------------------
 Center     Atomic      Atomic             Coordinates (Angstroms)
 Number     Number       Type             X           Y           Z
 ---------------------------------------------------------------------
      1          6           0        1.836121    0.109836    0.014001
      2          6           0        0.598212   -0.408390   -0.013536
      3          6           0       -0.598975    0.392649   -0.023894
      4          6           0       -1.836953   -0.110732    0.026721
      5          1           0        2.724486   -0.526996   -0.038244
      6          1           0        1.994818    1.197072    0.080377
      7          1           0        0.433431   -1.464662   -0.016086
      8          1           0       -0.455369    1.481259   -0.038825
      9          1           0       -2.016617   -1.167091    0.026740
     10          1           0       -2.671176    0.580239   -0.033715
 ---------------------------------------------------------------------

 SCF Done:  E(RB2PLYPD3) =  -155.699540308     A.U. after   11 cycles
 E2(B2PLYPD3) =    -0.2260764269D+00 E(B2PLYPD3) =    -0.15592561673470D+03

 The electronic state is 1-A.
 Alpha  occ. eigenvalues --  -10.62457 -10.62343 -10.61991 -10.61423  -0.93140
 Alpha  occ. eigenvalues --   -0.84709  -0.70177  -0.64111  -0.54292  -0.53985
 Alpha  occ. eigenvalues --   -0.46443  -0.45816  -0.41251  -0.38160  -0.27507
 Alpha virt. eigenvalues --    0.01546   0.06982   0.07375   0.08051   0.09625
 Alpha virt. eigenvalues --    0.11760   0.12315   0.14804   0.15865   0.15939
 Alpha virt. eigenvalues --    0.18727   0.20558   0.21393   0.22782   0.23936

 Mulliken charges:
               1
     1  C   -0.175971
     2  C   -0.033674
     3  C   -0.021219
     4  C   -0.182185
     5  H    0.085689
     6  H    0.065952
     7  H    0.056641
     8  H    0.050114
     9  H    0.069371
    10  H    0.085282
 Sum of Mulliken charges =   0.00000

 Dipole moment (field-independent basis, Debye):
    X=              0.0120    Y=             -0.0190    Z=             -0.0435  Tot=              0.0490
 Quadrupole moment (field-independent basis, Debye-Ang):
   XX=            -23.7203   YY=            -23.0175   ZZ=            -29.3080
   XY=              0.1999   XZ=              0.0991   YZ=              0.0472

 1\1\GINC-NODE06\SP\RB2PLYPD3-FC\def2QZVP\C4H6\BOITTIER\26-Aug-2020\0\\
 #p B2PLYPD3/Def2QZVP\\butadiene\\0,1\C,0,-3.837056,0.229963,0.002755\C
 ,0,-2.714703,-0.504743,0.050365\C,0,-1.391196,0.063774,0.038282\C,0,-0
 .266307,-0.658866,0.007305\H,0,-4.826725,-0.231666,0.072985\H,0,-3.794
 472,1.325184,-0.098978\H,0,-2.745845,-1.5727,0.087327\H,0,-1.333268,1.
 160197,0.017812\H,0,-0.282841,-1.729714,0.041743\H,0,0.680388,-0.13052
 1,0.047807\\Version=ES64L-G09RevD.01\State=1-A\HF=-155.6995403\MP2=-15
 5.9256167\RMSD=3.357e-09\PG=C01 [X(C4H6)]\\@

 Normal termination of Gaussian 09 at Wed Aug 26 15:49:41 2020.
