 Gaussian 09, Revision D.01,
 Gaussian 09:  ES64L-G09RevD.01 24-Apr-2013

 --------------------
 #p B2PLYPD3/Def2QZVP
 --------------------

 ---------
 butadiene
 ---------
 Symbolic Z-matrix:
 Charge =  0 Multiplicity = 1

                         Standard orientation:
 ---------------------------------------------------------------------
 Center     Atomic      Atomic             Coordinates (Angstroms)
 Number     Number       Type             X           Y           Z
 ---------------------------------------------------------------------
      1          6           0       -1.825704   -0.124551    0.006476
      2          6           0       -0.595036    0.414872    0.004447
      3          6           0        0.596579   -0.386312   -0.006451
      4          6           0        1.830027    0.097178   -0.010829
      5          1           0       -2.691164    0.492193   -0.037927
      6          1           0       -1.985581   -1.188548   -0.058592
      7          1           0       -0.520128    1.508218    0.075329
      8          1           0        0.470732   -1.440353    0.065778
      9          1           0        1.996292    1.166555   -0.051540
     10          1           0        2.694656   -0.545188    0.045093
 ---------------------------------------------------------------------

 SCF Done:  E(RB2PLYPD3) =  -155.699995134     A.U. after   11 cycles
 E2(B2PLYPD3) =    -0.2255103830D+00 E(B2PLYPD3) =    -0.15592550551717D+03

 The electronic state is 1-A.
 Alpha  occ. eigenvalues --  -10.62615 -10.61916 -10.61313 -10.61201  -0.93328
 Alpha  occ. eigenvalues --   -0.85000  -0.70311  -0.64248  -0.54708  -0.54328
 Alpha  occ. eigenvalues --   -0.46409  -0.45596  -0.41595  -0.38284  -0.27554
 Alpha virt. eigenvalues --    0.01705   0.07074   0.07457   0.08040   0.09641
 Alpha virt. eigenvalues --    0.11730   0.12482   0.14798   0.15834   0.16236
 Alpha virt. eigenvalues --    0.18750   0.20288   0.21731   0.22923   0.23968

 Mulliken charges:
               1
     1  C   -0.176503
     2  C   -0.032824
     3  C   -0.026114
     4  C   -0.176953
     5  H    0.083772
     6  H    0.065378
     7  H    0.055388
     8  H    0.058003
     9  H    0.064324
    10  H    0.085530
 Sum of Mulliken charges =   0.00000

 Dipole moment (field-independent basis, Debye):
    X=             -0.0218    Y=             -0.0117    Z=              0.0277  Tot=              0.0371
 Quadrupole moment (field-independent basis, Debye-Ang):
   XX=            -23.5530   YY=            -23.0446   ZZ=            -29.1798
   XY=              0.0359   XZ=              0.2783   YZ=             -0.0330

 1\1\GINC-NODE25\SP\RB2PLYPD3-FC\def2QZVP\C4H6\BOITTIER\26-Aug-2020\0\\
 #p B2PLYPD3/Def2QZVP\\butadiene\\0,1\C,0,-3.825885,0.237116,0.013946\C
 ,0,-2.712916,-0.515551,0.031775\C,0,-1.396133,0.057043,0.018364\C,0,-0
 .270313,-0.64107,0.036868\H,0,-4.788252,-0.211478,0.077023\H,0,-3.7905
 54,1.313931,0.047189\H,0,-2.837152,-1.606033,-0.006378\H,0,-1.329911,1
 .113886,-0.085339\H,0,-0.299732,-1.721221,0.109515\H,0,0.6958,-0.16747
 5,-0.03849\\Version=ES64L-G09RevD.01\State=1-A\HF=-155.6999951\MP2=-15
 5.9255055\RMSD=5.506e-09\PG=C01 [X(C4H6)]\\@

 Normal termination of Gaussian 09 at Wed Aug 26 12:00:24 2020.
