 Gaussian 09, Revision D.01,
 Gaussian 09:  ES64L-G09RevD.01 24-Apr-2013

 --------------------
 #p B2PLYPD3/Def2QZVP
 --------------------

 ---------
 butadiene
 ---------
 Symbolic Z-matrix:
 Charge =  0 Multiplicity = 1

                         Standard orientation:
 ---------------------------------------------------------------------
 Center     Atomic      Atomic             Coordinates (Angstroms)
 Number     Number       Type             X           Y           Z
 ---------------------------------------------------------------------
      1          6           0       -1.842608    0.098520    0.028277
      2          6           0       -0.611599   -0.393291   -0.013833
      3          6           0        0.609418    0.420662   -0.028409
      4          6           0        1.846712   -0.119751    0.016479
      5          1           0       -2.684559   -0.559285    0.036546
      6          1           0       -2.035628    1.173986   -0.037472
      7          1           0       -0.458298   -1.461941   -0.064968
      8          1           0        0.449989    1.519002   -0.016566
      9          1           0        1.978212   -1.196807    0.002426
     10          1           0        2.738742    0.488206    0.064944
 ---------------------------------------------------------------------

 SCF Done:  E(RB2PLYPD3) =  -155.699571544     A.U. after   11 cycles
 E2(B2PLYPD3) =    -0.2259947342D+00 E(B2PLYPD3) =    -0.15592556627816D+03

 The electronic state is 1-A.
 Alpha  occ. eigenvalues --  -10.63165 -10.62424 -10.61869 -10.61340  -0.92703
 Alpha  occ. eigenvalues --   -0.84807  -0.70050  -0.63836  -0.54600  -0.53643
 Alpha  occ. eigenvalues --   -0.46776  -0.45690  -0.41011  -0.37869  -0.27707
 Alpha virt. eigenvalues --    0.01733   0.07025   0.07310   0.08103   0.09427
 Alpha virt. eigenvalues --    0.11662   0.12411   0.14665   0.15783   0.16136
 Alpha virt. eigenvalues --    0.18792   0.20463   0.21550   0.22964   0.23811

 Mulliken charges:
               1
     1  C   -0.176176
     2  C   -0.026097
     3  C   -0.035414
     4  C   -0.175727
     5  H    0.086196
     6  H    0.065354
     7  H    0.054012
     8  H    0.052978
     9  H    0.066671
    10  H    0.088203
 Sum of Mulliken charges =   0.00000

 Dipole moment (field-independent basis, Debye):
    X=              0.0067    Y=             -0.0226    Z=             -0.0456  Tot=              0.0514
 Quadrupole moment (field-independent basis, Debye-Ang):
   XX=            -23.4983   YY=            -23.0809   ZZ=            -29.3431
   XY=             -0.2013   XZ=              0.2206   YZ=              0.0306

 1\1\GINC-NODE27\SP\RB2PLYPD3-FC\def2QZVP\C4H6\BOITTIER\26-Aug-2020\0\\
 #p B2PLYPD3/Def2QZVP\\butadiene\\0,1\C,0,-3.846903,0.215154,0.043428\C
 ,0,-2.72509,-0.491947,0.019354\C,0,-1.377122,0.087284,-0.013629\C,0,-0
 .257772,-0.666296,0.050637\H,0,-4.79384,-0.279222,0.067081\H,0,-3.8425
 23,1.30552,-0.052949\H,0,-2.76749,-1.571715,-0.001437\H,0,-1.335448,1.
 196247,-0.032964\H,0,-0.323073,-1.749349,0.067072\H,0,0.729503,-0.2283
 84,0.08526\\Version=ES64L-G09RevD.01\State=1-A\HF=-155.6995715\MP2=-15
 5.9255663\RMSD=6.089e-09\PG=C01 [X(C4H6)]\\@

 Normal termination of Gaussian 09 at Wed Aug 26 19:53:17 2020.
