 Gaussian 09, Revision D.01,
 Gaussian 09:  ES64L-G09RevD.01 24-Apr-2013

 --------------------
 #p B2PLYPD3/Def2QZVP
 --------------------

 ---------
 butadiene
 ---------
 Symbolic Z-matrix:
 Charge =  0 Multiplicity = 1

                         Standard orientation:
 ---------------------------------------------------------------------
 Center     Atomic      Atomic             Coordinates (Angstroms)
 Number     Number       Type             X           Y           Z
 ---------------------------------------------------------------------
      1          6           0        1.836138   -0.154362   -0.027201
      2          6           0        0.623663    0.454422    0.064763
      3          6           0       -0.587598   -0.374525   -0.016049
      4          6           0       -1.870591    0.081320   -0.000238
      5          1           0        2.771548    0.487580   -0.042834
      6          1           0        1.964932   -1.170476    0.071697
      7          1           0        0.595237    1.563270   -0.120524
      8          1           0       -0.368381   -1.481887   -0.023469
      9          1           0       -2.213949    1.120331    0.008157
     10          1           0       -2.759057   -0.559943   -0.020683
 ---------------------------------------------------------------------

 SCF Done:  E(RB2PLYPD3) =  -155.684137304     A.U. after   11 cycles
 E2(B2PLYPD3) =    -0.2279940349D+00 E(B2PLYPD3) =    -0.15591213133930D+03

 The electronic state is 1-A.
 Alpha  occ. eigenvalues --  -10.63937 -10.63613 -10.62232 -10.62085  -0.92219
 Alpha  occ. eigenvalues --   -0.84109  -0.70102  -0.63873  -0.54306  -0.53121
 Alpha  occ. eigenvalues --   -0.45985  -0.45260  -0.40792  -0.37644  -0.27373
 Alpha virt. eigenvalues --    0.01127   0.06971   0.07286   0.07728   0.08785
 Alpha virt. eigenvalues --    0.11418   0.12434   0.14689   0.15327   0.16496
 Alpha virt. eigenvalues --    0.18782   0.19616   0.22298   0.22747   0.23447

 Mulliken charges:
               1
     1  C   -0.171172
     2  C   -0.032018
     3  C   -0.040123
     4  C   -0.170521
     5  H    0.073165
     6  H    0.076087
     7  H    0.067804
     8  H    0.054596
     9  H    0.064899
    10  H    0.077283
 Sum of Mulliken charges =   0.00000

 Dipole moment (field-independent basis, Debye):
    X=              0.0817    Y=             -0.0009    Z=             -0.0735  Tot=              0.1100
 Quadrupole moment (field-independent basis, Debye-Ang):
   XX=            -23.2523   YY=            -23.2199   ZZ=            -29.5689
   XY=             -0.5082   XZ=             -0.0556   YZ=             -0.2651

 1\1\GINC-NODE36\SP\RB2PLYPD3-FC\def2QZVP\C4H6\BOITTIER\26-Aug-2020\0\\
 #p B2PLYPD3/Def2QZVP\\butadiene\\0,1\C,0,-3.830114,0.266248,-0.010506\
 C,0,-2.746523,-0.54899,0.091411\C,0,-1.40621,0.048027,0.002137\C,0,-0.
 225841,-0.630407,0.026073\H,0,-4.865548,-0.197563,-0.019574\H,0,-3.774
 415,1.290172,0.07513\H,0,-2.91765,-1.647241,-0.079596\H,0,-1.423149,1.
 176561,-0.019867\H,0,-0.07451,-1.71397,0.048396\H,0,0.763269,-0.159306
 ,-0.001009\\Version=ES64L-G09RevD.01\State=1-A\HF=-155.6841373\MP2=-15
 5.9121313\RMSD=7.048e-09\PG=C01 [X(C4H6)]\\@

 Normal termination of Gaussian 09 at Wed Aug 26 12:17:54 2020.
