 Gaussian 09, Revision D.01,
 Gaussian 09:  ES64L-G09RevD.01 24-Apr-2013

 --------------------
 #p B2PLYPD3/Def2QZVP
 --------------------

 ---------
 butadiene
 ---------
 Symbolic Z-matrix:
 Charge =  0 Multiplicity = 1

                         Standard orientation:
 ---------------------------------------------------------------------
 Center     Atomic      Atomic             Coordinates (Angstroms)
 Number     Number       Type             X           Y           Z
 ---------------------------------------------------------------------
      1          6           0       -1.826355   -0.124377   -0.012228
      2          6           0       -0.601264    0.431314    0.042923
      3          6           0        0.588635   -0.401432    0.007827
      4          6           0        1.832811    0.099750   -0.028407
      5          1           0       -2.657234    0.506391   -0.090334
      6          1           0       -1.971759   -1.197024   -0.112573
      7          1           0       -0.448704    1.488026    0.085018
      8          1           0        0.463864   -1.458348    0.147510
      9          1           0        1.966990    1.179925   -0.077707
     10          1           0        2.683878   -0.550500   -0.012608
 ---------------------------------------------------------------------

 SCF Done:  E(RB2PLYPD3) =  -155.697898009     A.U. after   11 cycles
 E2(B2PLYPD3) =    -0.2259056784D+00 E(B2PLYPD3) =    -0.15592380368779D+03

 The electronic state is 1-A.
 Alpha  occ. eigenvalues --  -10.62512 -10.62199 -10.61357 -10.61297  -0.93017
 Alpha  occ. eigenvalues --   -0.84737  -0.70187  -0.64455  -0.54516  -0.54166
 Alpha  occ. eigenvalues --   -0.46673  -0.45720  -0.41786  -0.37845  -0.27407
 Alpha virt. eigenvalues --    0.01705   0.07115   0.07402   0.08139   0.09248
 Alpha virt. eigenvalues --    0.11786   0.12443   0.14793   0.15652   0.16166
 Alpha virt. eigenvalues --    0.18658   0.20337   0.21566   0.23154   0.24032

 Mulliken charges:
               1
     1  C   -0.174063
     2  C   -0.042903
     3  C   -0.023699
     4  C   -0.187157
     5  H    0.084570
     6  H    0.070166
     7  H    0.061207
     8  H    0.060111
     9  H    0.063944
    10  H    0.087824
 Sum of Mulliken charges =   0.00000

 Dipole moment (field-independent basis, Debye):
    X=             -0.0310    Y=              0.0095    Z=             -0.0264  Tot=              0.0418
 Quadrupole moment (field-independent basis, Debye-Ang):
   XX=            -23.8927   YY=            -22.8721   ZZ=            -29.2348
   XY=              0.0893   XZ=              0.3871   YZ=             -0.0883

 1\1\GINC-NODE22\SP\RB2PLYPD3-FC\def2QZVP\C4H6\BOITTIER\26-Aug-2020\0\\
 #p B2PLYPD3/Def2QZVP\\butadiene\\0,1\C,0,-3.823739,0.242461,0.034972\C
 ,0,-2.721485,-0.529742,-0.002746\C,0,-1.399039,0.071634,0.003559\C,0,-
 0.267408,-0.647532,0.055344\H,0,-4.755479,-0.222546,0.134766\H,0,-3.76
 9629,1.326281,0.099695\H,0,-2.765237,-1.59732,-0.009787\H,0,-1.329198,
 1.128405,-0.171109\H,0,-0.332888,-1.731821,0.140445\H,0,0.688178,-0.16
 5054,0.017157\\Version=ES64L-G09RevD.01\State=1-A\HF=-155.697898\MP2=-
 155.9238037\RMSD=6.252e-09\PG=C01 [X(C4H6)]\\@

 Normal termination of Gaussian 09 at Wed Aug 26 08:59:28 2020.
