 Gaussian 09, Revision D.01,
 Gaussian 09:  ES64L-G09RevD.01 24-Apr-2013

 --------------------
 #p B2PLYPD3/Def2QZVP
 --------------------

 ---------
 butadiene
 ---------
 Symbolic Z-matrix:
 Charge =  0 Multiplicity = 1

                         Standard orientation:
 ---------------------------------------------------------------------
 Center     Atomic      Atomic             Coordinates (Angstroms)
 Number     Number       Type             X           Y           Z
 ---------------------------------------------------------------------
      1          6           0       -1.825478    0.107255   -0.022183
      2          6           0       -0.589585   -0.399500    0.012103
      3          6           0        0.597004    0.402588   -0.022213
      4          6           0        1.836250   -0.096080   -0.001954
      5          1           0       -2.720506   -0.512612    0.060644
      6          1           0       -2.014457    1.157985   -0.030054
      7          1           0       -0.459882   -1.460762    0.065651
      8          1           0        0.470188    1.502810    0.132371
      9          1           0        1.867660   -1.206380   -0.041896
     10          1           0        2.747859    0.433380    0.018772
 ---------------------------------------------------------------------

 SCF Done:  E(RB2PLYPD3) =  -155.695810495     A.U. after   11 cycles
 E2(B2PLYPD3) =    -0.2261067160D+00 E(B2PLYPD3) =    -0.15592191721081D+03

 The electronic state is 1-A.
 Alpha  occ. eigenvalues --  -10.62674 -10.62359 -10.61579 -10.61493  -0.93383
 Alpha  occ. eigenvalues --   -0.84885  -0.70395  -0.64017  -0.55305  -0.53607
 Alpha  occ. eigenvalues --   -0.47296  -0.44651  -0.41272  -0.38236  -0.27598
 Alpha virt. eigenvalues --    0.01553   0.07102   0.07343   0.08033   0.09559
 Alpha virt. eigenvalues --    0.11621   0.12694   0.14543   0.15559   0.16527
 Alpha virt. eigenvalues --    0.18717   0.19907   0.21972   0.22906   0.23829

 Mulliken charges:
               1
     1  C   -0.170684
     2  C   -0.032079
     3  C   -0.019080
     4  C   -0.175791
     5  H    0.080409
     6  H    0.066180
     7  H    0.055537
     8  H    0.049552
     9  H    0.050372
    10  H    0.095583
 Sum of Mulliken charges =   0.00000

 Dipole moment (field-independent basis, Debye):
    X=             -0.0014    Y=              0.0195    Z=              0.1802  Tot=              0.1812
 Quadrupole moment (field-independent basis, Debye-Ang):
   XX=            -23.2264   YY=            -23.3834   ZZ=            -29.2162
   XY=              0.0174   XZ=             -0.0732   YZ=              0.0802

 1\1\GINC-NODE40\SP\RB2PLYPD3-FC\def2QZVP\C4H6\BOITTIER\26-Aug-2020\0\\
 #p B2PLYPD3/Def2QZVP\\butadiene\\0,1\C,0,-3.83011,0.220227,0.003195\C,
 0,-2.706623,-0.501622,0.049208\C,0,-1.39427,0.070872,-0.000749\C,0,-0.
 266058,-0.643925,0.031074\H,0,-4.822534,-0.225031,0.098118\H,0,-3.8252
 7,1.287413,-0.026796\H,0,-2.771534,-1.567458,0.125031\H,0,-1.31885,1.1
 78798,0.130704\H,0,-0.436798,-1.742068,0.01436\H,0,0.726561,-0.288417,
 0.041586\\Version=ES64L-G09RevD.01\State=1-A\HF=-155.6958105\MP2=-155.
 9219172\RMSD=5.441e-09\PG=C01 [X(C4H6)]\\@

 Normal termination of Gaussian 09 at Wed Aug 26 10:49:50 2020.
