 Gaussian 09, Revision D.01,
 Gaussian 09:  ES64L-G09RevD.01 24-Apr-2013

 --------------------
 #p B2PLYPD3/Def2QZVP
 --------------------

 ---------
 butadiene
 ---------
 Symbolic Z-matrix:
 Charge =  0 Multiplicity = 1

                         Standard orientation:
 ---------------------------------------------------------------------
 Center     Atomic      Atomic             Coordinates (Angstroms)
 Number     Number       Type             X           Y           Z
 ---------------------------------------------------------------------
      1          6           0        1.823928   -0.115965   -0.014995
      2          6           0        0.583514    0.377674   -0.008040
      3          6           0       -0.603919   -0.353349   -0.007098
      4          6           0       -1.846615    0.080736   -0.036221
      5          1           0        2.709688    0.530570    0.012645
      6          1           0        2.075868   -1.213093    0.002031
      7          1           0        0.582886    1.575262    0.202963
      8          1           0       -0.400606   -1.434366    0.070710
      9          1           0       -2.003518    1.126684   -0.094278
     10          1           0       -2.705764   -0.519638    0.204059
 ---------------------------------------------------------------------

 SCF Done:  E(RB2PLYPD3) =  -155.680693939     A.U. after   11 cycles
 E2(B2PLYPD3) =    -0.2269007421D+00 E(B2PLYPD3) =    -0.15590759468063D+03

 The electronic state is 1-A.
 Alpha  occ. eigenvalues --  -10.63480 -10.62429 -10.62206 -10.61098  -0.93870
 Alpha  occ. eigenvalues --   -0.85203  -0.71119  -0.62461  -0.55162  -0.53737
 Alpha  occ. eigenvalues --   -0.47227  -0.44581  -0.40264  -0.38280  -0.27742
 Alpha virt. eigenvalues --    0.01066   0.06813   0.07077   0.07757   0.10171
 Alpha virt. eigenvalues --    0.11528   0.12466   0.14606   0.15481   0.16424
 Alpha virt. eigenvalues --    0.18732   0.19404   0.22061   0.22608   0.23569

 Mulliken charges:
               1
     1  C   -0.171972
     2  C   -0.018530
     3  C   -0.020621
     4  C   -0.165884
     5  H    0.085070
     6  H    0.057998
     7  H    0.035904
     8  H    0.045321
     9  H    0.063457
    10  H    0.089256
 Sum of Mulliken charges =   0.00000

 Dipole moment (field-independent basis, Debye):
    X=              0.0825    Y=             -0.0513    Z=              0.3348  Tot=              0.3486
 Quadrupole moment (field-independent basis, Debye-Ang):
   XX=            -23.0986   YY=            -23.7011   ZZ=            -29.1443
   XY=             -0.1233   XZ=             -0.3117   YZ=             -0.0724

 1\1\GINC-NODE16\SP\RB2PLYPD3-FC\def2QZVP\C4H6\BOITTIER\26-Aug-2020\0\\
 #p B2PLYPD3/Def2QZVP\\butadiene\\0,1\C,0,-3.829382,0.230093,0.007576\C
 ,0,-2.69965,-0.480713,0.036126\C,0,-1.398907,0.021347,0.016178\C,0,-0.
 256178,-0.632602,0.006623\H,0,-4.818032,-0.242911,0.054278\H,0,-3.8771
 73,1.35468,-0.014222\H,0,-2.916653,-1.650339,0.288363\H,0,-1.401658,1.
 123348,0.05586\H,0,-0.292618,-1.691004,-0.014701\H,0,0.698616,-0.19083
 4,0.229176\\Version=ES64L-G09RevD.01\State=1-A\HF=-155.6806939\MP2=-15
 5.9075947\RMSD=5.313e-09\PG=C01 [X(C4H6)]\\@

 Normal termination of Gaussian 09 at Wed Aug 26 13:42:13 2020.
