 Gaussian 09, Revision D.01,
 Gaussian 09:  ES64L-G09RevD.01 24-Apr-2013

 --------------------
 #p B2PLYPD3/Def2QZVP
 --------------------

 ---------
 butadiene
 ---------
 Symbolic Z-matrix:
 Charge =  0 Multiplicity = 1

                         Standard orientation:
 ---------------------------------------------------------------------
 Center     Atomic      Atomic             Coordinates (Angstroms)
 Number     Number       Type             X           Y           Z
 ---------------------------------------------------------------------
      1          6           0        1.831933   -0.110268    0.026900
      2          6           0        0.585829    0.398126   -0.023284
      3          6           0       -0.597302   -0.400675   -0.024230
      4          6           0       -1.831644    0.105030    0.015063
      5          1           0        2.703977    0.534315   -0.027224
      6          1           0        2.040392   -1.153898    0.029718
      7          1           0        0.456827    1.487800   -0.001264
      8          1           0       -0.447100   -1.465015   -0.024855
      9          1           0       -1.974996    1.154821    0.029463
     10          1           0       -2.712001   -0.511303    0.027469
 ---------------------------------------------------------------------

 SCF Done:  E(RB2PLYPD3) =  -155.699953537     A.U. after   11 cycles
 E2(B2PLYPD3) =    -0.2257672826D+00 E(B2PLYPD3) =    -0.15592572081949D+03

 The electronic state is 1-A.
 Alpha  occ. eigenvalues --  -10.62601 -10.62155 -10.61495 -10.61179  -0.93352
 Alpha  occ. eigenvalues --   -0.84782  -0.70680  -0.64355  -0.54834  -0.54107
 Alpha  occ. eigenvalues --   -0.46527  -0.45844  -0.41489  -0.38340  -0.27385
 Alpha virt. eigenvalues --    0.01450   0.07019   0.07466   0.08081   0.09693
 Alpha virt. eigenvalues --    0.11724   0.12543   0.14889   0.15879   0.16161
 Alpha virt. eigenvalues --    0.18769   0.20434   0.21962   0.22872   0.23736

 Mulliken charges:
               1
     1  C   -0.178732
     2  C   -0.027349
     3  C   -0.025627
     4  C   -0.177329
     5  H    0.081611
     6  H    0.066921
     7  H    0.052964
     8  H    0.055554
     9  H    0.065653
    10  H    0.086333
 Sum of Mulliken charges =   0.00000

 Dipole moment (field-independent basis, Debye):
    X=             -0.0144    Y=             -0.0204    Z=             -0.0036  Tot=              0.0253
 Quadrupole moment (field-independent basis, Debye-Ang):
   XX=            -23.4193   YY=            -23.1223   ZZ=            -29.2203
   XY=             -0.2526   XZ=             -0.1582   YZ=             -0.0079

 1\1\GINC-NODE03\SP\RB2PLYPD3-FC\def2QZVP\C4H6\BOITTIER\26-Aug-2020\0\\
 #p B2PLYPD3/Def2QZVP\\butadiene\\0,1\C,0,-3.83386,0.230383,0.043273\C,
 0,-2.702672,-0.499824,0.012156\C,0,-1.392795,0.067321,-0.009094\C,0,-0
 .272449,-0.655395,0.049108\H,0,-4.809729,-0.244121,0.005811\H,0,-3.846
 774,1.294157,0.014191\H,0,-2.776266,-1.593474,0.0672\H,0,-1.344645,1.1
 40622,-0.042059\H,0,-0.32462,-1.712729,0.095385\H,0,0.70629,-0.211427,
 0.045743\\Version=ES64L-G09RevD.01\State=1-A\HF=-155.6999535\MP2=-155.
 9257208\RMSD=4.289e-09\PG=C01 [X(C4H6)]\\@

 Normal termination of Gaussian 09 at Wed Aug 26 19:01:06 2020.
