 Gaussian 09, Revision D.01,
 Gaussian 09:  ES64L-G09RevD.01 24-Apr-2013

 --------------------
 #p B2PLYPD3/Def2QZVP
 --------------------

 ---------
 butadiene
 ---------
 Symbolic Z-matrix:
 Charge =  0 Multiplicity = 1

                         Standard orientation:
 ---------------------------------------------------------------------
 Center     Atomic      Atomic             Coordinates (Angstroms)
 Number     Number       Type             X           Y           Z
 ---------------------------------------------------------------------
      1          6           0       -1.843359    0.079030   -0.054639
      2          6           0       -0.635283   -0.307971    0.072004
      3          6           0        0.620462    0.402405    0.034037
      4          6           0        1.842182   -0.144471   -0.089038
      5          1           0       -2.573859   -0.696189   -0.000597
      6          1           0       -2.124090    1.161140   -0.225866
      7          1           0       -0.417909   -1.435710    0.202008
      8          1           0        0.560756    1.522867    0.285680
      9          1           0        1.900556   -1.195984   -0.079870
     10          1           0        2.750534    0.469922    0.044461
 ---------------------------------------------------------------------

 SCF Done:  E(RB2PLYPD3) =  -155.681286297     A.U. after   11 cycles
 E2(B2PLYPD3) =    -0.2259825290D+00 E(B2PLYPD3) =    -0.15590726882601D+03

 The electronic state is 1-A.
 Alpha  occ. eigenvalues --  -10.63179 -10.62250 -10.61759 -10.61199  -0.93443
 Alpha  occ. eigenvalues --   -0.85880  -0.70359  -0.62121  -0.54552  -0.53982
 Alpha  occ. eigenvalues --   -0.47439  -0.45291  -0.39935  -0.37476  -0.28561
 Alpha virt. eigenvalues --    0.01745   0.06940   0.07153   0.07804   0.10178
 Alpha virt. eigenvalues --    0.11414   0.12276   0.14834   0.15398   0.16062
 Alpha virt. eigenvalues --    0.18954   0.19607   0.21197   0.21838   0.24210

 Mulliken charges:
               1
     1  C   -0.175894
     2  C   -0.007908
     3  C   -0.030623
     4  C   -0.175965
     5  H    0.094380
     6  H    0.072591
     7  H    0.024734
     8  H    0.044260
     9  H    0.065468
    10  H    0.088957
 Sum of Mulliken charges =   0.00000

 Dipole moment (field-independent basis, Debye):
    X=             -0.0184    Y=             -0.0294    Z=              0.2348  Tot=              0.2374
 Quadrupole moment (field-independent basis, Debye-Ang):
   XX=            -23.5866   YY=            -23.4943   ZZ=            -29.0690
   XY=             -0.0470   XZ=              0.5975   YZ=              0.0069

 1\1\GINC-NODE17\SP\RB2PLYPD3-FC\def2QZVP\C4H6\BOITTIER\26-Aug-2020\0\\
 #p B2PLYPD3/Def2QZVP\\butadiene\\0,1\C,0,-3.851586,0.18246,-0.038055\C
 ,0,-2.730594,-0.408,0.103334\C,0,-1.369601,0.070522,0.062289\C,0,-0.26
 2237,-0.684081,-0.043257\H,0,-4.70691,-0.451664,0.02377\H,0,-3.937544,
 1.293853,-0.229122\H,0,-2.714851,-1.553927,0.253503\H,0,-1.232886,1.18
 834,0.294916\H,0,-0.38919,-1.729224,-0.016267\H,0,0.739249,-0.236152,0
 .086323\\Version=ES64L-G09RevD.01\State=1-A\HF=-155.6812863\MP2=-155.9
 072688\RMSD=9.258e-09\PG=C01 [X(C4H6)]\\@

 Normal termination of Gaussian 09 at Wed Aug 26 15:14:40 2020.
