 Gaussian 09, Revision D.01,
 Gaussian 09:  ES64L-G09RevD.01 24-Apr-2013

 --------------------
 #p B2PLYPD3/Def2QZVP
 --------------------

 ---------
 butadiene
 ---------
 Symbolic Z-matrix:
 Charge =  0 Multiplicity = 1

                         Standard orientation:
 ---------------------------------------------------------------------
 Center     Atomic      Atomic             Coordinates (Angstroms)
 Number     Number       Type             X           Y           Z
 ---------------------------------------------------------------------
      1          6           0       -1.801569    0.122897    0.080666
      2          6           0       -0.592956   -0.444074   -0.080248
      3          6           0        0.553607    0.378622   -0.065483
      4          6           0        1.836842   -0.098841    0.054733
      5          1           0       -2.840468   -0.476518   -0.030479
      6          1           0       -1.923679    1.240370    0.176553
      7          1           0       -0.487209   -1.527984   -0.186235
      8          1           0        0.417861    1.439914   -0.099142
      9          1           0        2.254832   -1.088815    0.343124
     10          1           0        2.603122    0.661412   -0.141823
 ---------------------------------------------------------------------

 SCF Done:  E(RB2PLYPD3) =  -155.675789580     A.U. after   12 cycles
 E2(B2PLYPD3) =    -0.2286504296D+00 E(B2PLYPD3) =    -0.15590444000938D+03

 The electronic state is 1-A.
 Alpha  occ. eigenvalues --  -10.63467 -10.62798 -10.62602 -10.62381  -0.93381
 Alpha  occ. eigenvalues --   -0.83675  -0.69548  -0.64098  -0.53731  -0.53337
 Alpha  occ. eigenvalues --   -0.45868  -0.44812  -0.41303  -0.37726  -0.26802
 Alpha virt. eigenvalues --    0.00715   0.06821   0.07336   0.07595   0.09312
 Alpha virt. eigenvalues --    0.11324   0.12195   0.14882   0.15726   0.16055
 Alpha virt. eigenvalues --    0.18780   0.19934   0.21283   0.21533   0.23857

 Mulliken charges:
               1
     1  C   -0.159265
     2  C   -0.034925
     3  C   -0.034921
     4  C   -0.190320
     5  H    0.068145
     6  H    0.060494
     7  H    0.071796
     8  H    0.068935
     9  H    0.081542
    10  H    0.068520
 Sum of Mulliken charges =   0.00000

 Dipole moment (field-independent basis, Debye):
    X=             -0.0315    Y=              0.0098    Z=             -0.0191  Tot=              0.0381
 Quadrupole moment (field-independent basis, Debye-Ang):
   XX=            -24.0584   YY=            -23.1076   ZZ=            -29.4042
   XY=             -0.5600   XZ=              0.2840   YZ=             -0.1794

 1\1\GINC-NODE10\SP\RB2PLYPD3-FC\def2QZVP\C4H6\BOITTIER\26-Aug-2020\0\\
 #p B2PLYPD3/Def2QZVP\\butadiene\\0,1\C,0,-3.796575,0.251681,0.09205\C,
 0,-2.716607,-0.53729,-0.046834\C,0,-1.435417,0.054489,-0.048144\C,0,-0
 .265345,-0.65291,0.091973\H,0,-4.929885,-0.143883,-0.008453\H,0,-3.705
 672,1.374348,0.156919\H,0,-2.817244,-1.624202,-0.122798\H,0,-1.368474,
 1.120992,-0.111322\H,0,-0.041716,-1.695585,0.409389\H,0,0.630661,-0.05
 6555,-0.120956\\Version=ES64L-G09RevD.01\State=1-A\HF=-155.6757896\MP2
 =-155.90444\RMSD=6.272e-09\PG=C01 [X(C4H6)]\\@

 Normal termination of Gaussian 09 at Wed Aug 26 15:13:48 2020.
