 Gaussian 09, Revision D.01,
 Gaussian 09:  ES64L-G09RevD.01 24-Apr-2013

 --------------------
 #p B2PLYPD3/Def2QZVP
 --------------------

 ---------
 butadiene
 ---------
 Symbolic Z-matrix:
 Charge =  0 Multiplicity = 1

                         Standard orientation:
 ---------------------------------------------------------------------
 Center     Atomic      Atomic             Coordinates (Angstroms)
 Number     Number       Type             X           Y           Z
 ---------------------------------------------------------------------
      1          6           0        1.854231    0.088567   -0.016415
      2          6           0        0.618992   -0.365387    0.029728
      3          6           0       -0.613881    0.409657    0.042943
      4          6           0       -1.840323   -0.130696   -0.034607
      5          1           0        2.750956   -0.515782   -0.059225
      6          1           0        1.964786    1.181210    0.013021
      7          1           0        0.503502   -1.482436   -0.051082
      8          1           0       -0.518839    1.507919   -0.056540
      9          1           0       -2.028218   -1.182699    0.064182
     10          1           0       -2.786295    0.478948   -0.040256
 ---------------------------------------------------------------------

 SCF Done:  E(RB2PLYPD3) =  -155.694271234     A.U. after   11 cycles
 E2(B2PLYPD3) =    -0.2262821925D+00 E(B2PLYPD3) =    -0.15592055342637D+03

 The electronic state is 1-A.
 Alpha  occ. eigenvalues --  -10.63256 -10.62726 -10.62226 -10.61472  -0.92913
 Alpha  occ. eigenvalues --   -0.85077  -0.69956  -0.63367  -0.54804  -0.53477
 Alpha  occ. eigenvalues --   -0.47300  -0.44399  -0.40395  -0.38219  -0.28010
 Alpha virt. eigenvalues --    0.01622   0.06982   0.07345   0.07832   0.09635
 Alpha virt. eigenvalues --    0.11573   0.12509   0.14421   0.15649   0.16255
 Alpha virt. eigenvalues --    0.18823   0.19897   0.21826   0.22942   0.23511

 Mulliken charges:
               1
     1  C   -0.172171
     2  C   -0.017172
     3  C   -0.040162
     4  C   -0.164198
     5  H    0.094698
     6  H    0.054551
     7  H    0.042912
     8  H    0.055543
     9  H    0.069011
    10  H    0.076988
 Sum of Mulliken charges =   0.00000

 Dipole moment (field-independent basis, Debye):
    X=             -0.0354    Y=             -0.0308    Z=             -0.0579  Tot=              0.0745
 Quadrupole moment (field-independent basis, Debye-Ang):
   XX=            -23.0812   YY=            -23.4571   ZZ=            -29.3189
   XY=             -0.0064   XZ=             -0.1718   YZ=             -0.0637

 1\1\GINC-NODE24\SP\RB2PLYPD3-FC\def2QZVP\C4H6\BOITTIER\26-Aug-2020\0\\
 #p B2PLYPD3/Def2QZVP\\butadiene\\0,1\C,0,-3.860504,0.195716,0.041057\C
 ,0,-2.723505,-0.467707,0.007565\C,0,-1.374491,0.079892,-0.026212\C,0,-
 0.260667,-0.663746,0.066275\H,0,-4.848637,-0.24168,0.099908\H,0,-3.779
 062,1.289721,-0.017917\H,0,-2.804115,-1.585227,0.118556\H,0,-1.276225,
 1.180159,0.043539\H,0,-0.259437,-1.734649,-0.004003\H,0,0.777096,-0.22
 8432,0.055738\\Version=ES64L-G09RevD.01\State=1-A\HF=-155.6942712\MP2=
 -155.9205534\RMSD=5.766e-09\PG=C01 [X(C4H6)]\\@

 Normal termination of Gaussian 09 at Wed Aug 26 10:04:31 2020.
