 Gaussian 09, Revision D.01,
 Gaussian 09:  ES64L-G09RevD.01 24-Apr-2013

 --------------------
 #p B2PLYPD3/Def2QZVP
 --------------------

 ---------
 butadiene
 ---------
 Symbolic Z-matrix:
 Charge =  0 Multiplicity = 1

                         Standard orientation:
 ---------------------------------------------------------------------
 Center     Atomic      Atomic             Coordinates (Angstroms)
 Number     Number       Type             X           Y           Z
 ---------------------------------------------------------------------
      1          6           0        1.826219   -0.112085   -0.030137
      2          6           0        0.599339    0.410507    0.014424
      3          6           0       -0.599316   -0.399892    0.023796
      4          6           0       -1.829316    0.112590   -0.015629
      5          1           0        2.729157    0.476605    0.040026
      6          1           0        1.980520   -1.164589   -0.064567
      7          1           0        0.487159    1.499487    0.069305
      8          1           0       -0.460111   -1.472805    0.096934
      9          1           0       -2.037422    1.152174   -0.056926
     10          1           0       -2.680860   -0.557594   -0.039492
 ---------------------------------------------------------------------

 SCF Done:  E(RB2PLYPD3) =  -155.700479887     A.U. after   11 cycles
 E2(B2PLYPD3) =    -0.2254633432D+00 E(B2PLYPD3) =    -0.15592594323032D+03

 The electronic state is 1-A.
 Alpha  occ. eigenvalues --  -10.62523 -10.62417 -10.61219 -10.61191  -0.93138
 Alpha  occ. eigenvalues --   -0.84956  -0.70291  -0.64266  -0.54588  -0.54269
 Alpha  occ. eigenvalues --   -0.46651  -0.45697  -0.41270  -0.38147  -0.27623
 Alpha virt. eigenvalues --    0.01797   0.07041   0.07437   0.08044   0.09577
 Alpha virt. eigenvalues --    0.11701   0.12509   0.14850   0.15841   0.16237
 Alpha virt. eigenvalues --    0.18777   0.20371   0.21900   0.22818   0.23787

 Mulliken charges:
               1
     1  C   -0.174000
     2  C   -0.028990
     3  C   -0.031597
     4  C   -0.177508
     5  H    0.082705
     6  H    0.062427
     7  H    0.055569
     8  H    0.058420
     9  H    0.071729
    10  H    0.081246
 Sum of Mulliken charges =   0.00000

 Dipole moment (field-independent basis, Debye):
    X=              0.0073    Y=             -0.0044    Z=              0.0635  Tot=              0.0641
 Quadrupole moment (field-independent basis, Debye-Ang):
   XX=            -23.4975   YY=            -23.0507   ZZ=            -29.1970
   XY=             -0.2773   XZ=              0.2367   YZ=              0.0263

 1\1\GINC-NODE18\SP\RB2PLYPD3-FC\def2QZVP\C4H6\BOITTIER\26-Aug-2020\0\\
 #p B2PLYPD3/Def2QZVP\\butadiene\\0,1\C,0,-3.828016,0.227007,-0.007386\
 C,0,-2.71613,-0.508097,0.053071\C,0,-1.390267,0.071092,0.037706\C,0,-0
 .273945,-0.657159,0.013908\H,0,-4.822397,-0.18557,0.080711\H,0,-3.7889
 21,1.288519,-0.073894\H,0,-2.803153,-1.5972,0.141133\H,0,-1.332026,1.1
 53149,0.078094\H,0,-0.258205,-1.718012,0.004329\H,0,0.684945,-0.15376,
 -0.030395\\Version=ES64L-G09RevD.01\State=1-A\HF=-155.7004799\MP2=-155
 .9259432\RMSD=3.095e-09\PG=C01 [X(C4H6)]\\@

 Normal termination of Gaussian 09 at Wed Aug 26 21:54:07 2020.
