 Gaussian 09, Revision D.01,
 Gaussian 09:  ES64L-G09RevD.01 24-Apr-2013

 --------------------
 #p B2PLYPD3/Def2QZVP
 --------------------

 ---------
 butadiene
 ---------
 Symbolic Z-matrix:
 Charge =  0 Multiplicity = 1

                         Standard orientation:
 ---------------------------------------------------------------------
 Center     Atomic      Atomic             Coordinates (Angstroms)
 Number     Number       Type             X           Y           Z
 ---------------------------------------------------------------------
      1          6           0       -1.818694    0.063106    0.045054
      2          6           0       -0.573322   -0.370587   -0.022380
      3          6           0        0.589542    0.473459   -0.056910
      4          6           0        1.819408   -0.166844    0.012900
      5          1           0       -2.732661   -0.593406   -0.078904
      6          1           0       -2.104440    1.174231   -0.059047
      7          1           0       -0.423383   -1.457883    0.147250
      8          1           0        0.486396    1.523127    0.086305
      9          1           0        2.023220   -1.197530   -0.111420
     10          1           0        2.649262    0.556657    0.143833
 ---------------------------------------------------------------------

 SCF Done:  E(RB2PLYPD3) =  -155.679408339     A.U. after   12 cycles
 E2(B2PLYPD3) =    -0.2280864774D+00 E(B2PLYPD3) =    -0.15590749481684D+03

 The electronic state is 1-A.
 Alpha  occ. eigenvalues --  -10.63218 -10.62529 -10.62430 -10.62143  -0.93063
 Alpha  occ. eigenvalues --   -0.84103  -0.69773  -0.64054  -0.54001  -0.53576
 Alpha  occ. eigenvalues --   -0.46980  -0.44234  -0.40795  -0.37824  -0.27157
 Alpha virt. eigenvalues --    0.01093   0.07011   0.07236   0.07767   0.08894
 Alpha virt. eigenvalues --    0.11577   0.12244   0.14699   0.15505   0.15993
 Alpha virt. eigenvalues --    0.18690   0.19323   0.21915   0.23325   0.23520

 Mulliken charges:
               1
     1  C   -0.167018
     2  C   -0.021017
     3  C   -0.051950
     4  C   -0.180365
     5  H    0.074000
     6  H    0.045811
     7  H    0.060630
     8  H    0.076379
     9  H    0.091636
    10  H    0.071894
 Sum of Mulliken charges =   0.00000

 Dipole moment (field-independent basis, Debye):
    X=              0.1301    Y=             -0.0213    Z=              0.0384  Tot=              0.1373
 Quadrupole moment (field-independent basis, Debye-Ang):
   XX=            -24.2055   YY=            -22.9084   ZZ=            -29.4227
   XY=             -0.4070   XZ=              0.5493   YZ=              0.1956

 1\1\GINC-NODE12\SP\RB2PLYPD3-FC\def2QZVP\C4H6\BOITTIER\26-Aug-2020\0\\
 #p B2PLYPD3/Def2QZVP\\butadiene\\0,1\C,0,-3.829253,0.189609,0.059689\C
 ,0,-2.687032,-0.471136,0.011359\C,0,-1.386631,0.139136,-0.037447\C,0,-
 0.298531,-0.717965,0.05663\H,0,-4.849814,-0.287284,-0.053173\H,0,-3.90
 1717,1.331433,-0.074754\H,0,-2.743605,-1.562409,0.209831\H,0,-1.291591
 ,1.192973,0.078082\H,0,-0.291158,-1.771503,-0.039856\H,0,0.651939,-0.1
 59362,0.174207\\Version=ES64L-G09RevD.01\State=1-A\HF=-155.6794083\MP2
 =-155.9074948\RMSD=3.866e-09\PG=C01 [X(C4H6)]\\@

 Normal termination of Gaussian 09 at Wed Aug 26 13:02:25 2020.
