 Gaussian 09, Revision D.01,
 Gaussian 09:  ES64L-G09RevD.01 24-Apr-2013

 --------------------
 #p B2PLYPD3/Def2QZVP
 --------------------

 ---------
 butadiene
 ---------
 Symbolic Z-matrix:
 Charge =  0 Multiplicity = 1

                         Standard orientation:
 ---------------------------------------------------------------------
 Center     Atomic      Atomic             Coordinates (Angstroms)
 Number     Number       Type             X           Y           Z
 ---------------------------------------------------------------------
      1          6           0       -1.827766    0.112431    0.000264
      2          6           0       -0.602207   -0.404373   -0.012364
      3          6           0        0.590394    0.388458   -0.036628
      4          6           0        1.828399   -0.107223    0.015104
      5          1           0       -2.722164   -0.486921    0.073054
      6          1           0       -1.957244    1.178436    0.048659
      7          1           0       -0.451400   -1.483851   -0.017036
      8          1           0        0.498510    1.473161    0.015210
      9          1           0        1.993842   -1.148115    0.028609
     10          1           0        2.705532    0.531532    0.053246
 ---------------------------------------------------------------------

 SCF Done:  E(RB2PLYPD3) =  -155.700173609     A.U. after   11 cycles
 E2(B2PLYPD3) =    -0.2255061677D+00 E(B2PLYPD3) =    -0.15592567977683D+03

 The electronic state is 1-A.
 Alpha  occ. eigenvalues --  -10.62402 -10.62251 -10.61345 -10.61149  -0.93419
 Alpha  occ. eigenvalues --   -0.85041  -0.70424  -0.64227  -0.54749  -0.54281
 Alpha  occ. eigenvalues --   -0.46648  -0.45549  -0.41334  -0.38445  -0.27597
 Alpha virt. eigenvalues --    0.01676   0.07037   0.07448   0.08043   0.09733
 Alpha virt. eigenvalues --    0.11716   0.12580   0.14785   0.15774   0.16319
 Alpha virt. eigenvalues --    0.18737   0.20283   0.22006   0.22836   0.23850

 Mulliken charges:
               1
     1  C   -0.171407
     2  C   -0.031708
     3  C   -0.019463
     4  C   -0.179895
     5  H    0.085360
     6  H    0.064357
     7  H    0.052953
     8  H    0.051137
     9  H    0.064498
    10  H    0.084167
 Sum of Mulliken charges =   0.00000

 Dipole moment (field-independent basis, Debye):
    X=              0.0006    Y=             -0.0107    Z=              0.1529  Tot=              0.1533
 Quadrupole moment (field-independent basis, Debye-Ang):
   XX=            -23.4180   YY=            -23.1687   ZZ=            -29.1686
   XY=             -0.0913   XZ=             -0.0710   YZ=              0.0705

 1\1\GINC-NODE14\SP\RB2PLYPD3-FC\def2QZVP\C4H6\BOITTIER\26-Aug-2020\0\\
 #p B2PLYPD3/Def2QZVP\\butadiene\\0,1\C,0,-3.827925,0.226717,0.024272\C
 ,0,-2.715924,-0.503143,0.024933\C,0,-1.399809,0.060421,-0.016362\C,0,-
 0.271552,-0.649441,0.048168\H,0,-4.815643,-0.199362,0.10993\H,0,-3.762
 564,1.299398,0.047859\H,0,-2.762605,-1.591922,0.045392\H,0,-1.294085,1
 .144774,0.010276\H,0,-0.296811,-1.702506,0.085922\H,0,0.706648,-0.1789
 53,0.072482\\Version=ES64L-G09RevD.01\State=1-A\HF=-155.7001736\MP2=-1
 55.9256798\RMSD=2.877e-09\PG=C01 [X(C4H6)]\\@

 Normal termination of Gaussian 09 at Wed Aug 26 18:55:57 2020.
