 Gaussian 09, Revision D.01,
 Gaussian 09:  ES64L-G09RevD.01 24-Apr-2013

 --------------------
 #p B2PLYPD3/Def2QZVP
 --------------------

 ---------
 butadiene
 ---------
 Symbolic Z-matrix:
 Charge =  0 Multiplicity = 1

                         Standard orientation:
 ---------------------------------------------------------------------
 Center     Atomic      Atomic             Coordinates (Angstroms)
 Number     Number       Type             X           Y           Z
 ---------------------------------------------------------------------
      1          6           0        1.849911    0.102610    0.018212
      2          6           0        0.614177   -0.405652   -0.010784
      3          6           0       -0.606379    0.395772   -0.045562
      4          6           0       -1.839745   -0.108212    0.011909
      5          1           0        2.781307   -0.513501   -0.041919
      6          1           0        2.005429    1.215787    0.152954
      7          1           0        0.425771   -1.459296   -0.080601
      8          1           0       -0.488248    1.479979   -0.050074
      9          1           0       -2.059401   -1.137975    0.159443
     10          1           0       -2.772638    0.507905    0.017542
 ---------------------------------------------------------------------

 SCF Done:  E(RB2PLYPD3) =  -155.694696371     A.U. after   11 cycles
 E2(B2PLYPD3) =    -0.2263065937D+00 E(B2PLYPD3) =    -0.15592100296447D+03

 The electronic state is 1-A.
 Alpha  occ. eigenvalues --  -10.62761 -10.62705 -10.62581 -10.61746  -0.92862
 Alpha  occ. eigenvalues --   -0.84654  -0.69876  -0.64131  -0.54589  -0.53169
 Alpha  occ. eigenvalues --   -0.47145  -0.44854  -0.40590  -0.38035  -0.27799
 Alpha virt. eigenvalues --    0.01593   0.06913   0.07356   0.07992   0.09466
 Alpha virt. eigenvalues --    0.11563   0.12376   0.14548   0.15754   0.16231
 Alpha virt. eigenvalues --    0.18909   0.20384   0.21478   0.22682   0.23264

 Mulliken charges:
               1
     1  C   -0.167890
     2  C   -0.040060
     3  C   -0.026990
     4  C   -0.169279
     5  H    0.085588
     6  H    0.061551
     7  H    0.061479
     8  H    0.056318
     9  H    0.063050
    10  H    0.076232
 Sum of Mulliken charges =   0.00000

 Dipole moment (field-independent basis, Debye):
    X=             -0.0286    Y=             -0.0414    Z=              0.1107  Tot=              0.1216
 Quadrupole moment (field-independent basis, Debye-Ang):
   XX=            -23.2167   YY=            -23.3800   ZZ=            -29.3216
   XY=              0.2955   XZ=             -0.2634   YZ=              0.0959

 1\1\GINC-NODE18\SP\RB2PLYPD3-FC\def2QZVP\C4H6\BOITTIER\26-Aug-2020\0\\
 #p B2PLYPD3/Def2QZVP\\butadiene\\0,1\C,0,-3.850933,0.219876,0.000228\C
 ,0,-2.726788,-0.501389,0.048028\C,0,-1.381644,0.067651,0.053249\C,0,-0
 .259629,-0.652123,0.014483\H,0,-4.877648,-0.215679,0.083022\H,0,-3.804
 298,1.337212,-0.17553\H,0,-2.73078,-1.568492,0.156708\H,0,-1.302532,1.
 154831,0.017722\H,0,-0.230018,-1.70928,-0.09492\H,0,0.768919,-0.214852
 ,-0.01385\\Version=ES64L-G09RevD.01\State=1-A\HF=-155.6946964\MP2=-155
 .921003\RMSD=3.660e-09\PG=C01 [X(C4H6)]\\@

 Normal termination of Gaussian 09 at Wed Aug 26 22:20:13 2020.
