 Gaussian 09, Revision D.01,
 Gaussian 09:  ES64L-G09RevD.01 24-Apr-2013

 --------------------
 #p B2PLYPD3/Def2QZVP
 --------------------

 ---------
 butadiene
 ---------
 Symbolic Z-matrix:
 Charge =  0 Multiplicity = 1

                         Standard orientation:
 ---------------------------------------------------------------------
 Center     Atomic      Atomic             Coordinates (Angstroms)
 Number     Number       Type             X           Y           Z
 ---------------------------------------------------------------------
      1          6           0       -1.834654    0.096272    0.012321
      2          6           0       -0.604668   -0.389920   -0.008874
      3          6           0        0.601833    0.421785   -0.027298
      4          6           0        1.834683   -0.124394    0.010509
      5          1           0       -2.717132   -0.543805   -0.020227
      6          1           0       -1.966227    1.163735    0.085531
      7          1           0       -0.430620   -1.438826   -0.056914
      8          1           0        0.463158    1.505542   -0.022423
      9          1           0        1.955222   -1.199763    0.092154
     10          1           0        2.712431    0.490660    0.001931
 ---------------------------------------------------------------------

 SCF Done:  E(RB2PLYPD3) =  -155.700146837     A.U. after   11 cycles
 E2(B2PLYPD3) =    -0.2256974043D+00 E(B2PLYPD3) =    -0.15592584424164D+03

 The electronic state is 1-A.
 Alpha  occ. eigenvalues --  -10.62771 -10.61993 -10.61676 -10.61307  -0.93091
 Alpha  occ. eigenvalues --   -0.84863  -0.70077  -0.64304  -0.54553  -0.53928
 Alpha  occ. eigenvalues --   -0.46718  -0.45807  -0.41252  -0.38097  -0.27639
 Alpha virt. eigenvalues --    0.01761   0.07036   0.07398   0.08126   0.09525
 Alpha virt. eigenvalues --    0.11738   0.12469   0.14699   0.15799   0.16107
 Alpha virt. eigenvalues --    0.18722   0.20474   0.21511   0.23072   0.23871

 Mulliken charges:
               1
     1  C   -0.178752
     2  C   -0.021938
     3  C   -0.035093
     4  C   -0.179358
     5  H    0.087557
     6  H    0.064028
     7  H    0.055216
     8  H    0.053211
     9  H    0.066984
    10  H    0.088144
 Sum of Mulliken charges =   0.00000

 Dipole moment (field-independent basis, Debye):
    X=              0.0204    Y=             -0.0059    Z=              0.0535  Tot=              0.0576
 Quadrupole moment (field-independent basis, Debye-Ang):
   XX=            -23.5834   YY=            -23.0883   ZZ=            -29.2493
   XY=             -0.0856   XZ=              0.1163   YZ=              0.0506

 1\1\GINC-NODE25\SP\RB2PLYPD3-FC\def2QZVP\C4H6\BOITTIER\26-Aug-2020\0\\
 #p B2PLYPD3/Def2QZVP\\butadiene\\0,1\C,0,-3.838986,0.211319,0.031022\C
 ,0,-2.71714,-0.489489,0.025939\C,0,-1.383883,0.090087,-0.011029\C,0,-0
 .269922,-0.668643,0.044475\H,0,-4.822661,-0.259418,0.01329\H,0,-3.7753
 57,1.286554,0.075417\H,0,-2.735583,-1.553481,0.006318\H,0,-1.324452,1.
 180801,-0.035396\H,0,-0.345476,-1.745526,0.155062\H,0,0.704485,-0.2227
 5,0.021751\\Version=ES64L-G09RevD.01\State=1-A\HF=-155.7001468\MP2=-15
 5.9258442\RMSD=5.612e-09\PG=C01 [X(C4H6)]\\@

 Normal termination of Gaussian 09 at Wed Aug 26 21:41:26 2020.
