 Gaussian 09, Revision D.01,
 Gaussian 09:  ES64L-G09RevD.01 24-Apr-2013

 --------------------
 #p B2PLYPD3/Def2QZVP
 --------------------

 ---------
 butadiene
 ---------
 Symbolic Z-matrix:
 Charge =  0 Multiplicity = 1

                         Standard orientation:
 ---------------------------------------------------------------------
 Center     Atomic      Atomic             Coordinates (Angstroms)
 Number     Number       Type             X           Y           Z
 ---------------------------------------------------------------------
      1          6           0        1.837392    0.106687    0.013002
      2          6           0        0.599337   -0.404968   -0.026152
      3          6           0       -0.604005    0.402223   -0.014163
      4          6           0       -1.835768   -0.109437    0.001834
      5          1           0        2.745055   -0.483090    0.067296
      6          1           0        1.940140    1.180101   -0.005419
      7          1           0        0.448542   -1.473631   -0.018557
      8          1           0       -0.478222    1.488895    0.004937
      9          1           0       -1.951553   -1.202030    0.050419
     10          1           0       -2.685695    0.522727    0.054199
 ---------------------------------------------------------------------

 SCF Done:  E(RB2PLYPD3) =  -155.700122895     A.U. after   11 cycles
 E2(B2PLYPD3) =    -0.2258532479D+00 E(B2PLYPD3) =    -0.15592597614251D+03

 The electronic state is 1-A.
 Alpha  occ. eigenvalues --  -10.62528 -10.62468 -10.61581 -10.61416  -0.93104
 Alpha  occ. eigenvalues --   -0.84899  -0.70135  -0.64059  -0.54809  -0.53842
 Alpha  occ. eigenvalues --   -0.46723  -0.45456  -0.41376  -0.38173  -0.27613
 Alpha virt. eigenvalues --    0.01702   0.07052   0.07363   0.08100   0.09566
 Alpha virt. eigenvalues --    0.11699   0.12557   0.14568   0.15915   0.16118
 Alpha virt. eigenvalues --    0.18715   0.20549   0.21466   0.22989   0.23942

 Mulliken charges:
               1
     1  C   -0.175919
     2  C   -0.028288
     3  C   -0.024781
     4  C   -0.178698
     5  H    0.088731
     6  H    0.062726
     7  H    0.053105
     8  H    0.049354
     9  H    0.063239
    10  H    0.090531
 Sum of Mulliken charges =   0.00000

 Dipole moment (field-independent basis, Debye):
    X=              0.0099    Y=              0.0159    Z=              0.1161  Tot=              0.1176
 Quadrupole moment (field-independent basis, Debye-Ang):
   XX=            -23.5182   YY=            -23.1360   ZZ=            -29.2727
   XY=             -0.0446   XZ=             -0.0732   YZ=             -0.0527

 1\1\GINC-NODE27\SP\RB2PLYPD3-FC\def2QZVP\C4H6\BOITTIER\26-Aug-2020\0\\
 #p B2PLYPD3/Def2QZVP\\butadiene\\0,1\C,0,-3.840756,0.220499,0.004012\C
 ,0,-2.714739,-0.504261,0.057987\C,0,-1.385927,0.072779,0.026125\C,0,-0
 .2663,-0.652291,0.024962\H,0,-4.83986,-0.197647,-0.035772\H,0,-3.74876
 3,1.295,-0.00591\H,0,-2.758576,-1.582448,0.07866\H,0,-1.314345,1.16348
 2,-0.021679\H,0,-0.349027,-1.748783,0.005249\H,0,0.683243,-0.184862,-0
 .043056\\Version=ES64L-G09RevD.01\State=1-A\HF=-155.7001229\MP2=-155.9
 259761\RMSD=3.564e-09\PG=C01 [X(C4H6)]\\@

 Normal termination of Gaussian 09 at Wed Aug 26 20:44:52 2020.
