 Gaussian 09, Revision D.01,
 Gaussian 09:  ES64L-G09RevD.01 24-Apr-2013

 --------------------
 #p B2PLYPD3/Def2QZVP
 --------------------

 ---------
 butadiene
 ---------
 Symbolic Z-matrix:
 Charge =  0 Multiplicity = 1

                         Standard orientation:
 ---------------------------------------------------------------------
 Center     Atomic      Atomic             Coordinates (Angstroms)
 Number     Number       Type             X           Y           Z
 ---------------------------------------------------------------------
      1          6           0        1.820800   -0.124014   -0.032648
      2          6           0        0.593176    0.428497    0.013844
      3          6           0       -0.601754   -0.381532    0.020426
      4          6           0       -1.819735    0.098345   -0.011540
      5          1           0        2.728794    0.450519   -0.023941
      6          1           0        1.973100   -1.218779   -0.013321
      7          1           0        0.496640    1.502448    0.158327
      8          1           0       -0.515279   -1.435975    0.086762
      9          1           0       -1.997965    1.137911   -0.122632
     10          1           0       -2.640215   -0.563900   -0.025689
 ---------------------------------------------------------------------

 SCF Done:  E(RB2PLYPD3) =  -155.697501581     A.U. after   11 cycles
 E2(B2PLYPD3) =    -0.2251632802D+00 E(B2PLYPD3) =    -0.15592266486141D+03

 The electronic state is 1-A.
 Alpha  occ. eigenvalues --  -10.62696 -10.61814 -10.61555 -10.60303  -0.93403
 Alpha  occ. eigenvalues --   -0.85154  -0.70171  -0.64411  -0.54973  -0.54293
 Alpha  occ. eigenvalues --   -0.46600  -0.45459  -0.41643  -0.38122  -0.27692
 Alpha virt. eigenvalues --    0.01928   0.07107   0.07476   0.08057   0.09558
 Alpha virt. eigenvalues --    0.11705   0.12544   0.14767   0.15732   0.16386
 Alpha virt. eigenvalues --    0.18728   0.20290   0.21784   0.22720   0.24181

 Mulliken charges:
               1
     1  C   -0.172836
     2  C   -0.045712
     3  C   -0.017340
     4  C   -0.177249
     5  H    0.082682
     6  H    0.062674
     7  H    0.063246
     8  H    0.056740
     9  H    0.065372
    10  H    0.082424
 Sum of Mulliken charges =   0.00000

 Dipole moment (field-independent basis, Debye):
    X=              0.0236    Y=             -0.0183    Z=              0.0747  Tot=              0.0804
 Quadrupole moment (field-independent basis, Debye-Ang):
   XX=            -23.5632   YY=            -23.0322   ZZ=            -29.0905
   XY=             -0.0419   XZ=              0.2826   YZ=             -0.0225

 1\1\GINC-NODE20\SP\RB2PLYPD3-FC\def2QZVP\C4H6\BOITTIER\26-Aug-2020\0\\
 #p B2PLYPD3/Def2QZVP\\butadiene\\0,1\C,0,-3.821145,0.236659,-0.008971\
 C,0,-2.71311,-0.526733,0.054132\C,0,-1.391608,0.054045,0.034666\C,0,-0
 .280437,-0.638611,0.01708\H,0,-4.817836,-0.163944,0.018238\H,0,-3.7732
 71,1.340999,-0.023876\H,0,-2.811059,-1.595509,0.232145\H,0,-1.285975,1
 .108303,0.067975\H,0,-0.293416,-1.696186,-0.06148\H,0,0.645972,-0.1361
 46,-0.018269\\Version=ES64L-G09RevD.01\State=1-A\HF=-155.6975016\MP2=-
 155.9226649\RMSD=6.918e-09\PG=C01 [X(C4H6)]\\@

 Normal termination of Gaussian 09 at Wed Aug 26 09:39:55 2020.
