 Gaussian 09, Revision D.01,
 Gaussian 09:  ES64L-G09RevD.01 24-Apr-2013

 --------------------
 #p B2PLYPD3/Def2QZVP
 --------------------

 ---------
 butadiene
 ---------
 Symbolic Z-matrix:
 Charge =  0 Multiplicity = 1

                         Standard orientation:
 ---------------------------------------------------------------------
 Center     Atomic      Atomic             Coordinates (Angstroms)
 Number     Number       Type             X           Y           Z
 ---------------------------------------------------------------------
      1          6           0       -1.833158    0.118702   -0.001050
      2          6           0       -0.600882   -0.428221   -0.013509
      3          6           0        0.597025    0.400132   -0.005665
      4          6           0        1.837754   -0.103926    0.011256
      5          1           0       -2.753225   -0.489849    0.014316
      6          1           0       -1.982099    1.200870    0.069683
      7          1           0       -0.447482   -1.494981   -0.021991
      8          1           0        0.471623    1.487690   -0.028296
      9          1           0        2.002961   -1.173013    0.053321
     10          1           0        2.703787    0.549159   -0.033224
 ---------------------------------------------------------------------

 SCF Done:  E(RB2PLYPD3) =  -155.699668645     A.U. after   11 cycles
 E2(B2PLYPD3) =    -0.2263271657D+00 E(B2PLYPD3) =    -0.15592599581063D+03

 The electronic state is 1-A.
 Alpha  occ. eigenvalues --  -10.62829 -10.62622 -10.62113 -10.61502  -0.92833
 Alpha  occ. eigenvalues --   -0.84516  -0.69822  -0.64166  -0.54289  -0.53734
 Alpha  occ. eigenvalues --   -0.46538  -0.45365  -0.41342  -0.37998  -0.27482
 Alpha virt. eigenvalues --    0.01656   0.07001   0.07330   0.08032   0.09334
 Alpha virt. eigenvalues --    0.11680   0.12414   0.14623   0.15951   0.16044
 Alpha virt. eigenvalues --    0.18729   0.20537   0.21481   0.22902   0.23777

 Mulliken charges:
               1
     1  C   -0.170682
     2  C   -0.039864
     3  C   -0.023294
     4  C   -0.180870
     5  H    0.081634
     6  H    0.066527
     7  H    0.061110
     8  H    0.054644
     9  H    0.065078
    10  H    0.085718
 Sum of Mulliken charges =   0.00000

 Dipole moment (field-independent basis, Debye):
    X=             -0.0173    Y=             -0.0028    Z=              0.0389  Tot=              0.0427
 Quadrupole moment (field-independent basis, Debye-Ang):
   XX=            -23.6374   YY=            -23.0090   ZZ=            -29.3893
   XY=             -0.1891   XZ=             -0.1924   YZ=             -0.0190

 1\1\GINC-NODE30\SP\RB2PLYPD3-FC\def2QZVP\C4H6\BOITTIER\26-Aug-2020\0\\
 #p B2PLYPD3/Def2QZVP\\butadiene\\0,1\C,0,-3.83304,0.235514,0.020398\C,
 0,-2.720471,-0.526036,0.024375\C,0,-1.392172,0.071105,0.008356\C,0,-0.
 263369,-0.648995,0.040447\H,0,-4.84813,-0.195305,0.053272\H,0,-3.78288
 9,1.328328,0.059357\H,0,-2.763132,-1.602716,0.04719\H,0,-1.31836,1.162
 251,-0.046159\H,0,-0.29459,-1.728646,0.11386\H,0,0.706516,-0.165437,-0
 .022851\\Version=ES64L-G09RevD.01\State=1-A\HF=-155.6996686\MP2=-155.9
 259958\RMSD=4.957e-09\PG=C01 [X(C4H6)]\\@

 Normal termination of Gaussian 09 at Wed Aug 26 15:52:22 2020.
