 Gaussian 09, Revision D.01,
 Gaussian 09:  ES64L-G09RevD.01 24-Apr-2013

 --------------------
 #p B2PLYPD3/Def2QZVP
 --------------------

 ---------
 butadiene
 ---------
 Symbolic Z-matrix:
 Charge =  0 Multiplicity = 1

                         Standard orientation:
 ---------------------------------------------------------------------
 Center     Atomic      Atomic             Coordinates (Angstroms)
 Number     Number       Type             X           Y           Z
 ---------------------------------------------------------------------
      1          6           0        1.816431   -0.132801    0.026491
      2          6           0        0.605705    0.437908   -0.043698
      3          6           0       -0.611319   -0.436852   -0.074844
      4          6           0       -1.852174    0.109620    0.055410
      5          1           0        2.701880    0.517888    0.051135
      6          1           0        1.964805   -1.173800    0.091835
      7          1           0        0.509173    1.578734    0.099769
      8          1           0       -0.319324   -1.456231   -0.047344
      9          1           0       -1.915988    1.163666   -0.138260
     10          1           0       -2.692404   -0.497510    0.162708
 ---------------------------------------------------------------------

 SCF Done:  E(RB2PLYPD3) =  -155.684995570     A.U. after   11 cycles
 E2(B2PLYPD3) =    -0.2270484580D+00 E(B2PLYPD3) =    -0.15591204402826D+03

 The electronic state is 1-A.
 Alpha  occ. eigenvalues --  -10.63451 -10.63118 -10.61456 -10.61359  -0.92351
 Alpha  occ. eigenvalues --   -0.84572  -0.69870  -0.64026  -0.54772  -0.53239
 Alpha  occ. eigenvalues --   -0.46559  -0.46222  -0.40940  -0.37312  -0.27435
 Alpha virt. eigenvalues --    0.01729   0.07047   0.07273   0.08141   0.08496
 Alpha virt. eigenvalues --    0.11832   0.12516   0.14475   0.15515   0.16202
 Alpha virt. eigenvalues --    0.18605   0.19690   0.21904   0.23420   0.24498

 Mulliken charges:
               1
     1  C   -0.184338
     2  C   -0.025912
     3  C   -0.043297
     4  C   -0.181852
     5  H    0.080210
     6  H    0.068816
     7  H    0.054316
     8  H    0.063091
     9  H    0.079217
    10  H    0.089750
 Sum of Mulliken charges =   0.00000

 Dipole moment (field-independent basis, Debye):
    X=              0.0454    Y=             -0.0667    Z=              0.1217  Tot=              0.1460
 Quadrupole moment (field-independent basis, Debye-Ang):
   XX=            -23.9661   YY=            -22.9342   ZZ=            -29.3765
   XY=             -0.2593   XZ=              0.1450   YZ=             -0.1947

 1\1\GINC-NODE30\SP\RB2PLYPD3-FC\def2QZVP\C4H6\BOITTIER\26-Aug-2020\0\\
 #p B2PLYPD3/Def2QZVP\\butadiene\\0,1\C,0,-3.819558,0.242922,0.052711\C
 ,0,-2.732285,-0.538756,-0.004824\C,0,-1.377266,0.100553,-0.055129\C,0,
 -0.255194,-0.658403,0.0872\H,0,-4.807975,-0.236183,0.091607\H,0,-3.776
 974,1.294754,0.095125\H,0,-2.843091,-1.674847,0.163715\H,0,-1.479993,1
 .156287,-0.050083\H,0,-0.383804,-1.710547,-0.083228\H,0,0.68139,-0.211
 092,0.181169\\Version=ES64L-G09RevD.01\State=1-A\HF=-155.6849956\MP2=-
 155.912044\RMSD=9.161e-09\PG=C01 [X(C4H6)]\\@

 Normal termination of Gaussian 09 at Wed Aug 26 15:36:24 2020.
