 Gaussian 09, Revision D.01,
 Gaussian 09:  ES64L-G09RevD.01 24-Apr-2013

 --------------------
 #p B2PLYPD3/Def2QZVP
 --------------------

 ---------
 butadiene
 ---------
 Symbolic Z-matrix:
 Charge =  0 Multiplicity = 1

                         Standard orientation:
 ---------------------------------------------------------------------
 Center     Atomic      Atomic             Coordinates (Angstroms)
 Number     Number       Type             X           Y           Z
 ---------------------------------------------------------------------
      1          6           0        1.833383    0.116614    0.016461
      2          6           0        0.608665   -0.431141   -0.043757
      3          6           0       -0.585597    0.379788   -0.060620
      4          6           0       -1.849504   -0.095158    0.031116
      5          1           0        2.761320   -0.462100    0.118440
      6          1           0        1.912308    1.232601    0.114148
      7          1           0        0.445750   -1.485540    0.016216
      8          1           0       -0.401916    1.425458   -0.085618
      9          1           0       -2.057353   -1.102633    0.006071
     10          1           0       -2.701784    0.571601    0.171539
 ---------------------------------------------------------------------

 SCF Done:  E(RB2PLYPD3) =  -155.694464619     A.U. after   11 cycles
 E2(B2PLYPD3) =    -0.2263559850D+00 E(B2PLYPD3) =    -0.15592082060393D+03

 The electronic state is 1-A.
 Alpha  occ. eigenvalues --  -10.62541 -10.62420 -10.62356 -10.61288  -0.93114
 Alpha  occ. eigenvalues --   -0.84504  -0.70449  -0.64729  -0.54710  -0.53610
 Alpha  occ. eigenvalues --   -0.46794  -0.45777  -0.41433  -0.38029  -0.27328
 Alpha virt. eigenvalues --    0.01316   0.06959   0.07459   0.08154   0.09378
 Alpha virt. eigenvalues --    0.11703   0.12585   0.14639   0.15740   0.16237
 Alpha virt. eigenvalues --    0.18753   0.20360   0.21729   0.23043   0.23730

 Mulliken charges:
               1
     1  C   -0.167826
     2  C   -0.036161
     3  C   -0.023494
     4  C   -0.186904
     5  H    0.085656
     6  H    0.057987
     7  H    0.058686
     8  H    0.057680
     9  H    0.071535
    10  H    0.082842
 Sum of Mulliken charges =   0.00000

 Dipole moment (field-independent basis, Debye):
    X=              0.0217    Y=             -0.0557    Z=              0.2397  Tot=              0.2471
 Quadrupole moment (field-independent basis, Debye-Ang):
   XX=            -23.5191   YY=            -23.2117   ZZ=            -29.2630
   XY=              0.2285   XZ=              0.0954   YZ=              0.0777

 1\1\GINC-NODE08\SP\RB2PLYPD3-FC\def2QZVP\C4H6\BOITTIER\26-Aug-2020\0\\
 #p B2PLYPD3/Def2QZVP\\butadiene\\0,1\C,0,-3.831411,0.238011,-0.007424\
 C,0,-2.727751,-0.522562,0.076597\C,0,-1.404905,0.05547,0.066156\C,0,-0
 .250012,-0.646462,-0.004301\H,0,-4.850211,-0.163979,-0.090055\H,0,-3.7
 04637,1.345076,-0.147188\H,0,-2.761336,-1.590444,0.056722\H,0,-1.39348
 5,1.11728,0.051353\H,0,-0.230453,-1.673315,0.059138\H,0,0.709534,-0.15
 3173,-0.167409\\Version=ES64L-G09RevD.01\State=1-A\HF=-155.6944646\MP2
 =-155.9208206\RMSD=7.279e-09\PG=C01 [X(C4H6)]\\@

 Normal termination of Gaussian 09 at Wed Aug 26 09:15:52 2020.
