 Gaussian 09, Revision D.01,
 Gaussian 09:  ES64L-G09RevD.01 24-Apr-2013

 --------------------
 #p B2PLYPD3/Def2QZVP
 --------------------

 ---------
 butadiene
 ---------
 Symbolic Z-matrix:
 Charge =  0 Multiplicity = 1

                         Standard orientation:
 ---------------------------------------------------------------------
 Center     Atomic      Atomic             Coordinates (Angstroms)
 Number     Number       Type             X           Y           Z
 ---------------------------------------------------------------------
      1          6           0       -1.832521   -0.116682   -0.009931
      2          6           0       -0.602955    0.411598   -0.001965
      3          6           0        0.598678   -0.402369    0.020303
      4          6           0        1.828556    0.109337   -0.024949
      5          1           0       -2.701678    0.537820    0.011314
      6          1           0       -1.977935   -1.186195   -0.046190
      7          1           0       -0.455124    1.490293    0.065780
      8          1           0        0.450687   -1.465589    0.058823
      9          1           0        2.046497    1.167773   -0.002394
     10          1           0        2.687007   -0.555404    0.011919
 ---------------------------------------------------------------------

 SCF Done:  E(RB2PLYPD3) =  -155.700590230     A.U. after   11 cycles
 E2(B2PLYPD3) =    -0.2257346218D+00 E(B2PLYPD3) =    -0.15592632485149D+03

 The electronic state is 1-A.
 Alpha  occ. eigenvalues --  -10.62495 -10.62305 -10.61562 -10.61440  -0.93061
 Alpha  occ. eigenvalues --   -0.84817  -0.70033  -0.64216  -0.54398  -0.53973
 Alpha  occ. eigenvalues --   -0.46567  -0.45822  -0.41150  -0.38095  -0.27626
 Alpha virt. eigenvalues --    0.01803   0.07019   0.07372   0.08072   0.09507
 Alpha virt. eigenvalues --    0.11747   0.12352   0.14840   0.15806   0.16060
 Alpha virt. eigenvalues --    0.18713   0.20410   0.21656   0.22890   0.23919

 Mulliken charges:
               1
     1  C   -0.180937
     2  C   -0.027843
     3  C   -0.032469
     4  C   -0.174773
     5  H    0.085686
     6  H    0.068923
     7  H    0.056096
     8  H    0.057308
     9  H    0.068264
    10  H    0.079745
 Sum of Mulliken charges =   0.00000

 Dipole moment (field-independent basis, Debye):
    X=              0.0070    Y=              0.0026    Z=              0.1024  Tot=              0.1027
 Quadrupole moment (field-independent basis, Debye-Ang):
   XX=            -23.7234   YY=            -22.9575   ZZ=            -29.2734
   XY=              0.2689   XZ=              0.0767   YZ=              0.0753

 1\1\GINC-NODE27\SP\RB2PLYPD3-FC\def2QZVP\C4H6\BOITTIER\26-Aug-2020\0\\
 #p B2PLYPD3/Def2QZVP\\butadiene\\0,1\C,0,-3.831566,0.234283,0.027829\C
 ,0,-2.71908,-0.50957,0.033589\C,0,-1.389169,0.07067,-0.006652\C,0,-0.2
 73176,-0.655705,0.05192\H,0,-4.805629,-0.250912,0.021146\H,0,-3.779251
 ,1.312923,0.038691\H,0,-2.770798,-1.598412,-0.008531\H,0,-1.340783,1.1
 41845,-0.070403\H,0,-0.252116,-1.736373,0.054571\H,0,0.692037,-0.15985
 1,0.000253\\Version=ES64L-G09RevD.01\State=1-A\HF=-155.7005902\MP2=-15
 5.9263249\RMSD=3.302e-09\PG=C01 [X(C4H6)]\\@

 Normal termination of Gaussian 09 at Wed Aug 26 08:52:49 2020.
