 Gaussian 09, Revision D.01,
 Gaussian 09:  ES64L-G09RevD.01 24-Apr-2013

 --------------------
 #p B2PLYPD3/Def2QZVP
 --------------------

 ---------
 butadiene
 ---------
 Symbolic Z-matrix:
 Charge =  0 Multiplicity = 1

                         Standard orientation:
 ---------------------------------------------------------------------
 Center     Atomic      Atomic             Coordinates (Angstroms)
 Number     Number       Type             X           Y           Z
 ---------------------------------------------------------------------
      1          6           0       -1.847645    0.084866   -0.020522
      2          6           0       -0.594564   -0.368760    0.043490
      3          6           0        0.596337    0.419668    0.016487
      4          6           0        1.847527   -0.121887   -0.024486
      5          1           0       -2.692482   -0.578109   -0.057737
      6          1           0       -2.074314    1.112182   -0.096915
      7          1           0       -0.457218   -1.434245    0.043922
      8          1           0        0.453485    1.512319    0.120820
      9          1           0        2.049322   -1.162257   -0.029814
     10          1           0        2.711277    0.466785   -0.070086
 ---------------------------------------------------------------------

 SCF Done:  E(RB2PLYPD3) =  -155.696623312     A.U. after   11 cycles
 E2(B2PLYPD3) =    -0.2259669887D+00 E(B2PLYPD3) =    -0.15592259030111D+03

 The electronic state is 1-A.
 Alpha  occ. eigenvalues --  -10.63155 -10.62109 -10.61492 -10.61084  -0.93095
 Alpha  occ. eigenvalues --   -0.84737  -0.71316  -0.64267  -0.55061  -0.54100
 Alpha  occ. eigenvalues --   -0.46816  -0.46003  -0.41414  -0.38092  -0.27280
 Alpha virt. eigenvalues --    0.01143   0.07026   0.07527   0.08098   0.09677
 Alpha virt. eigenvalues --    0.11604   0.12601   0.14951   0.15716   0.16415
 Alpha virt. eigenvalues --    0.18898   0.20347   0.22254   0.22661   0.23526

 Mulliken charges:
               1
     1  C   -0.177240
     2  C   -0.019861
     3  C   -0.038573
     4  C   -0.177559
     5  H    0.083952
     6  H    0.064319
     7  H    0.054309
     8  H    0.057232
     9  H    0.068478
    10  H    0.084944
 Sum of Mulliken charges =   0.00000

 Dipole moment (field-independent basis, Debye):
    X=              0.0432    Y=             -0.0220    Z=             -0.0479  Tot=              0.0682
 Quadrupole moment (field-independent basis, Debye-Ang):
   XX=            -23.1378   YY=            -23.2233   ZZ=            -29.2130
   XY=             -0.3698   XZ=              0.1616   YZ=              0.0387

 1\1\GINC-NODE07\SP\RB2PLYPD3-FC\def2QZVP\C4H6\BOITTIER\26-Aug-2020\0\\
 #p B2PLYPD3/Def2QZVP\\butadiene\\0,1\C,0,-3.852758,0.208817,-0.00461\C
 ,0,-2.705246,-0.467396,0.073094\C,0,-1.389006,0.086217,0.032855\C,0,-0
 .259723,-0.678317,0.007487\H,0,-4.80575,-0.286988,-0.030189\H,0,-3.885
 414,1.258427,-0.103825\H,0,-2.767503,-1.539627,0.096909\H,0,-1.327036,
 1.188436,0.113179\H,0,-0.254001,-1.737927,0.025204\H,0,0.698027,-0.260
 816,-0.048069\\Version=ES64L-G09RevD.01\State=1-A\HF=-155.6966233\MP2=
 -155.9225903\RMSD=6.355e-09\PG=C01 [X(C4H6)]\\@

 Normal termination of Gaussian 09 at Wed Aug 26 08:57:42 2020.
