 Gaussian 09, Revision D.01,
 Gaussian 09:  ES64L-G09RevD.01 24-Apr-2013

 --------------------
 #p B2PLYPD3/Def2QZVP
 --------------------

 ---------
 butadiene
 ---------
 Symbolic Z-matrix:
 Charge =  0 Multiplicity = 1

                         Standard orientation:
 ---------------------------------------------------------------------
 Center     Atomic      Atomic             Coordinates (Angstroms)
 Number     Number       Type             X           Y           Z
 ---------------------------------------------------------------------
      1          6           0        1.846096   -0.102377    0.000407
      2          6           0        0.619663    0.380705   -0.006177
      3          6           0       -0.617115   -0.393669   -0.040792
      4          6           0       -1.847915    0.121525    0.021227
      5          1           0        2.768174    0.471914    0.013532
      6          1           0        1.977885   -1.167961    0.125750
      7          1           0        0.514387    1.457500   -0.068938
      8          1           0       -0.516357   -1.429838   -0.001639
      9          1           0       -2.009712    1.169963    0.108874
     10          1           0       -2.738756   -0.538683   -0.025564
 ---------------------------------------------------------------------

 SCF Done:  E(RB2PLYPD3) =  -155.697282427     A.U. after   11 cycles
 E2(B2PLYPD3) =    -0.2252148290D+00 E(B2PLYPD3) =    -0.15592249725635D+03

 The electronic state is 1-A.
 Alpha  occ. eigenvalues --  -10.62303 -10.62184 -10.61733 -10.61299  -0.93108
 Alpha  occ. eigenvalues --   -0.85276  -0.70138  -0.64567  -0.54616  -0.54215
 Alpha  occ. eigenvalues --   -0.47230  -0.45373  -0.40850  -0.38122  -0.27968
 Alpha virt. eigenvalues --    0.01765   0.06957   0.07620   0.08041   0.09726
 Alpha virt. eigenvalues --    0.11627   0.12517   0.14653   0.15672   0.16440
 Alpha virt. eigenvalues --    0.18930   0.19969   0.22057   0.22610   0.23675

 Mulliken charges:
               1
     1  C   -0.168663
     2  C   -0.027708
     3  C   -0.039309
     4  C   -0.172548
     5  H    0.085498
     6  H    0.055580
     7  H    0.051717
     8  H    0.062355
     9  H    0.070298
    10  H    0.082780
 Sum of Mulliken charges =   0.00000

 Dipole moment (field-independent basis, Debye):
    X=             -0.0019    Y=             -0.0043    Z=              0.1151  Tot=              0.1152
 Quadrupole moment (field-independent basis, Debye-Ang):
   XX=            -23.1676   YY=            -23.3311   ZZ=            -29.1385
   XY=              0.0153   XZ=              0.0796   YZ=             -0.0821

 1\1\GINC-NODE22\SP\RB2PLYPD3-FC\def2QZVP\C4H6\BOITTIER\26-Aug-2020\0\\
 #p B2PLYPD3/Def2QZVP\\butadiene\\0,1\C,0,-3.852151,0.207892,0.024079\C
 ,0,-2.728547,-0.481339,0.028959\C,0,-1.375975,0.064981,-0.021597\C,0,-
 0.253451,-0.655143,0.052573\H,0,-4.860068,-0.196695,0.049026\H,0,-3.79
 6074,1.282604,0.126057\H,0,-2.812492,-1.56112,-0.010227\H,0,-1.294724,
 1.103469,-0.005124\H,0,-0.276343,-1.713596,0.163183\H,0,0.738558,-0.16
 1261,-0.007929\\Version=ES64L-G09RevD.01\State=1-A\HF=-155.6972824\MP2
 =-155.9224973\RMSD=5.527e-09\PG=C01 [X(C4H6)]\\@

 Normal termination of Gaussian 09 at Wed Aug 26 09:16:51 2020.
