 Gaussian 09, Revision D.01,
 Gaussian 09:  ES64L-G09RevD.01 24-Apr-2013

 --------------------
 #p B2PLYPD3/Def2QZVP
 --------------------

 ---------
 butadiene
 ---------
 Symbolic Z-matrix:
 Charge =  0 Multiplicity = 1

                         Standard orientation:
 ---------------------------------------------------------------------
 Center     Atomic      Atomic             Coordinates (Angstroms)
 Number     Number       Type             X           Y           Z
 ---------------------------------------------------------------------
      1          6           0       -1.848750    0.109326   -0.081280
      2          6           0       -0.632404   -0.420437    0.106277
      3          6           0        0.595742    0.375488    0.085884
      4          6           0        1.866885   -0.095572   -0.057195
      5          1           0       -2.849991   -0.464336   -0.151007
      6          1           0       -1.960117    1.232550    0.034693
      7          1           0       -0.430265   -1.494425    0.042160
      8          1           0        0.420403    1.436837   -0.041466
      9          1           0        2.175923   -1.093629   -0.133772
     10          1           0        2.755210    0.570173   -0.072726
 ---------------------------------------------------------------------

 SCF Done:  E(RB2PLYPD3) =  -155.684102737     A.U. after   11 cycles
 E2(B2PLYPD3) =    -0.2277138653D+00 E(B2PLYPD3) =    -0.15591181660180D+03

 The electronic state is 1-A.
 Alpha  occ. eigenvalues --  -10.63349 -10.63274 -10.63138 -10.62075  -0.92570
 Alpha  occ. eigenvalues --   -0.84234  -0.70214  -0.64016  -0.54481  -0.52712
 Alpha  occ. eigenvalues --   -0.47052  -0.44840  -0.40409  -0.37763  -0.27603
 Alpha virt. eigenvalues --    0.01008   0.06845   0.07354   0.07985   0.09045
 Alpha virt. eigenvalues --    0.11516   0.12495   0.14412   0.15539   0.16032
 Alpha virt. eigenvalues --    0.18978   0.19628   0.22161   0.22256   0.23852

 Mulliken charges:
               1
     1  C   -0.159083
     2  C   -0.037134
     3  C   -0.030355
     4  C   -0.175311
     5  H    0.082202
     6  H    0.059172
     7  H    0.059187
     8  H    0.059460
     9  H    0.066227
    10  H    0.075635
 Sum of Mulliken charges =   0.00000

 Dipole moment (field-independent basis, Debye):
    X=             -0.0223    Y=             -0.0597    Z=             -0.1558  Tot=              0.1684
 Quadrupole moment (field-independent basis, Debye-Ang):
   XX=            -22.9524   YY=            -23.6130   ZZ=            -29.4746
   XY=             -0.4930   XZ=             -0.1484   YZ=              0.1562

 1\1\GINC-NODE26\SP\RB2PLYPD3-FC\def2QZVP\C4H6\BOITTIER\26-Aug-2020\0\\
 #p B2PLYPD3/Def2QZVP\\butadiene\\0,1\C,0,-3.847786,0.228619,-0.065507\
 C,0,-2.746819,-0.507753,0.136857\C,0,-1.394739,0.051064,0.093746\C,0,-
 0.230974,-0.646771,-0.036065\H,0,-4.936868,-0.155428,-0.118812\H,0,-3.
 752832,1.356183,0.018568\H,0,-2.7433,-1.601955,0.103209\H,0,-1.375206,
 1.122638,-0.063641\H,0,-0.108617,-1.68609,-0.084334\H,0,0.763333,-0.15
 4082,-0.070582\\Version=ES64L-G09RevD.01\State=1-A\HF=-155.6841027\MP2
 =-155.9118166\RMSD=9.264e-09\PG=C01 [X(C4H6)]\\@

 Normal termination of Gaussian 09 at Wed Aug 26 15:56:27 2020.
