 Gaussian 09, Revision D.01,
 Gaussian 09:  ES64L-G09RevD.01 24-Apr-2013

 --------------------
 #p B2PLYPD3/Def2QZVP
 --------------------

 ---------
 butadiene
 ---------
 Symbolic Z-matrix:
 Charge =  0 Multiplicity = 1

                         Standard orientation:
 ---------------------------------------------------------------------
 Center     Atomic      Atomic             Coordinates (Angstroms)
 Number     Number       Type             X           Y           Z
 ---------------------------------------------------------------------
      1          6           0       -1.843633    0.087665    0.016964
      2          6           0       -0.601193   -0.383656   -0.054082
      3          6           0        0.610197    0.421678   -0.018792
      4          6           0        1.842986   -0.131497    0.020934
      5          1           0       -2.747346   -0.490916    0.003981
      6          1           0       -2.043118    1.178993    0.204387
      7          1           0       -0.489881   -1.497282   -0.041084
      8          1           0        0.543722    1.528998   -0.111181
      9          1           0        1.990201   -1.186958    0.164049
     10          1           0        2.696280    0.502030   -0.010293
 ---------------------------------------------------------------------

 SCF Done:  E(RB2PLYPD3) =  -155.694725582     A.U. after   11 cycles
 E2(B2PLYPD3) =    -0.2265175395D+00 E(B2PLYPD3) =    -0.15592124312142D+03

 The electronic state is 1-A.
 Alpha  occ. eigenvalues --  -10.63219 -10.62988 -10.61787 -10.61534  -0.92693
 Alpha  occ. eigenvalues --   -0.84789  -0.70127  -0.63413  -0.54811  -0.53643
 Alpha  occ. eigenvalues --   -0.46508  -0.45148  -0.40974  -0.37928  -0.27581
 Alpha virt. eigenvalues --    0.01487   0.07065   0.07279   0.07884   0.09408
 Alpha virt. eigenvalues --    0.11528   0.12413   0.14635   0.15706   0.16501
 Alpha virt. eigenvalues --    0.18796   0.20167   0.21858   0.22523   0.23403

 Mulliken charges:
               1
     1  C   -0.165585
     2  C   -0.030357
     3  C   -0.035794
     4  C   -0.176417
     5  H    0.086736
     6  H    0.053386
     7  H    0.051852
     8  H    0.058683
     9  H    0.071421
    10  H    0.086075
 Sum of Mulliken charges =   0.00000

 Dipole moment (field-independent basis, Debye):
    X=              0.0186    Y=             -0.0145    Z=              0.1478  Tot=              0.1496
 Quadrupole moment (field-independent basis, Debye-Ang):
   XX=            -23.3284   YY=            -23.2219   ZZ=            -29.3221
   XY=              0.0030   XZ=             -0.1820   YZ=             -0.1020

 1\1\GINC-NODE07\SP\RB2PLYPD3-FC\def2QZVP\C4H6\BOITTIER\26-Aug-2020\0\\
 #p B2PLYPD3/Def2QZVP\\butadiene\\0,1\C,0,-3.851558,0.201194,0.041596\C
 ,0,-2.713308,-0.486116,-0.011697\C,0,-1.377742,0.091387,-0.006381\C,0,
 -0.262828,-0.670624,0.054075\H,0,-4.843868,-0.207301,0.050136\H,0,-3.8
 52431,1.31674,0.188138\H,0,-2.801852,-1.600524,0.042867\H,0,-1.24672,1
 .188693,-0.140041\H,0,-0.304839,-1.729449,0.236498\H,0,0.689357,-0.200
 745,-0.000699\\Version=ES64L-G09RevD.01\State=1-A\HF=-155.6947256\MP2=
 -155.9212431\RMSD=7.482e-09\PG=C01 [X(C4H6)]\\@

 Normal termination of Gaussian 09 at Wed Aug 26 08:41:18 2020.
