 Gaussian 09, Revision D.01,
 Gaussian 09:  ES64L-G09RevD.01 24-Apr-2013

 --------------------
 #p B2PLYPD3/Def2QZVP
 --------------------

 ---------
 butadiene
 ---------
 Symbolic Z-matrix:
 Charge =  0 Multiplicity = 1

                         Standard orientation:
 ---------------------------------------------------------------------
 Center     Atomic      Atomic             Coordinates (Angstroms)
 Number     Number       Type             X           Y           Z
 ---------------------------------------------------------------------
      1          6           0       -1.836285    0.106463    0.010713
      2          6           0       -0.610377   -0.397696   -0.015626
      3          6           0        0.605656    0.402879   -0.021221
      4          6           0        1.841750   -0.111621    0.014806
      5          1           0       -2.692168   -0.525319   -0.015613
      6          1           0       -2.015106    1.182583    0.123730
      7          1           0       -0.524842   -1.463387   -0.040811
      8          1           0        0.472671    1.488255   -0.090494
      9          1           0        2.013196   -1.171985    0.064465
     10          1           0        2.741788    0.489704    0.026691
 ---------------------------------------------------------------------

 SCF Done:  E(RB2PLYPD3) =  -155.700487058     A.U. after   11 cycles
 E2(B2PLYPD3) =    -0.2254480805D+00 E(B2PLYPD3) =    -0.15592593513842D+03

 The electronic state is 1-A.
 Alpha  occ. eigenvalues --  -10.62802 -10.62203 -10.61534 -10.61262  -0.92982
 Alpha  occ. eigenvalues --   -0.85036  -0.70201  -0.64137  -0.54884  -0.53913
 Alpha  occ. eigenvalues --   -0.46858  -0.45411  -0.41164  -0.38094  -0.27753
 Alpha virt. eigenvalues --    0.01787   0.07034   0.07468   0.08050   0.09602
 Alpha virt. eigenvalues --    0.11634   0.12490   0.14692   0.15859   0.16310
 Alpha virt. eigenvalues --    0.18857   0.20461   0.21735   0.22635   0.23735

 Mulliken charges:
               1
     1  C   -0.173786
     2  C   -0.029631
     3  C   -0.035499
     4  C   -0.172390
     5  H    0.085194
     6  H    0.063037
     7  H    0.057012
     8  H    0.057001
     9  H    0.064814
    10  H    0.084248
 Sum of Mulliken charges =   0.00000

 Dipole moment (field-independent basis, Debye):
    X=             -0.0008    Y=             -0.0394    Z=              0.0427  Tot=              0.0580
 Quadrupole moment (field-independent basis, Debye-Ang):
   XX=            -23.3244   YY=            -23.1519   ZZ=            -29.2133
   XY=             -0.1036   XZ=             -0.0095   YZ=              0.0367

 1\1\GINC-NODE32\SP\RB2PLYPD3-FC\def2QZVP\C4H6\BOITTIER\26-Aug-2020\0\\
 #p B2PLYPD3/Def2QZVP\\butadiene\\0,1\C,0,-3.839689,0.218747,0.030427\C
 ,0,-2.723876,-0.4972,0.020256\C,0,-1.384246,0.072352,-0.006015\C,0,-0.
 260044,-0.653838,0.046463\H,0,-4.794893,-0.250153,0.020593\H,0,-3.8226
 73,1.312235,0.11275\H,0,-2.830498,-1.561274,0.025289\H,0,-1.321117,1.1
 61628,-0.106098\H,0,-0.280926,-1.725949,0.126295\H,0,0.733102,-0.22319
 9,0.042791\\Version=ES64L-G09RevD.01\State=1-A\HF=-155.7004871\MP2=-15
 5.9259351\RMSD=4.626e-09\PG=C01 [X(C4H6)]\\@

 Normal termination of Gaussian 09 at Wed Aug 26 21:40:37 2020.
