 Gaussian 09, Revision D.01,
 Gaussian 09:  ES64L-G09RevD.01 24-Apr-2013

 --------------------
 #p B2PLYPD3/Def2QZVP
 --------------------

 ---------
 butadiene
 ---------
 Symbolic Z-matrix:
 Charge =  0 Multiplicity = 1

                         Standard orientation:
 ---------------------------------------------------------------------
 Center     Atomic      Atomic             Coordinates (Angstroms)
 Number     Number       Type             X           Y           Z
 ---------------------------------------------------------------------
      1          6           0        1.823723    0.130145    0.080102
      2          6           0        0.614707   -0.420564   -0.093978
      3          6           0       -0.581257    0.365446   -0.072222
      4          6           0       -1.841897   -0.090991    0.051910
      5          1           0        2.639020   -0.564698    0.197865
      6          1           0        2.142912    1.165430   -0.125489
      7          1           0        0.430082   -1.504194   -0.082185
      8          1           0       -0.458595    1.531215    0.047004
      9          1           0       -2.090818   -1.096165    0.087541
     10          1           0       -2.754253    0.564194    0.080389
 ---------------------------------------------------------------------

 SCF Done:  E(RB2PLYPD3) =  -155.682257764     A.U. after   11 cycles
 E2(B2PLYPD3) =    -0.2273596094D+00 E(B2PLYPD3) =    -0.15590961737304D+03

 The electronic state is 1-A.
 Alpha  occ. eigenvalues --  -10.63358 -10.63086 -10.62056 -10.61560  -0.93068
 Alpha  occ. eigenvalues --   -0.84616  -0.70706  -0.63264  -0.54693  -0.53510
 Alpha  occ. eigenvalues --   -0.46754  -0.44806  -0.40369  -0.38207  -0.27369
 Alpha virt. eigenvalues --    0.01065   0.06940   0.07230   0.07843   0.09218
 Alpha virt. eigenvalues --    0.11516   0.12488   0.14702   0.15776   0.16279
 Alpha virt. eigenvalues --    0.18643   0.19688   0.22399   0.22992   0.23298

 Mulliken charges:
               1
     1  C   -0.164749
     2  C   -0.046798
     3  C   -0.012675
     4  C   -0.176708
     5  H    0.072879
     6  H    0.084378
     7  H    0.060390
     8  H    0.043652
     9  H    0.061146
    10  H    0.078485
 Sum of Mulliken charges =   0.00000

 Dipole moment (field-independent basis, Debye):
    X=              0.0865    Y=             -0.1095    Z=              0.0384  Tot=              0.1448
 Quadrupole moment (field-independent basis, Debye-Ang):
   XX=            -23.3569   YY=            -23.3176   ZZ=            -29.3177
   XY=              0.5983   XZ=             -0.2266   YZ=             -0.1735

 1\1\GINC-NODE36\SP\RB2PLYPD3-FC\def2QZVP\C4H6\BOITTIER\26-Aug-2020\0\\
 #p B2PLYPD3/Def2QZVP\\butadiene\\0,1\C,0,-3.81774,0.251147,-0.061351\C
 ,0,-2.731166,-0.509924,0.126879\C,0,-1.41008,0.039053,0.082479\C,0,-0.
 257024,-0.647067,-0.030032\H,0,-4.74868,-0.28285,-0.15924\H,0,-3.93768
 2,1.332893,0.115856\H,0,-2.751279,-1.608902,0.144838\H,0,-1.314592,1.2
 0365,-0.068766\H,0,-0.19952,-1.681588,-0.038118\H,0,0.761042,-0.174016
 ,-0.077314\\Version=ES64L-G09RevD.01\State=1-A\HF=-155.6822578\MP2=-15
 5.9096174\RMSD=9.714e-09\PG=C01 [X(C4H6)]\\@

 Normal termination of Gaussian 09 at Wed Aug 26 15:37:40 2020.
