 Gaussian 09, Revision D.01,
 Gaussian 09:  ES64L-G09RevD.01 24-Apr-2013

 --------------------
 #p B2PLYPD3/Def2QZVP
 --------------------

 ---------
 butadiene
 ---------
 Symbolic Z-matrix:
 Charge =  0 Multiplicity = 1

                         Standard orientation:
 ---------------------------------------------------------------------
 Center     Atomic      Atomic             Coordinates (Angstroms)
 Number     Number       Type             X           Y           Z
 ---------------------------------------------------------------------
      1          6           0       -1.835790   -0.115354   -0.019596
      2          6           0       -0.602527    0.409834    0.044198
      3          6           0        0.599664   -0.396307    0.019495
      4          6           0        1.836959    0.105749   -0.029318
      5          1           0       -2.766466    0.470844   -0.058568
      6          1           0       -1.951038   -1.175354   -0.032265
      7          1           0       -0.462593    1.499735   -0.015606
      8          1           0        0.499666   -1.468621    0.037672
      9          1           0        1.985060    1.179538    0.000323
     10          1           0        2.705536   -0.529679   -0.020227
 ---------------------------------------------------------------------

 SCF Done:  E(RB2PLYPD3) =  -155.699707915     A.U. after   11 cycles
 E2(B2PLYPD3) =    -0.2259743068D+00 E(B2PLYPD3) =    -0.15592568222148D+03

 The electronic state is 1-A.
 Alpha  occ. eigenvalues --  -10.62837 -10.62374 -10.61715 -10.61399  -0.93056
 Alpha  occ. eigenvalues --   -0.84816  -0.70096  -0.64170  -0.54622  -0.53920
 Alpha  occ. eigenvalues --   -0.46588  -0.45420  -0.41373  -0.38172  -0.27571
 Alpha virt. eigenvalues --    0.01630   0.07028   0.07426   0.08022   0.09516
 Alpha virt. eigenvalues --    0.11665   0.12572   0.14591   0.15761   0.16296
 Alpha virt. eigenvalues --    0.18780   0.20312   0.21692   0.22928   0.23864

 Mulliken charges:
               1
     1  C   -0.172215
     2  C   -0.031504
     3  C   -0.026922
     4  C   -0.177544
     5  H    0.085079
     6  H    0.064805
     7  H    0.054569
     8  H    0.053839
     9  H    0.063235
    10  H    0.086658
 Sum of Mulliken charges =   0.00000

 Dipole moment (field-independent basis, Debye):
    X=             -0.0212    Y=             -0.0359    Z=             -0.0338  Tot=              0.0536
 Quadrupole moment (field-independent basis, Debye-Ang):
   XX=            -23.4020   YY=            -23.1630   ZZ=            -29.2952
   XY=              0.0414   XZ=              0.2405   YZ=             -0.0579

 1\1\GINC-NODE06\SP\RB2PLYPD3-FC\def2QZVP\C4H6\BOITTIER\26-Aug-2020\0\\
 #p B2PLYPD3/Def2QZVP\\butadiene\\0,1\C,0,-3.837317,0.227679,0.042215\C
 ,0,-2.718198,-0.511403,-0.004267\C,0,-1.391142,0.067092,-0.006159\C,0,
 -0.263256,-0.646315,0.059143\H,0,-4.857543,-0.181035,0.100496\H,0,-3.7
 61149,1.291044,0.019958\H,0,-2.774994,-1.606237,0.091408\H,0,-1.297951
 ,1.138839,-0.059651\H,0,-0.309665,-1.729665,0.064891\H,0,0.70485,-0.17
 7116,0.029106\\Version=ES64L-G09RevD.01\State=1-A\HF=-155.6997079\MP2=
 -155.9256822\RMSD=4.130e-09\PG=C01 [X(C4H6)]\\@

 Normal termination of Gaussian 09 at Wed Aug 26 16:38:45 2020.
