 Gaussian 09, Revision D.01,
 Gaussian 09:  ES64L-G09RevD.01 24-Apr-2013

 --------------------
 #p B2PLYPD3/Def2QZVP
 --------------------

 ---------
 butadiene
 ---------
 Symbolic Z-matrix:
 Charge =  0 Multiplicity = 1

                         Standard orientation:
 ---------------------------------------------------------------------
 Center     Atomic      Atomic             Coordinates (Angstroms)
 Number     Number       Type             X           Y           Z
 ---------------------------------------------------------------------
      1          6           0        1.841477    0.138842   -0.036445
      2          6           0        0.654706   -0.412722    0.060482
      3          6           0       -0.608357    0.371111    0.016565
      4          6           0       -1.858458   -0.111419   -0.064822
      5          1           0        2.766778   -0.553004    0.065193
      6          1           0        1.910075    1.246500   -0.184497
      7          1           0        0.466238   -1.485979    0.080438
      8          1           0       -0.559024    1.468389    0.108621
      9          1           0       -2.071289   -1.175899   -0.159998
     10          1           0       -2.688984    0.585119    0.235563
 ---------------------------------------------------------------------

 SCF Done:  E(RB2PLYPD3) =  -155.685417810     A.U. after   11 cycles
 E2(B2PLYPD3) =    -0.2268274149D+00 E(B2PLYPD3) =    -0.15591224522501D+03

 The electronic state is 1-A.
 Alpha  occ. eigenvalues --  -10.62884 -10.62794 -10.62652 -10.61944  -0.92621
 Alpha  occ. eigenvalues --   -0.85012  -0.68843  -0.63447  -0.53927  -0.52954
 Alpha  occ. eigenvalues --   -0.46670  -0.45087  -0.40392  -0.37510  -0.28122
 Alpha virt. eigenvalues --    0.01699   0.06818   0.07311   0.07686   0.09464
 Alpha virt. eigenvalues --    0.11741   0.12014   0.14572   0.15348   0.15847
 Alpha virt. eigenvalues --    0.19034   0.19934   0.20599   0.21894   0.24333

 Mulliken charges:
               1
     1  C   -0.161509
     2  C   -0.045292
     3  C   -0.023143
     4  C   -0.180088
     5  H    0.085717
     6  H    0.074484
     7  H    0.059543
     8  H    0.050061
     9  H    0.061577
    10  H    0.078651
 Sum of Mulliken charges =   0.00000

 Dipole moment (field-independent basis, Debye):
    X=              0.1117    Y=             -0.0542    Z=              0.1659  Tot=              0.2072
 Quadrupole moment (field-independent basis, Debye-Ang):
   XX=            -24.1990   YY=            -23.0767   ZZ=            -29.3277
   XY=              0.0374   XZ=             -0.5821   YZ=              0.1319

 1\1\GINC-NODE07\SP\RB2PLYPD3-FC\def2QZVP\C4H6\BOITTIER\26-Aug-2020\0\\
 #p B2PLYPD3/Def2QZVP\\butadiene\\0,1\C,0,-3.838751,0.237675,0.056688\C
 ,0,-2.76402,-0.511019,-0.023641\C,0,-1.385645,0.047141,-0.009759\C,0,-
 0.235316,-0.638326,0.085581\H,0,-4.869112,-0.289408,-0.01882\H,0,-3.71
 6588,1.345189,0.166333\H,0,-2.761174,-1.600746,-0.006726\H,0,-1.248209
 ,1.133022,-0.139759\H,0,-0.206038,-1.719665,0.217199\H,0,0.699203,-0.1
 04079,-0.240645\\Version=ES64L-G09RevD.01\State=1-A\HF=-155.6854178\MP
 2=-155.9122452\RMSD=6.666e-09\PG=C01 [X(C4H6)]\\@

 Normal termination of Gaussian 09 at Wed Aug 26 11:29:24 2020.
