 Gaussian 09, Revision D.01,
 Gaussian 09:  ES64L-G09RevD.01 24-Apr-2013

 --------------------
 #p B2PLYPD3/Def2QZVP
 --------------------

 ---------
 butadiene
 ---------
 Symbolic Z-matrix:
 Charge =  0 Multiplicity = 1

                         Standard orientation:
 ---------------------------------------------------------------------
 Center     Atomic      Atomic             Coordinates (Angstroms)
 Number     Number       Type             X           Y           Z
 ---------------------------------------------------------------------
      1          6           0        1.856260   -0.095604    0.016061
      2          6           0        0.601633    0.374422   -0.043430
      3          6           0       -0.616289   -0.425567   -0.029065
      4          6           0       -1.845070    0.130247    0.035290
      5          1           0        2.631055    0.602116    0.085396
      6          1           0        2.100449   -1.161742    0.003614
      7          1           0        0.477643    1.503313    0.027436
      8          1           0       -0.467117   -1.495145    0.028151
      9          1           0       -2.041796    1.197974   -0.029275
     10          1           0       -2.679436   -0.547504    0.011537
 ---------------------------------------------------------------------

 SCF Done:  E(RB2PLYPD3) =  -155.695376423     A.U. after   11 cycles
 E2(B2PLYPD3) =    -0.2264363738D+00 E(B2PLYPD3) =    -0.15592181279655D+03

 The electronic state is 1-A.
 Alpha  occ. eigenvalues --  -10.62989 -10.62878 -10.61854 -10.61258  -0.92608
 Alpha  occ. eigenvalues --   -0.84814  -0.70403  -0.63417  -0.54331  -0.53992
 Alpha  occ. eigenvalues --   -0.46928  -0.45357  -0.40989  -0.37880  -0.27548
 Alpha virt. eigenvalues --    0.01460   0.07023   0.07291   0.08030   0.09454
 Alpha virt. eigenvalues --    0.11598   0.12288   0.14902   0.15811   0.15909
 Alpha virt. eigenvalues --    0.18793   0.20259   0.21562   0.22807   0.24044

 Mulliken charges:
               1
     1  C   -0.184920
     2  C   -0.017658
     3  C   -0.044034
     4  C   -0.171647
     5  H    0.089454
     6  H    0.067109
     7  H    0.042672
     8  H    0.060660
     9  H    0.075773
    10  H    0.082591
 Sum of Mulliken charges =   0.00000

 Dipole moment (field-independent basis, Debye):
    X=             -0.0252    Y=             -0.0278    Z=              0.0573  Tot=              0.0685
 Quadrupole moment (field-independent basis, Debye-Ang):
   XX=            -23.7273   YY=            -22.9038   ZZ=            -29.3859
   XY=             -0.2939   XZ=              0.3148   YZ=              0.0276

 1\1\GINC-NODE15\SP\RB2PLYPD3-FC\def2QZVP\C4H6\BOITTIER\26-Aug-2020\0\\
 #p B2PLYPD3/Def2QZVP\\butadiene\\0,1\C,0,-3.860764,0.216233,0.041356\C
 ,0,-2.71311,-0.47618,-0.003445\C,0,-1.369813,0.088552,-0.015819\C,0,-0
 .262393,-0.6795,0.065971\H,0,-4.749189,-0.326059,0.133815\H,0,-3.90681
 4,1.308065,-0.005717\H,0,-2.796297,-1.605914,0.104125\H,0,-1.321359,1.
 168679,0.006572\H,0,-0.263799,-1.766708,0.03615\H,0,0.681264,-0.16623,
 0.019689\\Version=ES64L-G09RevD.01\State=1-A\HF=-155.6953764\MP2=-155.
 9218128\RMSD=7.139e-09\PG=C01 [X(C4H6)]\\@

 Normal termination of Gaussian 09 at Wed Aug 26 09:40:06 2020.
