 Gaussian 09, Revision D.01,
 Gaussian 09:  ES64L-G09RevD.01 24-Apr-2013

 --------------------
 #p B2PLYPD3/Def2QZVP
 --------------------

 ---------
 butadiene
 ---------
 Symbolic Z-matrix:
 Charge =  0 Multiplicity = 1

                         Standard orientation:
 ---------------------------------------------------------------------
 Center     Atomic      Atomic             Coordinates (Angstroms)
 Number     Number       Type             X           Y           Z
 ---------------------------------------------------------------------
      1          6           0        1.842475   -0.098598    0.022813
      2          6           0        0.603614    0.354699   -0.055190
      3          6           0       -0.620452   -0.401010   -0.015526
      4          6           0       -1.852783    0.120464    0.014395
      5          1           0        2.718402    0.564260    0.029240
      6          1           0        2.104675   -1.133172    0.109756
      7          1           0        0.522217    1.483530   -0.004967
      8          1           0       -0.496898   -1.485958   -0.067696
      9          1           0       -1.939216    1.191384    0.097078
     10          1           0       -2.746305   -0.473375    0.037636
 ---------------------------------------------------------------------

 SCF Done:  E(RB2PLYPD3) =  -155.696769675     A.U. after   11 cycles
 E2(B2PLYPD3) =    -0.2258540568D+00 E(B2PLYPD3) =    -0.15592262373197D+03

 The electronic state is 1-A.
 Alpha  occ. eigenvalues --  -10.62766 -10.62688 -10.61614 -10.61465  -0.93123
 Alpha  occ. eigenvalues --   -0.85196  -0.70553  -0.63515  -0.55096  -0.53742
 Alpha  occ. eigenvalues --   -0.47085  -0.45197  -0.40427  -0.38375  -0.27849
 Alpha virt. eigenvalues --    0.01510   0.06944   0.07436   0.07902   0.09923
 Alpha virt. eigenvalues --    0.11563   0.12473   0.14735   0.15638   0.16406
 Alpha virt. eigenvalues --    0.18879   0.20089   0.22096   0.22168   0.23737

 Mulliken charges:
               1
     1  C   -0.169804
     2  C   -0.016483
     3  C   -0.035453
     4  C   -0.171510
     5  H    0.081328
     6  H    0.061707
     7  H    0.040775
     8  H    0.052241
     9  H    0.065431
    10  H    0.091766
 Sum of Mulliken charges =   0.00000

 Dipole moment (field-independent basis, Debye):
    X=              0.0081    Y=             -0.0512    Z=              0.1429  Tot=              0.1520
 Quadrupole moment (field-independent basis, Debye-Ang):
   XX=            -23.0719   YY=            -23.4126   ZZ=            -29.2208
   XY=             -0.0352   XZ=              0.0798   YZ=              0.0967

 1\1\GINC-NODE14\SP\RB2PLYPD3-FC\def2QZVP\C4H6\BOITTIER\26-Aug-2020\0\\
 #p B2PLYPD3/Def2QZVP\\butadiene\\0,1\C,0,-3.851895,0.205817,0.045066\C
 ,0,-2.712766,-0.461537,-0.012935\C,0,-1.374493,0.067545,-0.002802\C,0,
 -0.253146,-0.661346,0.04981\H,0,-4.830843,-0.291449,0.077587\H,0,-3.92
 7198,1.273066,0.089349\H,0,-2.831206,-1.584071,0.083481\H,0,-1.305293,
 1.154273,-0.099417\H,0,-0.356228,-1.726499,0.176297\H,0,0.731143,-0.23
 3863,0.049774\\Version=ES64L-G09RevD.01\State=1-A\HF=-155.6967697\MP2=
 -155.9226237\RMSD=5.614e-09\PG=C01 [X(C4H6)]\\@

 Normal termination of Gaussian 09 at Wed Aug 26 10:07:56 2020.
