 Gaussian 09, Revision D.01,
 Gaussian 09:  ES64L-G09RevD.01 24-Apr-2013

 --------------------
 #p B2PLYPD3/Def2QZVP
 --------------------

 ---------
 butadiene
 ---------
 Symbolic Z-matrix:
 Charge =  0 Multiplicity = 1

                         Standard orientation:
 ---------------------------------------------------------------------
 Center     Atomic      Atomic             Coordinates (Angstroms)
 Number     Number       Type             X           Y           Z
 ---------------------------------------------------------------------
      1          6           0        1.811863    0.112023   -0.057354
      2          6           0        0.585377   -0.382820    0.031241
      3          6           0       -0.613738    0.414696    0.056762
      4          6           0       -1.815873   -0.132060   -0.086510
      5          1           0        2.645081   -0.591827    0.091192
      6          1           0        1.976094    1.169684   -0.244870
      7          1           0        0.520888   -1.433624    0.170276
      8          1           0       -0.391573    1.431575    0.345174
      9          1           0       -1.862452   -1.162093   -0.002742
     10          1           0       -2.693812    0.515252   -0.023866
 ---------------------------------------------------------------------

 SCF Done:  E(RB2PLYPD3) =  -155.688238688     A.U. after   11 cycles
 E2(B2PLYPD3) =    -0.2256745101D+00 E(B2PLYPD3) =    -0.15591391319809D+03

 The electronic state is 1-A.
 Alpha  occ. eigenvalues --  -10.62190 -10.61531 -10.61294 -10.61060  -0.93684
 Alpha  occ. eigenvalues --   -0.85267  -0.70033  -0.64405  -0.54795  -0.53796
 Alpha  occ. eigenvalues --   -0.47285  -0.45915  -0.41458  -0.37324  -0.27789
 Alpha virt. eigenvalues --    0.01765   0.07158   0.07428   0.07966   0.09414
 Alpha virt. eigenvalues --    0.11907   0.12362   0.14789   0.15260   0.16289
 Alpha virt. eigenvalues --    0.18695   0.19638   0.21591   0.22057   0.24890

 Mulliken charges:
               1
     1  C   -0.192398
     2  C   -0.013380
     3  C   -0.044155
     4  C   -0.174296
     5  H    0.082380
     6  H    0.070253
     7  H    0.051394
     8  H    0.063025
     9  H    0.074448
    10  H    0.082727
 Sum of Mulliken charges =   0.00000

 Dipole moment (field-independent basis, Debye):
    X=             -0.0151    Y=             -0.0211    Z=              0.3607  Tot=              0.3616
 Quadrupole moment (field-independent basis, Debye-Ang):
   XX=            -24.2008   YY=            -23.1196   ZZ=            -28.9343
   XY=              0.0090   XZ=             -0.1902   YZ=             -0.2027

 1\1\GINC-NODE18\SP\RB2PLYPD3-FC\def2QZVP\C4H6\BOITTIER\26-Aug-2020\0\\
 #p B2PLYPD3/Def2QZVP\\butadiene\\0,1\C,0,-3.818409,0.220173,0.071988\C
 ,0,-2.700751,-0.48824,-0.005329\C,0,-1.378332,0.080805,-0.049564\C,0,-
 0.292921,-0.669022,0.106132\H,0,-4.76483,-0.326251,-0.060037\H,0,-3.78
 9782,1.29414,0.234947\H,0,-2.826069,-1.536493,-0.119961\H,0,-1.416068,
 1.114191,-0.361448\H,0,-0.431901,-1.692377,0.046274\H,0,0.686458,-0.19
 103,0.028327\\Version=ES64L-G09RevD.01\State=1-A\HF=-155.6882387\MP2=-
 155.9139132\RMSD=7.946e-09\PG=C01 [X(C4H6)]\\@

 Normal termination of Gaussian 09 at Wed Aug 26 13:50:25 2020.
