 Gaussian 09, Revision D.01,
 Gaussian 09:  ES64L-G09RevD.01 24-Apr-2013

 --------------------
 #p B2PLYPD3/Def2QZVP
 --------------------

 ---------
 butadiene
 ---------
 Symbolic Z-matrix:
 Charge =  0 Multiplicity = 1

                         Standard orientation:
 ---------------------------------------------------------------------
 Center     Atomic      Atomic             Coordinates (Angstroms)
 Number     Number       Type             X           Y           Z
 ---------------------------------------------------------------------
      1          6           0       -1.840216   -0.102382   -0.021496
      2          6           0       -0.611488    0.380187    0.029838
      3          6           0        0.610710   -0.411574    0.004489
      4          6           0        1.845386    0.116952   -0.026751
      5          1           0       -2.673191    0.588809   -0.003534
      6          1           0       -2.061488   -1.158538   -0.053587
      7          1           0       -0.473717    1.458940    0.047956
      8          1           0        0.457991   -1.484435    0.094959
      9          1           0        2.004841    1.201909   -0.024344
     10          1           0        2.719215   -0.505785    0.022062
 ---------------------------------------------------------------------

 SCF Done:  E(RB2PLYPD3) =  -155.700443493     A.U. after   11 cycles
 E2(B2PLYPD3) =    -0.2255968287D+00 E(B2PLYPD3) =    -0.15592604032207D+03

 The electronic state is 1-A.
 Alpha  occ. eigenvalues --  -10.62707 -10.62246 -10.61797 -10.61266  -0.92949
 Alpha  occ. eigenvalues --   -0.85007  -0.70210  -0.63897  -0.54564  -0.53912
 Alpha  occ. eigenvalues --   -0.46849  -0.45745  -0.40832  -0.38059  -0.27816
 Alpha virt. eigenvalues --    0.01756   0.06999   0.07398   0.08065   0.09686
 Alpha virt. eigenvalues --    0.11674   0.12340   0.14807   0.15713   0.16145
 Alpha virt. eigenvalues --    0.18836   0.20370   0.21653   0.22614   0.23914

 Mulliken charges:
               1
     1  C   -0.176654
     2  C   -0.022608
     3  C   -0.037125
     4  C   -0.175416
     5  H    0.084165
     6  H    0.067582
     7  H    0.050928
     8  H    0.055832
     9  H    0.066064
    10  H    0.087233
 Sum of Mulliken charges =   0.00000

 Dipole moment (field-independent basis, Debye):
    X=              0.0017    Y=             -0.0047    Z=              0.0974  Tot=              0.0976
 Quadrupole moment (field-independent basis, Debye-Ang):
   XX=            -23.5036   YY=            -23.0876   ZZ=            -29.2569
   XY=              0.2310   XZ=              0.1892   YZ=             -0.0550

 1\1\GINC-NODE06\SP\RB2PLYPD3-FC\def2QZVP\C4H6\BOITTIER\26-Aug-2020\0\\
 #p B2PLYPD3/Def2QZVP\\butadiene\\0,1\C,0,-3.844275,0.217504,0.039834\C
 ,0,-2.723296,-0.480737,0.005968\C,0,-1.378019,0.077404,0.00427\C,0,-0.
 259013,-0.664243,0.054534\H,0,-4.788527,-0.311901,0.045595\H,0,-3.8708
 64,1.296728,0.034946\H,0,-2.782834,-1.566595,0.025569\H,0,-1.33488,1.1
 56438,-0.123654\H,0,-0.298254,-1.759579,0.090064\H,0,0.712661,-0.21180
 7,-0.015552\\Version=ES64L-G09RevD.01\State=1-A\HF=-155.7004435\MP2=-1
 55.9260403\RMSD=5.896e-09\PG=C01 [X(C4H6)]\\@

 Normal termination of Gaussian 09 at Wed Aug 26 09:12:18 2020.
