 Gaussian 09, Revision D.01,
 Gaussian 09:  ES64L-G09RevD.01 24-Apr-2013

 --------------------
 #p B2PLYPD3/Def2QZVP
 --------------------

 ---------
 butadiene
 ---------
 Symbolic Z-matrix:
 Charge =  0 Multiplicity = 1

                         Standard orientation:
 ---------------------------------------------------------------------
 Center     Atomic      Atomic             Coordinates (Angstroms)
 Number     Number       Type             X           Y           Z
 ---------------------------------------------------------------------
      1          6           0       -1.848206   -0.106305   -0.011697
      2          6           0       -0.601986    0.377015    0.026702
      3          6           0        0.621365   -0.408286    0.013558
      4          6           0        1.855171    0.114239   -0.033211
      5          1           0       -2.688511    0.561774   -0.071069
      6          1           0       -2.012114   -1.175240    0.022383
      7          1           0       -0.525228    1.481815   -0.031790
      8          1           0        0.445956   -1.453104    0.035300
      9          1           0        1.907287    1.191739    0.112656
     10          1           0        2.714542   -0.466961   -0.039593
 ---------------------------------------------------------------------

 SCF Done:  E(RB2PLYPD3) =  -155.696415245     A.U. after   11 cycles
 E2(B2PLYPD3) =    -0.2258294804D+00 E(B2PLYPD3) =    -0.15592224472574D+03

 The electronic state is 1-A.
 Alpha  occ. eigenvalues --  -10.62626 -10.62455 -10.61461 -10.61313  -0.92990
 Alpha  occ. eigenvalues --   -0.85117  -0.70542  -0.63950  -0.55162  -0.53940
 Alpha  occ. eigenvalues --   -0.46873  -0.45727  -0.41194  -0.38007  -0.27678
 Alpha virt. eigenvalues --    0.01513   0.07030   0.07485   0.08106   0.09589
 Alpha virt. eigenvalues --    0.11716   0.12540   0.14659   0.15779   0.16220
 Alpha virt. eigenvalues --    0.18782   0.20223   0.21473   0.22868   0.24345

 Mulliken charges:
               1
     1  C   -0.183847
     2  C   -0.015029
     3  C   -0.038078
     4  C   -0.173008
     5  H    0.089968
     6  H    0.063567
     7  H    0.042959
     8  H    0.054492
     9  H    0.066225
    10  H    0.092752
 Sum of Mulliken charges =   0.00000

 Dipole moment (field-independent basis, Debye):
    X=             -0.0017    Y=             -0.0507    Z=              0.0582  Tot=              0.0772
 Quadrupole moment (field-independent basis, Debye-Ang):
   XX=            -23.4476   YY=            -23.2093   ZZ=            -29.2277
   XY=             -0.1641   XZ=              0.3111   YZ=              0.0054

 1\1\GINC-NODE31\SP\RB2PLYPD3-FC\def2QZVP\C4H6\BOITTIER\26-Aug-2020\0\\
 #p B2PLYPD3/Def2QZVP\\butadiene\\0,1\C,0,-3.855839,0.21488,0.034158\C,
 0,-2.714978,-0.482253,0.010122\C,0,-1.371992,0.074246,-0.002412\C,0,-0
 .249744,-0.656624,0.059924\H,0,-4.800639,-0.29183,0.115195\H,0,-3.8283
 76,1.294378,-0.033517\H,0,-2.834404,-1.580858,0.103393\H,0,-1.360035,1
 .132435,-0.056986\H,0,-0.389884,-1.730334,-0.051906\H,0,0.698873,-0.23
 672,0.047336\\Version=ES64L-G09RevD.01\State=1-A\HF=-155.6964152\MP2=-
 155.9222447\RMSD=5.869e-09\PG=C01 [X(C4H6)]\\@

 Normal termination of Gaussian 09 at Wed Aug 26 09:27:14 2020.
