 Gaussian 09, Revision D.01,
 Gaussian 09:  ES64L-G09RevD.01 24-Apr-2013

 --------------------
 #p B2PLYPD3/Def2QZVP
 --------------------

 ---------
 butadiene
 ---------
 Symbolic Z-matrix:
 Charge =  0 Multiplicity = 1

                         Standard orientation:
 ---------------------------------------------------------------------
 Center     Atomic      Atomic             Coordinates (Angstroms)
 Number     Number       Type             X           Y           Z
 ---------------------------------------------------------------------
      1          6           0        1.861604   -0.125519   -0.016016
      2          6           0        0.622522    0.395369    0.017372
      3          6           0       -0.623828   -0.400930   -0.010741
      4          6           0       -1.843607    0.120395   -0.033526
      5          1           0        2.706675    0.553717    0.014296
      6          1           0        1.978415   -1.174657   -0.058381
      7          1           0        0.482879    1.476011    0.099667
      8          1           0       -0.562816   -1.471167    0.138768
      9          1           0       -1.978700    1.197338   -0.024327
     10          1           0       -2.726596   -0.517132    0.087438
 ---------------------------------------------------------------------

 SCF Done:  E(RB2PLYPD3) =  -155.697773419     A.U. after   11 cycles
 E2(B2PLYPD3) =    -0.2257957728D+00 E(B2PLYPD3) =    -0.15592356919182D+03

 The electronic state is 1-A.
 Alpha  occ. eigenvalues --  -10.62936 -10.62483 -10.61527 -10.61463  -0.92610
 Alpha  occ. eigenvalues --   -0.85124  -0.69708  -0.63979  -0.54459  -0.53950
 Alpha  occ. eigenvalues --   -0.46460  -0.45955  -0.41114  -0.37596  -0.27932
 Alpha virt. eigenvalues --    0.01829   0.07021   0.07465   0.07949   0.09448
 Alpha virt. eigenvalues --    0.11725   0.12340   0.14623   0.15723   0.16048
 Alpha virt. eigenvalues --    0.18844   0.20245   0.21298   0.22902   0.24142

 Mulliken charges:
               1
     1  C   -0.180820
     2  C   -0.039130
     3  C   -0.027983
     4  C   -0.172947
     5  H    0.090858
     6  H    0.075495
     7  H    0.053339
     8  H    0.055440
     9  H    0.062909
    10  H    0.082839
 Sum of Mulliken charges =   0.00000

 Dipole moment (field-independent basis, Debye):
    X=             -0.0153    Y=             -0.0007    Z=              0.2344  Tot=              0.2349
 Quadrupole moment (field-independent basis, Debye-Ang):
   XX=            -23.6689   YY=            -23.0417   ZZ=            -29.2847
   XY=              0.0636   XZ=             -0.3638   YZ=             -0.0599

 1\1\GINC-NODE15\SP\RB2PLYPD3-FC\def2QZVP\C4H6\BOITTIER\26-Aug-2020\0\\
 #p B2PLYPD3/Def2QZVP\\butadiene\\0,1\C,0,-3.862879,0.226406,0.003134\C
 ,0,-2.731626,-0.498407,0.05488\C,0,-1.367067,0.0712,0.012471\C,0,-0.25
 4903,-0.652146,0.007987\H,0,-4.812019,-0.296729,0.046595\H,0,-3.797831
 ,1.278618,-0.065779\H,0,-2.779592,-1.584557,0.164592\H,0,-1.243438,1.1
 39452,0.135091\H,0,-0.306712,-1.735715,0.044516\H,0,0.724423,-0.172782
 ,0.116956\\Version=ES64L-G09RevD.01\State=1-A\HF=-155.6977734\MP2=-155
 .9235692\RMSD=6.529e-09\PG=C01 [X(C4H6)]\\@

 Normal termination of Gaussian 09 at Wed Aug 26 09:24:56 2020.
