 Gaussian 09, Revision D.01,
 Gaussian 09:  ES64L-G09RevD.01 24-Apr-2013

 --------------------
 #p B2PLYPD3/Def2QZVP
 --------------------

 ---------
 butadiene
 ---------
 Symbolic Z-matrix:
 Charge =  0 Multiplicity = 1

                         Standard orientation:
 ---------------------------------------------------------------------
 Center     Atomic      Atomic             Coordinates (Angstroms)
 Number     Number       Type             X           Y           Z
 ---------------------------------------------------------------------
      1          6           0        1.832970   -0.101871    0.006014
      2          6           0        0.583601    0.403507   -0.014546
      3          6           0       -0.602315   -0.410723   -0.000591
      4          6           0       -1.822490    0.102744   -0.013200
      5          1           0        2.770036    0.512714    0.027144
      6          1           0        2.020012   -1.156127    0.022398
      7          1           0        0.384177    1.479134   -0.047132
      8          1           0       -0.440598   -1.470633    0.001955
      9          1           0       -1.961511    1.153256    0.117765
     10          1           0       -2.722710   -0.480291    0.011808
 ---------------------------------------------------------------------

 SCF Done:  E(RB2PLYPD3) =  -155.697699017     A.U. after   11 cycles
 E2(B2PLYPD3) =    -0.2258866328D+00 E(B2PLYPD3) =    -0.15592358564954D+03

 The electronic state is 1-A.
 Alpha  occ. eigenvalues --  -10.62775 -10.62126 -10.62052 -10.61088  -0.93379
 Alpha  occ. eigenvalues --   -0.84698  -0.70395  -0.64470  -0.55004  -0.53521
 Alpha  occ. eigenvalues --   -0.47011  -0.45403  -0.41077  -0.38350  -0.27552
 Alpha virt. eigenvalues --    0.01585   0.07001   0.07398   0.08128   0.09496
 Alpha virt. eigenvalues --    0.11690   0.12652   0.14708   0.15880   0.16191
 Alpha virt. eigenvalues --    0.18734   0.20496   0.21991   0.23123   0.23306

 Mulliken charges:
               1
     1  C   -0.175957
     2  C   -0.029188
     3  C   -0.023018
     4  C   -0.171959
     5  H    0.080489
     6  H    0.065450
     7  H    0.054672
     8  H    0.056246
     9  H    0.061118
    10  H    0.082148
 Sum of Mulliken charges =   0.00000

 Dipole moment (field-independent basis, Debye):
    X=             -0.0312    Y=             -0.0447    Z=              0.1176  Tot=              0.1296
 Quadrupole moment (field-independent basis, Debye-Ang):
   XX=            -23.2997   YY=            -23.2965   ZZ=            -29.2200
   XY=             -0.3752   XZ=             -0.1590   YZ=              0.0726

 1\1\GINC-NODE31\SP\RB2PLYPD3-FC\def2QZVP\C4H6\BOITTIER\26-Aug-2020\0\\
 #p B2PLYPD3/Def2QZVP\\butadiene\\0,1\C,0,-3.835363,0.225056,0.023685\C
 ,0,-2.701645,-0.50394,0.024076\C,0,-1.385113,0.075907,0.014928\C,0,-0.
 28156,-0.655347,0.023436\H,0,-4.870197,-0.203776,0.062096\H,0,-3.82331
 9,1.29566,0.004426\H,0,-2.705538,-1.598369,0.027892\H,0,-1.347175,1.14
 6901,-0.018265\H,0,-0.339667,-1.708457,0.189678\H,0,0.711344,-0.249122
 ,0.032063\\Version=ES64L-G09RevD.01\State=1-A\HF=-155.697699\MP2=-155.
 9235856\RMSD=4.754e-09\PG=C01 [X(C4H6)]\\@

 Normal termination of Gaussian 09 at Wed Aug 26 09:16:20 2020.
