 Gaussian 09, Revision D.01,
 Gaussian 09:  ES64L-G09RevD.01 24-Apr-2013

 --------------------
 #p B2PLYPD3/Def2QZVP
 --------------------

 ---------
 butadiene
 ---------
 Symbolic Z-matrix:
 Charge =  0 Multiplicity = 1

                         Standard orientation:
 ---------------------------------------------------------------------
 Center     Atomic      Atomic             Coordinates (Angstroms)
 Number     Number       Type             X           Y           Z
 ---------------------------------------------------------------------
      1          6           0        1.824669    0.082073    0.028873
      2          6           0        0.598145   -0.367603   -0.040277
      3          6           0       -0.586998    0.415271   -0.065774
      4          6           0       -1.814997   -0.116432    0.056181
      5          1           0        2.684005   -0.548367    0.114328
      6          1           0        1.985526    1.155475    0.012401
      7          1           0        0.403002   -1.467086   -0.046919
      8          1           0       -0.487231    1.507699    0.016917
      9          1           0       -2.004185   -1.211170   -0.023573
     10          1           0       -2.706024    0.483588    0.052835
 ---------------------------------------------------------------------

 SCF Done:  E(RB2PLYPD3) =  -155.696077347     A.U. after   11 cycles
 E2(B2PLYPD3) =    -0.2258997044D+00 E(B2PLYPD3) =    -0.15592197705181D+03

 The electronic state is 1-A.
 Alpha  occ. eigenvalues --  -10.62619 -10.62103 -10.61956 -10.60984  -0.93662
 Alpha  occ. eigenvalues --   -0.85072  -0.70481  -0.63520  -0.55163  -0.53673
 Alpha  occ. eigenvalues --   -0.46982  -0.44854  -0.40791  -0.38748  -0.27718
 Alpha virt. eigenvalues --    0.01606   0.07073   0.07243   0.08034   0.09810
 Alpha virt. eigenvalues --    0.11697   0.12495   0.14767   0.15611   0.16356
 Alpha virt. eigenvalues --    0.18739   0.19693   0.22200   0.22968   0.23704

 Mulliken charges:
               1
     1  C   -0.177058
     2  C   -0.010021
     3  C   -0.033073
     4  C   -0.168272
     5  H    0.091213
     6  H    0.060379
     7  H    0.042295
     8  H    0.052968
     9  H    0.059818
    10  H    0.081752
 Sum of Mulliken charges =   0.00000

 Dipole moment (field-independent basis, Debye):
    X=             -0.0342    Y=              0.0161    Z=              0.0379  Tot=              0.0535
 Quadrupole moment (field-independent basis, Debye-Ang):
   XX=            -23.3665   YY=            -23.3071   ZZ=            -29.1695
   XY=              0.1310   XZ=              0.2173   YZ=              0.0856

 1\1\GINC-NODE19\SP\RB2PLYPD3-FC\def2QZVP\C4H6\BOITTIER\26-Aug-2020\0\\
 #p B2PLYPD3/Def2QZVP\\butadiene\\0,1\C,0,-3.828103,0.201404,-0.016253\
 C,0,-2.706044,-0.465214,0.072936\C,0,-1.396241,0.084796,0.076299\C,0,-
 0.288423,-0.669194,-0.022701\H,0,-4.789639,-0.261355,-0.083478\H,0,-3.
 787119,1.285944,-0.037023\H,0,-2.718115,-1.580932,0.117828\H,0,-1.2919
 49,1.173301,-0.043988\H,0,-0.305281,-1.776646,0.095075\H,0,0.698406,-0
 .244995,-0.036377\\Version=ES64L-G09RevD.01\State=1-A\HF=-155.6960773\
 MP2=-155.9219771\RMSD=7.537e-09\PG=C01 [X(C4H6)]\\@

 Normal termination of Gaussian 09 at Wed Aug 26 09:28:45 2020.
