 Gaussian 09, Revision D.01,
 Gaussian 09:  ES64L-G09RevD.01 24-Apr-2013

 --------------------
 #p B2PLYPD3/Def2QZVP
 --------------------

 ---------
 butadiene
 ---------
 Symbolic Z-matrix:
 Charge =  0 Multiplicity = 1

                         Standard orientation:
 ---------------------------------------------------------------------
 Center     Atomic      Atomic             Coordinates (Angstroms)
 Number     Number       Type             X           Y           Z
 ---------------------------------------------------------------------
      1          6           0        1.830975   -0.119694    0.049642
      2          6           0        0.609037    0.425469   -0.029400
      3          6           0       -0.586727   -0.400940   -0.061616
      4          6           0       -1.859993    0.087951    0.026314
      5          1           0        2.721298    0.515717   -0.006416
      6          1           0        1.931152   -1.216447   -0.000528
      7          1           0        0.479496    1.491230   -0.032538
      8          1           0       -0.355355   -1.402147   -0.000314
      9          1           0       -2.001410    1.164067    0.039210
     10          1           0       -2.734938   -0.509138    0.090948
 ---------------------------------------------------------------------

 SCF Done:  E(RB2PLYPD3) =  -155.694129949     A.U. after   11 cycles
 E2(B2PLYPD3) =    -0.2265197890D+00 E(B2PLYPD3) =    -0.15592064973851D+03

 The electronic state is 1-A.
 Alpha  occ. eigenvalues --  -10.62464 -10.62401 -10.61959 -10.61888  -0.92993
 Alpha  occ. eigenvalues --   -0.84356  -0.70421  -0.64853  -0.54651  -0.53540
 Alpha  occ. eigenvalues --   -0.46767  -0.45847  -0.41605  -0.37879  -0.27321
 Alpha virt. eigenvalues --    0.01292   0.07014   0.07446   0.08228   0.09228
 Alpha virt. eigenvalues --    0.11755   0.12581   0.14588   0.15809   0.16063
 Alpha virt. eigenvalues --    0.18715   0.20221   0.21548   0.23497   0.23772

 Mulliken charges:
               1
     1  C   -0.176470
     2  C   -0.024319
     3  C   -0.039716
     4  C   -0.179040
     5  H    0.084960
     6  H    0.062128
     7  H    0.056593
     8  H    0.062824
     9  H    0.063639
    10  H    0.089401
 Sum of Mulliken charges =   0.00000

 Dipole moment (field-independent basis, Debye):
    X=              0.0106    Y=              0.0231    Z=              0.0166  Tot=              0.0303
 Quadrupole moment (field-independent basis, Debye-Ang):
   XX=            -23.5513   YY=            -23.1351   ZZ=            -29.3529
   XY=             -0.1314   XZ=             -0.4526   YZ=             -0.0653

 1\1\GINC-NODE05\SP\RB2PLYPD3-FC\def2QZVP\C4H6\BOITTIER\26-Aug-2020\0\\
 #p B2PLYPD3/Def2QZVP\\butadiene\\0,1\C,0,-3.830621,0.239481,0.063401\C
 ,0,-2.729644,-0.522662,0.003656\C,0,-1.40231,0.068942,-0.041406\C,0,-0
 .240701,-0.643344,0.064736\H,0,-4.822521,-0.222669,0.017399\H,0,-3.727
 428,1.334449,-0.012871\H,0,-2.798222,-1.593845,0.026069\H,0,-1.445751,
 1.09679,-0.004713\H,0,-0.299525,-1.726501,0.103485\H,0,0.72903,-0.2158
 21,0.120123\\Version=ES64L-G09RevD.01\State=1-A\HF=-155.6941299\MP2=-1
 55.9206497\RMSD=6.316e-09\PG=C01 [X(C4H6)]\\@

 Normal termination of Gaussian 09 at Wed Aug 26 10:02:22 2020.
