 Gaussian 09, Revision D.01,
 Gaussian 09:  ES64L-G09RevD.01 24-Apr-2013

 --------------------
 #p B2PLYPD3/Def2QZVP
 --------------------

 ---------
 butadiene
 ---------
 Symbolic Z-matrix:
 Charge =  0 Multiplicity = 1

                         Standard orientation:
 ---------------------------------------------------------------------
 Center     Atomic      Atomic             Coordinates (Angstroms)
 Number     Number       Type             X           Y           Z
 ---------------------------------------------------------------------
      1          6           0       -1.827473   -0.111465    0.034637
      2          6           0       -0.600405    0.388887   -0.055855
      3          6           0        0.591227   -0.403564   -0.027235
      4          6           0        1.828704    0.112366    0.046276
      5          1           0       -2.637030    0.590846   -0.019423
      6          1           0       -2.015826   -1.187551    0.150909
      7          1           0       -0.421354    1.459635   -0.060185
      8          1           0        0.470796   -1.465772   -0.111616
      9          1           0        1.893141    1.207031    0.115194
     10          1           0        2.757957   -0.521533   -0.061809
 ---------------------------------------------------------------------

 SCF Done:  E(RB2PLYPD3) =  -155.695520896     A.U. after   11 cycles
 E2(B2PLYPD3) =    -0.2262808648D+00 E(B2PLYPD3) =    -0.15592180176103D+03

 The electronic state is 1-A.
 Alpha  occ. eigenvalues --  -10.62238 -10.62188 -10.62046 -10.61539  -0.93438
 Alpha  occ. eigenvalues --   -0.84770  -0.69875  -0.64089  -0.54036  -0.53973
 Alpha  occ. eigenvalues --   -0.46414  -0.45533  -0.41270  -0.38251  -0.27542
 Alpha virt. eigenvalues --    0.01565   0.06994   0.07347   0.07961   0.09712
 Alpha virt. eigenvalues --    0.11794   0.12238   0.14743   0.15639   0.16030
 Alpha virt. eigenvalues --    0.18645   0.20270   0.21232   0.22501   0.24190

 Mulliken charges:
               1
     1  C   -0.178950
     2  C   -0.029870
     3  C   -0.022974
     4  C   -0.179869
     5  H    0.086833
     6  H    0.072935
     7  H    0.050496
     8  H    0.054019
     9  H    0.059787
    10  H    0.087594
 Sum of Mulliken charges =   0.00000

 Dipole moment (field-independent basis, Debye):
    X=             -0.0401    Y=             -0.0186    Z=             -0.0421  Tot=              0.0610
 Quadrupole moment (field-independent basis, Debye-Ang):
   XX=            -23.9115   YY=            -23.0572   ZZ=            -29.2631
   XY=             -0.0026   XZ=             -0.3023   YZ=              0.0510

 1\1\GINC-NODE10\SP\RB2PLYPD3-FC\def2QZVP\C4H6\BOITTIER\26-Aug-2020\0\\
 #p B2PLYPD3/Def2QZVP\\butadiene\\0,1\C,0,-3.828366,0.223665,-0.019481\
 C,0,-2.712371,-0.48855,0.087949\C,0,-1.396783,0.07376,0.045278\C,0,-0.
 273429,-0.659632,-0.010832\H,0,-4.751859,-0.31869,0.048031\H,0,-3.8184
 59,1.312928,-0.162192\H,0,-2.730492,-1.57359,0.118585\H,0,-1.322535,1.
 141924,0.10377\H,0,-0.408624,-1.749178,-0.053319\H,0,0.755418,-0.20231
 ,0.085876\\Version=ES64L-G09RevD.01\State=1-A\HF=-155.6955209\MP2=-155
 .9218018\RMSD=5.400e-09\PG=C01 [X(C4H6)]\\@

 Normal termination of Gaussian 09 at Wed Aug 26 22:14:36 2020.
