 Gaussian 09, Revision D.01,
 Gaussian 09:  ES64L-G09RevD.01 24-Apr-2013

 --------------------
 #p B2PLYPD3/Def2QZVP
 --------------------

 ---------
 butadiene
 ---------
 Symbolic Z-matrix:
 Charge =  0 Multiplicity = 1

                         Standard orientation:
 ---------------------------------------------------------------------
 Center     Atomic      Atomic             Coordinates (Angstroms)
 Number     Number       Type             X           Y           Z
 ---------------------------------------------------------------------
      1          6           0       -1.831222    0.112620    0.022562
      2          6           0       -0.589685   -0.414319   -0.014028
      3          6           0        0.595739    0.401656   -0.033169
      4          6           0        1.826645   -0.108112    0.018759
      5          1           0       -2.740212   -0.508258    0.049517
      6          1           0       -2.003519    1.176092   -0.002347
      7          1           0       -0.440046   -1.495439   -0.067287
      8          1           0        0.483696    1.483449   -0.034734
      9          1           0        2.029759   -1.146035    0.016472
     10          1           0        2.661465    0.539120    0.073632
 ---------------------------------------------------------------------

 SCF Done:  E(RB2PLYPD3) =  -155.699354112     A.U. after   11 cycles
 E2(B2PLYPD3) =    -0.2258696816D+00 E(B2PLYPD3) =    -0.15592522379343D+03

 The electronic state is 1-A.
 Alpha  occ. eigenvalues --  -10.62748 -10.62331 -10.61840 -10.60847  -0.93143
 Alpha  occ. eigenvalues --   -0.84719  -0.70393  -0.64272  -0.54643  -0.54095
 Alpha  occ. eigenvalues --   -0.46384  -0.45780  -0.41529  -0.38155  -0.27390
 Alpha virt. eigenvalues --    0.01615   0.07033   0.07402   0.08060   0.09507
 Alpha virt. eigenvalues --    0.11689   0.12489   0.14855   0.15869   0.16212
 Alpha virt. eigenvalues --    0.18722   0.20510   0.21838   0.22890   0.23812

 Mulliken charges:
               1
     1  C   -0.175958
     2  C   -0.034820
     3  C   -0.023575
     4  C   -0.178932
     5  H    0.081619
     6  H    0.067327
     7  H    0.058412
     8  H    0.055551
     9  H    0.067647
    10  H    0.082729
 Sum of Mulliken charges =   0.00000

 Dipole moment (field-independent basis, Debye):
    X=              0.0285    Y=              0.0079    Z=             -0.0024  Tot=              0.0297
 Quadrupole moment (field-independent basis, Debye-Ang):
   XX=            -23.5381   YY=            -23.0105   ZZ=            -29.2616
   XY=             -0.2902   XZ=              0.1404   YZ=              0.0470

 1\1\GINC-NODE05\SP\RB2PLYPD3-FC\def2QZVP\C4H6\BOITTIER\26-Aug-2020\0\\
 #p B2PLYPD3/Def2QZVP\\butadiene\\0,1\C,0,-3.831421,0.233418,0.039847\C
 ,0,-2.707913,-0.513411,0.01996\C,0,-1.392781,0.07013,-0.01638\C,0,-0.2
 76402,-0.655641,0.051762\H,0,-4.838963,-0.209002,0.079865\H,0,-3.80542
 7,1.30947,-0.012252\H,0,-2.759569,-1.604613,-0.005705\H,0,-1.304149,1.
 153704,-0.045435\H,0,-0.26746,-1.712935,0.076117\H,0,0.663231,-0.17163
 4,0.092677\\Version=ES64L-G09RevD.01\State=1-A\HF=-155.6993541\MP2=-15
 5.9252238\RMSD=4.495e-09\PG=C01 [X(C4H6)]\\@

 Normal termination of Gaussian 09 at Wed Aug 26 17:27:40 2020.
