 Gaussian 09, Revision D.01,
 Gaussian 09:  ES64L-G09RevD.01 24-Apr-2013

 --------------------
 #p B2PLYPD3/Def2QZVP
 --------------------

 ---------
 butadiene
 ---------
 Symbolic Z-matrix:
 Charge =  0 Multiplicity = 1

                         Standard orientation:
 ---------------------------------------------------------------------
 Center     Atomic      Atomic             Coordinates (Angstroms)
 Number     Number       Type             X           Y           Z
 ---------------------------------------------------------------------
      1          6           0        1.870276    0.063906   -0.058933
      2          6           0        0.586205   -0.361291    0.031551
      3          6           0       -0.621245    0.449881    0.039989
      4          6           0       -1.844995   -0.130224   -0.008361
      5          1           0        2.725587   -0.565300    0.069366
      6          1           0        2.055102    1.122554   -0.172084
      7          1           0        0.323398   -1.422889    0.191454
      8          1           0       -0.443570    1.478990    0.239392
      9          1           0       -1.947283   -1.193198   -0.173871
     10          1           0       -2.654686    0.446209   -0.179733
 ---------------------------------------------------------------------

 SCF Done:  E(RB2PLYPD3) =  -155.687642054     A.U. after   11 cycles
 E2(B2PLYPD3) =    -0.2266992018D+00 E(B2PLYPD3) =    -0.15591434125584D+03

 The electronic state is 1-A.
 Alpha  occ. eigenvalues --  -10.62909 -10.62823 -10.61721 -10.61245  -0.92838
 Alpha  occ. eigenvalues --   -0.84629  -0.71302  -0.64184  -0.55347  -0.53302
 Alpha  occ. eigenvalues --   -0.47577  -0.46072  -0.41291  -0.37278  -0.27435
 Alpha virt. eigenvalues --    0.00950   0.07159   0.07450   0.08193   0.09168
 Alpha virt. eigenvalues --    0.11685   0.12625   0.14879   0.15340   0.16234
 Alpha virt. eigenvalues --    0.18781   0.19705   0.21745   0.23100   0.23521

 Mulliken charges:
               1
     1  C   -0.187859
     2  C   -0.024286
     3  C   -0.043143
     4  C   -0.168883
     5  H    0.093414
     6  H    0.062209
     7  H    0.050247
     8  H    0.067601
     9  H    0.063427
    10  H    0.087272
 Sum of Mulliken charges =   0.00000

 Dipole moment (field-independent basis, Debye):
    X=             -0.0694    Y=              0.0733    Z=              0.0107  Tot=              0.1015
 Quadrupole moment (field-independent basis, Debye-Ang):
   XX=            -23.4829   YY=            -23.3837   ZZ=            -29.1354
   XY=              0.3557   XZ=              0.7425   YZ=             -0.0635

 1\1\GINC-NODE24\SP\RB2PLYPD3-FC\def2QZVP\C4H6\BOITTIER\26-Aug-2020\0\\
 #p B2PLYPD3/Def2QZVP\\butadiene\\0,1\C,0,-3.879401,0.19773,0.067944\C,
 0,-2.697565,-0.463117,0.001892\C,0,-1.359685,0.107122,-0.028286\C,0,-0
 .266049,-0.689309,0.049703\H,0,-4.837352,-0.264842,-0.042847\H,0,-3.86
 2891,1.275751,0.140722\H,0,-2.638034,-1.560366,-0.116969\H,0,-1.341755
 ,1.14309,-0.266704\H,0,-0.364379,-1.745698,0.254991\H,0,0.637226,-0.26
 8398,0.205174\\Version=ES64L-G09RevD.01\State=1-A\HF=-155.6876421\MP2=
 -155.9143413\RMSD=8.816e-09\PG=C01 [X(C4H6)]\\@

 Normal termination of Gaussian 09 at Wed Aug 26 15:55:02 2020.
