 Gaussian 09, Revision D.01,
 Gaussian 09:  ES64L-G09RevD.01 24-Apr-2013

 --------------------
 #p B2PLYPD3/Def2QZVP
 --------------------

 ---------
 butadiene
 ---------
 Symbolic Z-matrix:
 Charge =  0 Multiplicity = 1

                         Standard orientation:
 ---------------------------------------------------------------------
 Center     Atomic      Atomic             Coordinates (Angstroms)
 Number     Number       Type             X           Y           Z
 ---------------------------------------------------------------------
      1          6           0        1.843071    0.100810    0.015061
      2          6           0        0.599766   -0.387531   -0.036785
      3          6           0       -0.602986    0.417118   -0.014124
      4          6           0       -1.837481   -0.120603    0.001678
      5          1           0        2.690234   -0.557751    0.062804
      6          1           0        2.036317    1.156490    0.015277
      7          1           0        0.485982   -1.470900    0.019548
      8          1           0       -0.488064    1.485930   -0.004712
      9          1           0       -2.038888   -1.166453    0.036337
     10          1           0       -2.699802    0.493918    0.075767
 ---------------------------------------------------------------------

 SCF Done:  E(RB2PLYPD3) =  -155.700115352     A.U. after   11 cycles
 E2(B2PLYPD3) =    -0.2256663395D+00 E(B2PLYPD3) =    -0.15592578169167D+03

 The electronic state is 1-A.
 Alpha  occ. eigenvalues --  -10.62657 -10.62440 -10.61295 -10.61266  -0.92957
 Alpha  occ. eigenvalues --   -0.84873  -0.70576  -0.64295  -0.54706  -0.54236
 Alpha  occ. eigenvalues --   -0.46676  -0.45726  -0.41447  -0.38077  -0.27492
 Alpha virt. eigenvalues --    0.01561   0.07028   0.07496   0.08083   0.09554
 Alpha virt. eigenvalues --    0.11668   0.12495   0.14870   0.15838   0.16307
 Alpha virt. eigenvalues --    0.18830   0.20366   0.21905   0.22962   0.23741

 Mulliken charges:
               1
     1  C   -0.179190
     2  C   -0.024176
     3  C   -0.039570
     4  C   -0.172133
     5  H    0.085196
     6  H    0.065773
     7  H    0.054825
     8  H    0.060116
     9  H    0.068165
    10  H    0.080993
 Sum of Mulliken charges =   0.00000

 Dipole moment (field-independent basis, Debye):
    X=             -0.0299    Y=              0.0013    Z=              0.1527  Tot=              0.1556
 Quadrupole moment (field-independent basis, Debye-Ang):
   XX=            -23.4273   YY=            -23.0335   ZZ=            -29.2400
   XY=              0.2339   XZ=             -0.0595   YZ=             -0.0669

 1\1\GINC-NODE37\SP\RB2PLYPD3-FC\def2QZVP\C4H6\BOITTIER\26-Aug-2020\0\\
 #p B2PLYPD3/Def2QZVP\\butadiene\\0,1\C,0,-3.846377,0.217235,0.001272\C
 ,0,-2.712173,-0.487305,0.065902\C,0,-1.383454,0.08497,0.026006\C,0,-0.
 26708,-0.668076,0.024142\H,0,-4.799118,-0.27757,-0.032185\H,0,-3.84485
 4,1.290166,-0.02366\H,0,-2.797035,-1.574339,0.034849\H,0,-1.302552,1.1
 56385,-0.008331\H,0,-0.2589,-1.733626,0.01399\H,0,0.692205,-0.222124,-
 0.063161\\Version=ES64L-G09RevD.01\State=1-A\HF=-155.7001154\MP2=-155.
 9257817\RMSD=5.368e-09\PG=C01 [X(C4H6)]\\@

 Normal termination of Gaussian 09 at Wed Aug 26 19:11:02 2020.
