 Gaussian 09, Revision D.01,
 Gaussian 09:  ES64L-G09RevD.01 24-Apr-2013

 --------------------
 #p B2PLYPD3/Def2QZVP
 --------------------

 ---------
 butadiene
 ---------
 Symbolic Z-matrix:
 Charge =  0 Multiplicity = 1

                         Standard orientation:
 ---------------------------------------------------------------------
 Center     Atomic      Atomic             Coordinates (Angstroms)
 Number     Number       Type             X           Y           Z
 ---------------------------------------------------------------------
      1          6           0        1.855857    0.144532    0.024453
      2          6           0        0.611194   -0.445163   -0.053611
      3          6           0       -0.596270    0.349758   -0.075747
      4          6           0       -1.841326   -0.099069    0.038555
      5          1           0        2.669037   -0.508706    0.015627
      6          1           0        1.964559    1.233659    0.300746
      7          1           0        0.475286   -1.523178   -0.043136
      8          1           0       -0.475367    1.473842   -0.138893
      9          1           0       -2.201622   -1.086314    0.219265
     10          1           0       -2.608628    0.710353    0.044490
 ---------------------------------------------------------------------

 SCF Done:  E(RB2PLYPD3) =  -155.686104612     A.U. after   11 cycles
 E2(B2PLYPD3) =    -0.2274121866D+00 E(B2PLYPD3) =    -0.15591351679811D+03

 The electronic state is 1-A.
 Alpha  occ. eigenvalues --  -10.63216 -10.62766 -10.62315 -10.61538  -0.92642
 Alpha  occ. eigenvalues --   -0.84493  -0.70362  -0.63407  -0.54846  -0.53003
 Alpha  occ. eigenvalues --   -0.46367  -0.45613  -0.40847  -0.37749  -0.27253
 Alpha virt. eigenvalues --    0.01012   0.06822   0.07316   0.07885   0.09430
 Alpha virt. eigenvalues --    0.11443   0.12254   0.15091   0.15654   0.16147
 Alpha virt. eigenvalues --    0.18752   0.20455   0.21160   0.21977   0.23954

 Mulliken charges:
               1
     1  C   -0.175758
     2  C   -0.057245
     3  C   -0.008346
     4  C   -0.178085
     5  H    0.088648
     6  H    0.075990
     7  H    0.062834
     8  H    0.046766
     9  H    0.074552
    10  H    0.070645
 Sum of Mulliken charges =   0.00000

 Dipole moment (field-independent basis, Debye):
    X=             -0.0158    Y=             -0.0985    Z=              0.3134  Tot=              0.3289
 Quadrupole moment (field-independent basis, Debye-Ang):
   XX=            -24.1170   YY=            -22.8949   ZZ=            -29.3452
   XY=              0.2694   XZ=              0.0400   YZ=              0.0769

 1\1\GINC-NODE03\SP\RB2PLYPD3-FC\def2QZVP\C4H6\BOITTIER\26-Aug-2020\0\\
 #p B2PLYPD3/Def2QZVP\\butadiene\\0,1\C,0,-3.846379,0.267415,-0.016518\
 C,0,-2.729223,-0.535014,0.088795\C,0,-1.397275,0.0273,0.080025\C,0,-0.
 255206,-0.644818,-0.012771\H,0,-4.764689,-0.226113,0.018051\H,0,-3.756
 846,1.345679,-0.338513\H,0,-2.791592,-1.619254,0.123866\H,0,-1.311481,
 1.156266,0.095676\H,0,-0.081386,-1.687777,-0.151134\H,0,0.646398,0.010
 615,-0.051102\\Version=ES64L-G09RevD.01\State=1-A\HF=-155.6861046\MP2=
 -155.9135168\RMSD=9.099e-09\PG=C01 [X(C4H6)]\\@

 Normal termination of Gaussian 09 at Wed Aug 26 12:35:44 2020.
