 Gaussian 09, Revision D.01,
 Gaussian 09:  ES64L-G09RevD.01 24-Apr-2013

 --------------------
 #p B2PLYPD3/Def2QZVP
 --------------------

 ---------
 butadiene
 ---------
 Symbolic Z-matrix:
 Charge =  0 Multiplicity = 1

                         Standard orientation:
 ---------------------------------------------------------------------
 Center     Atomic      Atomic             Coordinates (Angstroms)
 Number     Number       Type             X           Y           Z
 ---------------------------------------------------------------------
      1          6           0        1.845853    0.114250   -0.010043
      2          6           0        0.612917   -0.409724    0.011591
      3          6           0       -0.605009    0.377544    0.004194
      4          6           0       -1.844724   -0.097888   -0.010110
      5          1           0        2.752863   -0.487884   -0.067776
      6          1           0        1.968698    1.214356    0.074610
      7          1           0        0.480488   -1.482983    0.028398
      8          1           0       -0.493354    1.485562   -0.019088
      9          1           0       -2.032819   -1.154411    0.022987
     10          1           0       -2.730100    0.520271   -0.012923
 ---------------------------------------------------------------------

 SCF Done:  E(RB2PLYPD3) =  -155.699186426     A.U. after   11 cycles
 E2(B2PLYPD3) =    -0.2259384636D+00 E(B2PLYPD3) =    -0.15592512488909D+03

 The electronic state is 1-A.
 Alpha  occ. eigenvalues --  -10.62740 -10.62681 -10.62117 -10.61302  -0.92970
 Alpha  occ. eigenvalues --   -0.84942  -0.70164  -0.63766  -0.54802  -0.53668
 Alpha  occ. eigenvalues --   -0.47011  -0.45072  -0.40887  -0.38175  -0.27755
 Alpha virt. eigenvalues --    0.01623   0.06983   0.07382   0.07985   0.09702
 Alpha virt. eigenvalues --    0.11597   0.12489   0.14556   0.15858   0.16242
 Alpha virt. eigenvalues --    0.18840   0.20418   0.21666   0.22652   0.23659

 Mulliken charges:
               1
     1  C   -0.170185
     2  C   -0.037957
     3  C   -0.018884
     4  C   -0.174075
     5  H    0.088856
     6  H    0.063747
     7  H    0.055821
     8  H    0.046062
     9  H    0.060054
    10  H    0.086562
 Sum of Mulliken charges =   0.00000

 Dipole moment (field-independent basis, Debye):
    X=              0.0008    Y=             -0.0402    Z=              0.0379  Tot=              0.0553
 Quadrupole moment (field-independent basis, Debye-Ang):
   XX=            -23.1974   YY=            -23.3037   ZZ=            -29.2959
   XY=              0.0415   XZ=             -0.0563   YZ=              0.0463

 1\1\GINC-NODE09\SP\RB2PLYPD3-FC\def2QZVP\C4H6\BOITTIER\26-Aug-2020\0\\
 #p B2PLYPD3/Def2QZVP\\butadiene\\0,1\C,0,-3.846489,0.228123,0.028061\C
 ,0,-2.726796,-0.507692,0.024429\C,0,-1.388023,0.049667,0.009388\C,0,-0
 .252863,-0.638517,0.040193\H,0,-4.846066,-0.200597,0.102961\H,0,-3.771
 607,1.329393,-0.090635\H,0,-2.787869,-1.587369,0.0409\H,0,-1.300286,1.
 160024,-0.00165\H,0,-0.256244,-1.712157,0.039949\H,0,0.728527,-0.18832
 6,0.025283\\Version=ES64L-G09RevD.01\State=1-A\HF=-155.6991864\MP2=-15
 5.9251249\RMSD=5.519e-09\PG=C01 [X(C4H6)]\\@

 Normal termination of Gaussian 09 at Wed Aug 26 21:58:24 2020.
