 Gaussian 09, Revision D.01,
 Gaussian 09:  ES64L-G09RevD.01 24-Apr-2013

 --------------------
 #p B2PLYPD3/Def2QZVP
 --------------------

 ---------
 butadiene
 ---------
 Symbolic Z-matrix:
 Charge =  0 Multiplicity = 1

                         Standard orientation:
 ---------------------------------------------------------------------
 Center     Atomic      Atomic             Coordinates (Angstroms)
 Number     Number       Type             X           Y           Z
 ---------------------------------------------------------------------
      1          6           0       -1.861797   -0.111058   -0.007778
      2          6           0       -0.615851    0.387012   -0.001613
      3          6           0        0.618581   -0.417262    0.008315
      4          6           0        1.845435    0.121694   -0.014636
      5          1           0       -2.718957    0.532730    0.050966
      6          1           0       -2.046048   -1.138881   -0.136486
      7          1           0       -0.509631    1.456337    0.079551
      8          1           0        0.588433   -1.483318    0.166547
      9          1           0        1.982827    1.205497   -0.031014
     10          1           0        2.785166   -0.454681   -0.035293
 ---------------------------------------------------------------------

 SCF Done:  E(RB2PLYPD3) =  -155.697175110     A.U. after   11 cycles
 E2(B2PLYPD3) =    -0.2258717778D+00 E(B2PLYPD3) =    -0.15592304688817D+03

 The electronic state is 1-A.
 Alpha  occ. eigenvalues --  -10.62848 -10.62792 -10.61946 -10.61177  -0.92566
 Alpha  occ. eigenvalues --   -0.84945  -0.69979  -0.64330  -0.54382  -0.54258
 Alpha  occ. eigenvalues --   -0.46617  -0.45455  -0.41422  -0.37582  -0.27732
 Alpha virt. eigenvalues --    0.01655   0.07038   0.07607   0.07920   0.09323
 Alpha virt. eigenvalues --    0.11573   0.12539   0.14479   0.15727   0.16447
 Alpha virt. eigenvalues --    0.18928   0.20027   0.21797   0.22798   0.23730

 Mulliken charges:
               1
     1  C   -0.177182
     2  C   -0.037483
     3  C   -0.041373
     4  C   -0.168242
     5  H    0.084271
     6  H    0.072431
     7  H    0.060361
     8  H    0.065176
     9  H    0.059661
    10  H    0.082379
 Sum of Mulliken charges =   0.00000

 Dipole moment (field-independent basis, Debye):
    X=              0.0341    Y=             -0.0023    Z=              0.0839  Tot=              0.0906
 Quadrupole moment (field-independent basis, Debye-Ang):
   XX=            -23.1941   YY=            -23.2192   ZZ=            -29.2675
   XY=              0.0091   XZ=              0.0280   YZ=              0.0761

 1\1\GINC-NODE20\SP\RB2PLYPD3-FC\def2QZVP\C4H6\BOITTIER\26-Aug-2020\0\\
 #p B2PLYPD3/Def2QZVP\\butadiene\\0,1\C,0,-3.865589,0.21424,0.024876\C,
 0,-2.724525,-0.491721,0.034101\C,0,-1.369697,0.086423,0.003004\C,0,-0.
 254395,-0.65568,0.042459\H,0,-4.821343,-0.273038,-0.016748\H,0,-3.8689
 18,1.261619,0.12448\H,0,-2.805048,-1.565146,-0.016901\H,0,-1.215707,1.
 136813,-0.185118\H,0,-0.306354,-1.746034,0.089402\H,0,0.77089,-0.25011
 ,0.047997\\Version=ES64L-G09RevD.01\State=1-A\HF=-155.6971751\MP2=-155
 .9230469\RMSD=5.299e-09\PG=C01 [X(C4H6)]\\@

 Normal termination of Gaussian 09 at Wed Aug 26 09:59:58 2020.
