 Gaussian 09, Revision D.01,
 Gaussian 09:  ES64L-G09RevD.01 24-Apr-2013

 --------------------
 #p B2PLYPD3/Def2QZVP
 --------------------

 ---------
 butadiene
 ---------
 Symbolic Z-matrix:
 Charge =  0 Multiplicity = 1

                         Standard orientation:
 ---------------------------------------------------------------------
 Center     Atomic      Atomic             Coordinates (Angstroms)
 Number     Number       Type             X           Y           Z
 ---------------------------------------------------------------------
      1          6           0       -1.840833    0.106128   -0.019786
      2          6           0       -0.611052   -0.390404    0.015937
      3          6           0        0.611680    0.405423   -0.007969
      4          6           0        1.841287   -0.116049   -0.009194
      5          1           0       -2.746896   -0.524375    0.033548
      6          1           0       -2.007661    1.167725   -0.014502
      7          1           0       -0.462904   -1.449514    0.037381
      8          1           0        0.513012    1.473712    0.072403
      9          1           0        1.960161   -1.187325   -0.027600
     10          1           0        2.737799    0.489190    0.024842
 ---------------------------------------------------------------------

 SCF Done:  E(RB2PLYPD3) =  -155.700551988     A.U. after   11 cycles
 E2(B2PLYPD3) =    -0.2254266795D+00 E(B2PLYPD3) =    -0.15592597866740D+03

 The electronic state is 1-A.
 Alpha  occ. eigenvalues --  -10.62440 -10.62328 -10.61571 -10.61493  -0.93035
 Alpha  occ. eigenvalues --   -0.85046  -0.70026  -0.64402  -0.54616  -0.53973
 Alpha  occ. eigenvalues --   -0.47003  -0.45449  -0.41070  -0.38097  -0.27847
 Alpha virt. eigenvalues --    0.01818   0.06996   0.07515   0.08054   0.09626
 Alpha virt. eigenvalues --    0.11663   0.12527   0.14617   0.15759   0.16283
 Alpha virt. eigenvalues --    0.18843   0.20296   0.21788   0.22850   0.23772

 Mulliken charges:
               1
     1  C   -0.169985
     2  C   -0.033882
     3  C   -0.029366
     4  C   -0.176741
     5  H    0.082651
     6  H    0.064994
     7  H    0.056371
     8  H    0.055871
     9  H    0.062728
    10  H    0.087357
 Sum of Mulliken charges =   0.00000

 Dipole moment (field-independent basis, Debye):
    X=              0.0168    Y=              0.0110    Z=              0.1208  Tot=              0.1225
 Quadrupole moment (field-independent basis, Debye-Ang):
   XX=            -23.3230   YY=            -23.2077   ZZ=            -29.2245
   XY=             -0.0698   XZ=             -0.0127   YZ=              0.0668

 1\1\GINC-NODE22\SP\RB2PLYPD3-FC\def2QZVP\C4H6\BOITTIER\26-Aug-2020\0\\
 #p B2PLYPD3/Def2QZVP\\butadiene\\0,1\C,0,-3.8454,0.214388,0.002506\C,0
 ,-2.722809,-0.49097,0.051919\C,0,-1.378608,0.075081,0.010768\C,0,-0.26
 0705,-0.655666,0.023841\H,0,-4.848592,-0.244343,0.069585\H,0,-3.821703
 ,1.288572,-0.017874\H,0,-2.764376,-1.558764,0.098932\H,0,-1.286433,1.1
 45575,0.065395\H,0,-0.333348,-1.731198,0.031264\H,0,0.728859,-0.21802,
 0.044698\\Version=ES64L-G09RevD.01\State=1-A\HF=-155.700552\MP2=-155.9
 259787\RMSD=4.157e-09\PG=C01 [X(C4H6)]\\@

 Normal termination of Gaussian 09 at Wed Aug 26 21:01:44 2020.
