 Gaussian 09, Revision D.01,
 Gaussian 09:  ES64L-G09RevD.01 24-Apr-2013

 --------------------
 #p B2PLYPD3/Def2QZVP
 --------------------

 ---------
 butadiene
 ---------
 Symbolic Z-matrix:
 Charge =  0 Multiplicity = 1

                         Standard orientation:
 ---------------------------------------------------------------------
 Center     Atomic      Atomic             Coordinates (Angstroms)
 Number     Number       Type             X           Y           Z
 ---------------------------------------------------------------------
      1          6           0       -1.843830    0.083606   -0.026741
      2          6           0       -0.599184   -0.386924    0.025588
      3          6           0        0.599131    0.438065   -0.018279
      4          6           0        1.832238   -0.134718   -0.003166
      5          1           0       -2.697610   -0.550277    0.032376
      6          1           0       -2.013013    1.173500   -0.003603
      7          1           0       -0.487045   -1.416502    0.051759
      8          1           0        0.509001    1.519752    0.085761
      9          1           0        2.023286   -1.182784   -0.059388
     10          1           0        2.735249    0.456136    0.028688
 ---------------------------------------------------------------------

 SCF Done:  E(RB2PLYPD3) =  -155.696254811     A.U. after   11 cycles
 E2(B2PLYPD3) =    -0.2259469675D+00 E(B2PLYPD3) =    -0.15592220177821D+03

 The electronic state is 1-A.
 Alpha  occ. eigenvalues --  -10.63143 -10.61875 -10.61753 -10.61273  -0.92900
 Alpha  occ. eigenvalues --   -0.84686  -0.70269  -0.64708  -0.54939  -0.53804
 Alpha  occ. eigenvalues --   -0.46731  -0.45330  -0.41671  -0.37900  -0.27456
 Alpha virt. eigenvalues --    0.01553   0.07049   0.07507   0.08094   0.09326
 Alpha virt. eigenvalues --    0.11640   0.12516   0.14690   0.15759   0.16471
 Alpha virt. eigenvalues --    0.18850   0.20124   0.22023   0.22816   0.23820

 Mulliken charges:
               1
     1  C   -0.171319
     2  C   -0.033462
     3  C   -0.038749
     4  C   -0.175060
     5  H    0.084651
     6  H    0.057966
     7  H    0.063524
     8  H    0.064670
     9  H    0.069911
    10  H    0.077869
 Sum of Mulliken charges =   0.00000

 Dipole moment (field-independent basis, Debye):
    X=              0.0743    Y=             -0.0624    Z=              0.1306  Tot=              0.1627
 Quadrupole moment (field-independent basis, Debye-Ang):
   XX=            -23.4407   YY=            -23.0298   ZZ=            -29.2780
   XY=             -0.1537   XZ=             -0.0903   YZ=              0.1390

 1\1\GINC-NODE35\SP\RB2PLYPD3-FC\def2QZVP\C4H6\BOITTIER\26-Aug-2020\0\\
 #p B2PLYPD3/Def2QZVP\\butadiene\\0,1\C,0,-3.849245,0.2007,-0.00208\C,0
 ,-2.710168,-0.486272,0.059994\C,0,-1.38246,0.107288,0.001963\C,0,-0.27
 3327,-0.678824,0.028703\H,0,-4.803487,-0.267014,0.067974\H,0,-3.81835,
 1.303453,0.000813\H,0,-2.786128,-1.51849,0.10524\H,0,-1.275102,1.18914
 4,0.085964\H,0,-0.275231,-1.745009,-0.008021\H,0,0.721772,-0.260666,0.
 050441\\Version=ES64L-G09RevD.01\State=1-A\HF=-155.6962548\MP2=-155.92
 22018\RMSD=7.039e-09\PG=C01 [X(C4H6)]\\@

 Normal termination of Gaussian 09 at Wed Aug 26 08:15:16 2020.
