 Gaussian 09, Revision D.01,
 Gaussian 09:  ES64L-G09RevD.01 24-Apr-2013

 --------------------
 #p B2PLYPD3/Def2QZVP
 --------------------

 ---------
 butadiene
 ---------
 Symbolic Z-matrix:
 Charge =  0 Multiplicity = 1

                         Standard orientation:
 ---------------------------------------------------------------------
 Center     Atomic      Atomic             Coordinates (Angstroms)
 Number     Number       Type             X           Y           Z
 ---------------------------------------------------------------------
      1          6           0       -1.850011    0.106211   -0.013847
      2          6           0       -0.612978   -0.391791    0.003567
      3          6           0        0.605922    0.407954    0.029864
      4          6           0        1.853379   -0.107350   -0.026925
      5          1           0       -2.701115   -0.575130   -0.000461
      6          1           0       -2.049963    1.179066   -0.075654
      7          1           0       -0.437989   -1.467425    0.099262
      8          1           0        0.473112    1.482838    0.069198
      9          1           0        1.983172   -1.195364   -0.048907
     10          1           0        2.754908    0.485868    0.000605
 ---------------------------------------------------------------------

 SCF Done:  E(RB2PLYPD3) =  -155.699592242     A.U. after   11 cycles
 E2(B2PLYPD3) =    -0.2262496217D+00 E(B2PLYPD3) =    -0.15592584186398D+03

 The electronic state is 1-A.
 Alpha  occ. eigenvalues --  -10.62798 -10.62696 -10.61944 -10.61822  -0.92745
 Alpha  occ. eigenvalues --   -0.84677  -0.70157  -0.63882  -0.54524  -0.53586
 Alpha  occ. eigenvalues --   -0.46903  -0.45465  -0.40971  -0.37907  -0.27660
 Alpha virt. eigenvalues --    0.01526   0.07000   0.07367   0.08045   0.09532
 Alpha virt. eigenvalues --    0.11627   0.12369   0.14635   0.15711   0.16170
 Alpha virt. eigenvalues --    0.18839   0.20327   0.21572   0.22745   0.23637

 Mulliken charges:
               1
     1  C   -0.178218
     2  C   -0.027351
     3  C   -0.034250
     4  C   -0.173950
     5  H    0.086245
     6  H    0.070307
     7  H    0.054214
     8  H    0.054001
     9  H    0.059908
    10  H    0.089094
 Sum of Mulliken charges =   0.00000

 Dipole moment (field-independent basis, Debye):
    X=              0.0031    Y=              0.0166    Z=              0.0581  Tot=              0.0605
 Quadrupole moment (field-independent basis, Debye-Ang):
   XX=            -23.3934   YY=            -23.1847   ZZ=            -29.3656
   XY=             -0.1812   XZ=              0.0430   YZ=             -0.0851

 1\1\GINC-NODE29\SP\RB2PLYPD3-FC\def2QZVP\C4H6\BOITTIER\26-Aug-2020\0\\
 #p B2PLYPD3/Def2QZVP\\butadiene\\0,1\C,0,-3.852408,0.221448,0.004261\C
 ,0,-2.725533,-0.490793,0.042026\C,0,-1.382196,0.076169,0.043188\C,0,-0
 .248488,-0.657547,0.007426\H,0,-4.812461,-0.294149,0.039481\H,0,-3.855
 655,1.309955,-0.095544\H,0,-2.747204,-1.576343,0.175736\H,0,-1.318635,
 1.158075,0.04455\H,0,-0.317318,-1.751209,0.023859\H,0,0.745417,-0.2362
 49,0.016302\\Version=ES64L-G09RevD.01\State=1-A\HF=-155.6995922\MP2=-1
 55.9258419\RMSD=5.366e-09\PG=C01 [X(C4H6)]\\@

 Normal termination of Gaussian 09 at Wed Aug 26 22:08:16 2020.
