 Gaussian 09, Revision D.01,
 Gaussian 09:  ES64L-G09RevD.01 24-Apr-2013

 --------------------
 #p B2PLYPD3/Def2QZVP
 --------------------

 ---------
 butadiene
 ---------
 Symbolic Z-matrix:
 Charge =  0 Multiplicity = 1

                         Standard orientation:
 ---------------------------------------------------------------------
 Center     Atomic      Atomic             Coordinates (Angstroms)
 Number     Number       Type             X           Y           Z
 ---------------------------------------------------------------------
      1          6           0       -1.834147    0.099539   -0.022480
      2          6           0       -0.596578   -0.396713    0.039612
      3          6           0        0.600811    0.414600    0.018605
      4          6           0        1.830368   -0.116692   -0.019117
      5          1           0       -2.711923   -0.514404   -0.056196
      6          1           0       -2.040777    1.132493    0.010538
      7          1           0       -0.439097   -1.460072   -0.015517
      8          1           0        0.495284    1.509062   -0.000447
      9          1           0        2.014237   -1.186246   -0.002843
     10          1           0        2.679550    0.514767   -0.035256
 ---------------------------------------------------------------------

 SCF Done:  E(RB2PLYPD3) =  -155.699815444     A.U. after   11 cycles
 E2(B2PLYPD3) =    -0.2255210625D+00 E(B2PLYPD3) =    -0.15592533650626D+03

 The electronic state is 1-A.
 Alpha  occ. eigenvalues --  -10.62654 -10.62372 -10.61306 -10.61042  -0.93072
 Alpha  occ. eigenvalues --   -0.84922  -0.70578  -0.64241  -0.54946  -0.54052
 Alpha  occ. eigenvalues --   -0.46654  -0.45774  -0.41339  -0.38172  -0.27544
 Alpha virt. eigenvalues --    0.01690   0.07058   0.07439   0.08117   0.09529
 Alpha virt. eigenvalues --    0.11686   0.12543   0.14858   0.15849   0.16259
 Alpha virt. eigenvalues --    0.18799   0.20371   0.22008   0.23070   0.23691

 Mulliken charges:
               1
     1  C   -0.173979
     2  C   -0.029907
     3  C   -0.030847
     4  C   -0.177780
     5  H    0.081067
     6  H    0.066098
     7  H    0.059095
     8  H    0.054720
     9  H    0.066348
    10  H    0.085185
 Sum of Mulliken charges =   0.00000

 Dipole moment (field-independent basis, Debye):
    X=              0.0024    Y=              0.0196    Z=             -0.0453  Tot=              0.0494
 Quadrupole moment (field-independent basis, Debye-Ang):
   XX=            -23.3755   YY=            -23.0662   ZZ=            -29.2138
   XY=             -0.2977   XZ=              0.0568   YZ=              0.0574

 1\1\GINC-NODE27\SP\RB2PLYPD3-FC\def2QZVP\C4H6\BOITTIER\26-Aug-2020\0\\
 #p B2PLYPD3/Def2QZVP\\butadiene\\0,1\C,0,-3.8372,0.218494,-0.00612\C,0
 ,-2.711428,-0.494536,0.07085\C,0,-1.385659,0.082767,0.032553\C,0,-0.27
 4421,-0.665679,0.010582\H,0,-4.812722,-0.224776,-0.026676\H,0,-3.85089
 8,1.272316,0.001072\H,0,-2.751672,-1.569771,0.042192\H,0,-1.288815,1.1
 77225,-0.013597\H,0,-0.289692,-1.750088,0.053516\H,0,0.676085,-0.20117
 6,-0.019195\\Version=ES64L-G09RevD.01\State=1-A\HF=-155.6998154\MP2=-1
 55.9253365\RMSD=3.368e-09\PG=C01 [X(C4H6)]\\@

 Normal termination of Gaussian 09 at Wed Aug 26 21:43:56 2020.
