 Gaussian 09, Revision D.01,
 Gaussian 09:  ES64L-G09RevD.01 24-Apr-2013

 --------------------
 #p B2PLYPD3/Def2QZVP
 --------------------

 ---------
 butadiene
 ---------
 Symbolic Z-matrix:
 Charge =  0 Multiplicity = 1

                         Standard orientation:
 ---------------------------------------------------------------------
 Center     Atomic      Atomic             Coordinates (Angstroms)
 Number     Number       Type             X           Y           Z
 ---------------------------------------------------------------------
      1          6           0        1.843683   -0.109858    0.009169
      2          6           0        0.611419    0.392256   -0.021026
      3          6           0       -0.618005   -0.407584   -0.020280
      4          6           0       -1.844053    0.114554    0.014870
      5          1           0        2.695945    0.541428    0.053290
      6          1           0        2.052002   -1.162104    0.043582
      7          1           0        0.495120    1.458272   -0.006392
      8          1           0       -0.506840   -1.490504   -0.054151
      9          1           0       -1.964820    1.224121   -0.011407
     10          1           0       -2.729664   -0.507420    0.078676
 ---------------------------------------------------------------------

 SCF Done:  E(RB2PLYPD3) =  -155.700266568     A.U. after   11 cycles
 E2(B2PLYPD3) =    -0.2255564348D+00 E(B2PLYPD3) =    -0.15592582300296D+03

 The electronic state is 1-A.
 Alpha  occ. eigenvalues --  -10.62629 -10.62445 -10.61879 -10.61242  -0.92819
 Alpha  occ. eigenvalues --   -0.85048  -0.69923  -0.64024  -0.54608  -0.53880
 Alpha  occ. eigenvalues --   -0.46829  -0.45426  -0.41055  -0.37989  -0.27846
 Alpha virt. eigenvalues --    0.01880   0.06992   0.07426   0.08049   0.09583
 Alpha virt. eigenvalues --    0.11656   0.12393   0.14616   0.15832   0.16184
 Alpha virt. eigenvalues --    0.18813   0.20485   0.21504   0.22744   0.23930

 Mulliken charges:
               1
     1  C   -0.174233
     2  C   -0.031482
     3  C   -0.034196
     4  C   -0.173075
     5  H    0.082999
     6  H    0.067357
     7  H    0.056359
     8  H    0.055179
     9  H    0.061899
    10  H    0.089191
 Sum of Mulliken charges =   0.00000

 Dipole moment (field-independent basis, Debye):
    X=              0.0122    Y=             -0.0241    Z=              0.0679  Tot=              0.0731
 Quadrupole moment (field-independent basis, Debye-Ang):
   XX=            -23.4732   YY=            -23.0781   ZZ=            -29.2759
   XY=             -0.0388   XZ=              0.0608   YZ=             -0.0247

 1\1\GINC-NODE30\SP\RB2PLYPD3-FC\def2QZVP\C4H6\BOITTIER\26-Aug-2020\0\\
 #p B2PLYPD3/Def2QZVP\\butadiene\\0,1\C,0,-3.84825,0.218876,0.030499\C,
 0,-2.724463,-0.494154,0.016542\C,0,-1.372877,0.07504,-0.004919\C,0,-0.
 258484,-0.654678,0.047025\H,0,-4.802153,-0.269644,0.092852\H,0,-3.8668
 72,1.291931,0.033602\H,0,-2.798644,-1.563028,0.062765\H,0,-1.29073,1.1
 59071,-0.070864\H,0,-0.336145,-1.768383,0.053646\H,0,0.723495,-0.19774
 1,0.093455\\Version=ES64L-G09RevD.01\State=1-A\HF=-155.7002666\MP2=-15
 5.925823\RMSD=3.545e-09\PG=C01 [X(C4H6)]\\@

 Normal termination of Gaussian 09 at Wed Aug 26 16:19:34 2020.
