 Gaussian 09, Revision D.01,
 Gaussian 09:  ES64L-G09RevD.01 24-Apr-2013

 --------------------
 #p B2PLYPD3/Def2QZVP
 --------------------

 ---------
 butadiene
 ---------
 Symbolic Z-matrix:
 Charge =  0 Multiplicity = 1

                         Standard orientation:
 ---------------------------------------------------------------------
 Center     Atomic      Atomic             Coordinates (Angstroms)
 Number     Number       Type             X           Y           Z
 ---------------------------------------------------------------------
      1          6           0        1.845983   -0.109987    0.005110
      2          6           0        0.603641    0.405149   -0.015386
      3          6           0       -0.610937   -0.388618   -0.019768
      4          6           0       -1.847496    0.106326    0.014075
      5          1           0        2.783723    0.488747    0.064166
      6          1           0        1.990495   -1.200237    0.041086
      7          1           0        0.491700    1.488997   -0.014203
      8          1           0       -0.450720   -1.445882   -0.064757
      9          1           0       -2.053860    1.146864   -0.017735
     10          1           0       -2.708482   -0.555704    0.087262
 ---------------------------------------------------------------------

 SCF Done:  E(RB2PLYPD3) =  -155.698898266     A.U. after   11 cycles
 E2(B2PLYPD3) =    -0.2259996247D+00 E(B2PLYPD3) =    -0.15592489789028D+03

 The electronic state is 1-A.
 Alpha  occ. eigenvalues --  -10.62762 -10.62424 -10.62252 -10.61417  -0.92958
 Alpha  occ. eigenvalues --   -0.84749  -0.70183  -0.64227  -0.54469  -0.53843
 Alpha  occ. eigenvalues --   -0.46880  -0.45393  -0.41036  -0.38061  -0.27647
 Alpha virt. eigenvalues --    0.01545   0.06943   0.07466   0.08017   0.09609
 Alpha virt. eigenvalues --    0.11616   0.12463   0.14616   0.15848   0.16168
 Alpha virt. eigenvalues --    0.18845   0.20554   0.21642   0.22745   0.23539

 Mulliken charges:
               1
     1  C   -0.171028
     2  C   -0.032078
     3  C   -0.030503
     4  C   -0.176068
     5  H    0.084400
     6  H    0.058593
     7  H    0.054299
     8  H    0.058234
     9  H    0.070657
    10  H    0.083494
 Sum of Mulliken charges =   0.00000

 Dipole moment (field-independent basis, Debye):
    X=             -0.0132    Y=              0.0097    Z=              0.0625  Tot=              0.0646
 Quadrupole moment (field-independent basis, Debye-Ang):
   XX=            -23.2988   YY=            -23.2358   ZZ=            -29.3066
   XY=             -0.2024   XZ=              0.0837   YZ=             -0.0349

 1\1\GINC-NODE19\SP\RB2PLYPD3-FC\def2QZVP\C4H6\BOITTIER\26-Aug-2020\0\\
 #p B2PLYPD3/Def2QZVP\\butadiene\\0,1\C,0,-3.849049,0.226314,0.026706\C
 ,0,-2.719547,-0.504027,0.021492\C,0,-1.382161,0.058171,-0.003298\C,0,-
 0.254508,-0.649809,0.04525\H,0,-4.878854,-0.192366,0.101114\H,0,-3.795
 213,1.325353,0.032826\H,0,-2.804129,-1.589916,0.052311\H,0,-1.350017,1
 .125411,-0.077231\H,0,-0.238552,-1.710965,0.042003\H,0,0.71168,-0.1515
 28,0.101236\\Version=ES64L-G09RevD.01\State=1-A\HF=-155.6988983\MP2=-1
 55.9248979\RMSD=3.470e-09\PG=C01 [X(C4H6)]\\@

 Normal termination of Gaussian 09 at Wed Aug 26 21:59:08 2020.
