 Gaussian 09, Revision D.01,
 Gaussian 09:  ES64L-G09RevD.01 24-Apr-2013

 --------------------
 #p B2PLYPD3/Def2QZVP
 --------------------

 ---------
 butadiene
 ---------
 Symbolic Z-matrix:
 Charge =  0 Multiplicity = 1

                         Standard orientation:
 ---------------------------------------------------------------------
 Center     Atomic      Atomic             Coordinates (Angstroms)
 Number     Number       Type             X           Y           Z
 ---------------------------------------------------------------------
      1          6           0        1.863823   -0.117127    0.007271
      2          6           0        0.622076    0.419471   -0.055129
      3          6           0       -0.607398   -0.383137   -0.028608
      4          6           0       -1.861761    0.093215    0.018589
      5          1           0        2.764330    0.485298    0.127810
      6          1           0        1.901646   -1.223308    0.081397
      7          1           0        0.458080    1.524503    0.044310
      8          1           0       -0.431578   -1.454167   -0.031339
      9          1           0       -2.123094    1.155155    0.036352
     10          1           0       -2.669826   -0.562011    0.088729
 ---------------------------------------------------------------------

 SCF Done:  E(RB2PLYPD3) =  -155.694640591     A.U. after   11 cycles
 E2(B2PLYPD3) =    -0.2267734561D+00 E(B2PLYPD3) =    -0.15592141404693D+03

 The electronic state is 1-A.
 Alpha  occ. eigenvalues --  -10.63347 -10.62907 -10.62391 -10.61460  -0.92469
 Alpha  occ. eigenvalues --   -0.84663  -0.70311  -0.63514  -0.54810  -0.53250
 Alpha  occ. eigenvalues --   -0.47020  -0.45438  -0.40825  -0.37763  -0.27636
 Alpha virt. eigenvalues --    0.01349   0.07008   0.07274   0.08081   0.09368
 Alpha virt. eigenvalues --    0.11587   0.12434   0.14598   0.15611   0.16199
 Alpha virt. eigenvalues --    0.18833   0.20228   0.21614   0.22728   0.23901

 Mulliken charges:
               1
     1  C   -0.173014
     2  C   -0.028382
     3  C   -0.031733
     4  C   -0.175781
     5  H    0.093598
     6  H    0.060608
     7  H    0.050638
     8  H    0.050241
     9  H    0.066161
    10  H    0.087664
 Sum of Mulliken charges =   0.00000

 Dipole moment (field-independent basis, Debye):
    X=             -0.0356    Y=              0.0112    Z=              0.2676  Tot=              0.2702
 Quadrupole moment (field-independent basis, Debye-Ang):
   XX=            -23.3745   YY=            -23.2557   ZZ=            -29.4160
   XY=             -0.1316   XZ=              0.2786   YZ=              0.0636

 1\1\GINC-NODE28\SP\RB2PLYPD3-FC\def2QZVP\C4H6\BOITTIER\26-Aug-2020\0\\
 #p B2PLYPD3/Def2QZVP\\butadiene\\0,1\C,0,-3.861931,0.237656,0.035025\C
 ,0,-2.737714,-0.515899,-0.010329\C,0,-1.383509,0.052095,-0.009406\C,0,
 -0.235383,-0.641082,0.052865\H,0,-4.855613,-0.188305,0.174706\H,0,-3.6
 99188,1.334271,0.073927\H,0,-2.775144,-1.628724,0.124204\H,0,-1.363283
 ,1.136651,-0.046198\H,0,-0.169774,-1.731664,0.104388\H,0,0.678001,-0.1
 40566,0.102091\\Version=ES64L-G09RevD.01\State=1-A\HF=-155.6946406\MP2
 =-155.921414\RMSD=5.622e-09\PG=C01 [X(C4H6)]\\@

 Normal termination of Gaussian 09 at Wed Aug 26 09:14:31 2020.
