 Gaussian 09, Revision D.01,
 Gaussian 09:  ES64L-G09RevD.01 24-Apr-2013

 --------------------
 #p B2PLYPD3/Def2QZVP
 --------------------

 ---------
 butadiene
 ---------
 Symbolic Z-matrix:
 Charge =  0 Multiplicity = 1

                         Standard orientation:
 ---------------------------------------------------------------------
 Center     Atomic      Atomic             Coordinates (Angstroms)
 Number     Number       Type             X           Y           Z
 ---------------------------------------------------------------------
      1          6           0        1.839045    0.096192    0.008971
      2          6           0        0.598178   -0.377731   -0.014759
      3          6           0       -0.609551    0.403365   -0.034107
      4          6           0       -1.828784   -0.120101    0.021922
      5          1           0        2.706622   -0.516523    0.092072
      6          1           0        2.017219    1.142185    0.029920
      7          1           0        0.477140   -1.458555   -0.063877
      8          1           0       -0.487470    1.484100   -0.035887
      9          1           0       -2.004370   -1.178582    0.006529
     10          1           0       -2.702472    0.517026    0.079076
 ---------------------------------------------------------------------

 SCF Done:  E(RB2PLYPD3) =  -155.700640264     A.U. after   11 cycles
 E2(B2PLYPD3) =    -0.2251769354D+00 E(B2PLYPD3) =    -0.15592581719927D+03

 The electronic state is 1-A.
 Alpha  occ. eigenvalues --  -10.62379 -10.62230 -10.61401 -10.60922  -0.93325
 Alpha  occ. eigenvalues --   -0.85212  -0.70578  -0.64154  -0.54919  -0.54267
 Alpha  occ. eigenvalues --   -0.47026  -0.45528  -0.41127  -0.38319  -0.27741
 Alpha virt. eigenvalues --    0.01740   0.07019   0.07494   0.08063   0.09836
 Alpha virt. eigenvalues --    0.11680   0.12543   0.14836   0.15810   0.16279
 Alpha virt. eigenvalues --    0.18820   0.20414   0.21945   0.22726   0.23760

 Mulliken charges:
               1
     1  C   -0.176635
     2  C   -0.022048
     3  C   -0.032302
     4  C   -0.173118
     5  H    0.086217
     6  H    0.060508
     7  H    0.050539
     8  H    0.054134
     9  H    0.068926
    10  H    0.083779
 Sum of Mulliken charges =   0.00000

 Dipole moment (field-independent basis, Debye):
    X=             -0.0306    Y=              0.0047    Z=              0.0668  Tot=              0.0736
 Quadrupole moment (field-independent basis, Debye-Ang):
   XX=            -23.3020   YY=            -23.1985   ZZ=            -29.1232
   XY=              0.1585   XZ=              0.0695   YZ=              0.0606

 1\1\GINC-NODE15\SP\RB2PLYPD3-FC\def2QZVP\C4H6\BOITTIER\26-Aug-2020\0\\
 #p B2PLYPD3/Def2QZVP\\butadiene\\0,1\C,0,-3.84405,0.210882,0.006061\C,
 0,-2.708943,-0.478039,0.048937\C,0,-1.38007,0.072574,0.044889\C,0,-0.2
 75468,-0.663836,0.009674\H,0,-4.808212,-0.237723,-0.058447\H,0,-3.8307
 03,1.270544,-0.050714\H,0,-2.784669,-1.560684,0.134899\H,0,-1.305202,1
 .157036,0.009797\H,0,-0.293633,-1.735495,0.061312\H,0,0.698599,-0.1970
 67,-0.066802\\Version=ES64L-G09RevD.01\State=1-A\HF=-155.7006403\MP2=-
 155.9258172\RMSD=4.205e-09\PG=C01 [X(C4H6)]\\@

 Normal termination of Gaussian 09 at Wed Aug 26 16:19:18 2020.
