 Gaussian 09, Revision D.01,
 Gaussian 09:  ES64L-G09RevD.01 24-Apr-2013

 --------------------
 #p B2PLYPD3/Def2QZVP
 --------------------

 ---------
 butadiene
 ---------
 Symbolic Z-matrix:
 Charge =  0 Multiplicity = 1

                         Standard orientation:
 ---------------------------------------------------------------------
 Center     Atomic      Atomic             Coordinates (Angstroms)
 Number     Number       Type             X           Y           Z
 ---------------------------------------------------------------------
      1          6           0       -1.841467    0.102350    0.019432
      2          6           0       -0.610177   -0.377280   -0.009432
      3          6           0        0.609989    0.412709   -0.012668
      4          6           0        1.832274   -0.124749    0.002774
      5          1           0       -2.687497   -0.564523   -0.072939
      6          1           0       -2.011430    1.157740    0.070343
      7          1           0       -0.497573   -1.467752   -0.016654
      8          1           0        0.508182    1.487298   -0.055839
      9          1           0        2.035466   -1.199163    0.059557
     10          1           0        2.709144    0.508219    0.014898
 ---------------------------------------------------------------------

 SCF Done:  E(RB2PLYPD3) =  -155.700467420     A.U. after   11 cycles
 E2(B2PLYPD3) =    -0.2253901211D+00 E(B2PLYPD3) =    -0.15592585754147D+03

 The electronic state is 1-A.
 Alpha  occ. eigenvalues --  -10.62579 -10.62269 -10.61701 -10.61054  -0.93049
 Alpha  occ. eigenvalues --   -0.85157  -0.70079  -0.63950  -0.54567  -0.54161
 Alpha  occ. eigenvalues --   -0.46807  -0.45406  -0.41015  -0.38181  -0.27824
 Alpha virt. eigenvalues --    0.01848   0.06997   0.07440   0.08002   0.09733
 Alpha virt. eigenvalues --    0.11681   0.12366   0.14790   0.15798   0.16221
 Alpha virt. eigenvalues --    0.18821   0.20278   0.21756   0.22610   0.23922

 Mulliken charges:
               1
     1  C   -0.178750
     2  C   -0.019916
     3  C   -0.040854
     4  C   -0.170519
     5  H    0.087063
     6  H    0.065161
     7  H    0.050712
     8  H    0.057875
     9  H    0.067791
    10  H    0.081437
 Sum of Mulliken charges =   0.00000

 Dipole moment (field-independent basis, Debye):
    X=              0.0470    Y=              0.0078    Z=             -0.0113  Tot=              0.0490
 Quadrupole moment (field-independent basis, Debye-Ang):
   XX=            -23.5178   YY=            -23.0569   ZZ=            -29.2123
   XY=             -0.1199   XZ=              0.2335   YZ=              0.0222

 1\1\GINC-NODE26\SP\RB2PLYPD3-FC\def2QZVP\C4H6\BOITTIER\26-Aug-2020\0\\
 #p B2PLYPD3/Def2QZVP\\butadiene\\0,1\C,0,-3.845205,0.212929,0.034359\C
 ,0,-2.71912,-0.479012,0.024278\C,0,-1.377741,0.080527,0.001547\C,0,-0.
 270734,-0.665345,0.037462\H,0,-4.796683,-0.295058,-0.040865\H,0,-3.824
 328,1.282765,0.052872\H,0,-2.802605,-1.571813,0.050289\H,0,-1.286557,1
 .154259,-0.074317\H,0,-0.262098,-1.756553,0.127283\H,0,0.704897,-0.198
 626,0.033604\\Version=ES64L-G09RevD.01\State=1-A\HF=-155.7004674\MP2=-
 155.9258575\RMSD=5.189e-09\PG=C01 [X(C4H6)]\\@

 Normal termination of Gaussian 09 at Wed Aug 26 09:29:11 2020.
