 Gaussian 09, Revision D.01,
 Gaussian 09:  ES64L-G09RevD.01 24-Apr-2013

 --------------------
 #p B2PLYPD3/Def2QZVP
 --------------------

 ---------
 butadiene
 ---------
 Symbolic Z-matrix:
 Charge =  0 Multiplicity = 1

                         Standard orientation:
 ---------------------------------------------------------------------
 Center     Atomic      Atomic             Coordinates (Angstroms)
 Number     Number       Type             X           Y           Z
 ---------------------------------------------------------------------
      1          6           0        1.847833    0.106706    0.007190
      2          6           0        0.613845   -0.391902   -0.024707
      3          6           0       -0.617832    0.406568   -0.032036
      4          6           0       -1.844394   -0.122045    0.014182
      5          1           0        2.739441   -0.509038    0.068603
      6          1           0        2.021236    1.165919    0.055358
      7          1           0        0.477480   -1.469800    0.013574
      8          1           0       -0.536514    1.490500   -0.023985
      9          1           0       -1.975895   -1.175308   -0.001433
     10          1           0       -2.722455    0.501765    0.100105
 ---------------------------------------------------------------------

 SCF Done:  E(RB2PLYPD3) =  -155.700649732     A.U. after   11 cycles
 E2(B2PLYPD3) =    -0.2254811043D+00 E(B2PLYPD3) =    -0.15592613083637D+03

 The electronic state is 1-A.
 Alpha  occ. eigenvalues --  -10.62714 -10.62651 -10.61425 -10.61299  -0.92782
 Alpha  occ. eigenvalues --   -0.85088  -0.70088  -0.64181  -0.54623  -0.54090
 Alpha  occ. eigenvalues --   -0.46800  -0.45653  -0.41079  -0.37977  -0.27820
 Alpha virt. eigenvalues --    0.01810   0.07001   0.07506   0.08035   0.09556
 Alpha virt. eigenvalues --    0.11651   0.12530   0.14629   0.15892   0.16235
 Alpha virt. eigenvalues --    0.18878   0.20494   0.21652   0.22929   0.23726

 Mulliken charges:
               1
     1  C   -0.170619
     2  C   -0.034712
     3  C   -0.030282
     4  C   -0.176286
     5  H    0.084267
     6  H    0.064525
     7  H    0.054777
     8  H    0.055027
     9  H    0.067001
    10  H    0.086302
 Sum of Mulliken charges =   0.00000

 Dipole moment (field-independent basis, Debye):
    X=             -0.0127    Y=              0.0081    Z=              0.1559  Tot=              0.1566
 Quadrupole moment (field-independent basis, Debye-Ang):
   XX=            -23.3255   YY=            -23.1512   ZZ=            -29.2441
   XY=              0.0782   XZ=              0.0378   YZ=              0.0475

 1\1\GINC-NODE10\SP\RB2PLYPD3-FC\def2QZVP\C4H6\BOITTIER\26-Aug-2020\0\\
 #p B2PLYPD3/Def2QZVP\\butadiene\\0,1\C,0,-3.852704,0.214055,0.006136\C
 ,0,-2.725243,-0.492122,0.056133\C,0,-1.372562,0.077683,0.041576\C,0,-0
 .257928,-0.659118,0.014404\H,0,-4.838708,-0.23728,-0.038244\H,0,-3.837
 731,1.285272,-0.075052\H,0,-2.780237,-1.577884,0.051407\H,0,-1.262466,
 1.158299,-0.000072\H,0,-0.313214,-1.718128,0.062779\H,0,0.71568,-0.201
 998,-0.08876\\Version=ES64L-G09RevD.01\State=1-A\HF=-155.7006497\MP2=-
 155.9261308\RMSD=4.404e-09\PG=C01 [X(C4H6)]\\@

 Normal termination of Gaussian 09 at Wed Aug 26 18:32:01 2020.
