 Gaussian 09, Revision D.01,
 Gaussian 09:  ES64L-G09RevD.01 24-Apr-2013

 --------------------
 #p B2PLYPD3/Def2QZVP
 --------------------

 ---------
 butadiene
 ---------
 Symbolic Z-matrix:
 Charge =  0 Multiplicity = 1

                         Standard orientation:
 ---------------------------------------------------------------------
 Center     Atomic      Atomic             Coordinates (Angstroms)
 Number     Number       Type             X           Y           Z
 ---------------------------------------------------------------------
      1          6           0       -1.842647   -0.136211    0.045268
      2          6           0       -0.620319    0.428296   -0.053013
      3          6           0        0.617465   -0.370761   -0.019588
      4          6           0        1.850368    0.093507    0.018444
      5          1           0       -2.740705    0.431065    0.034558
      6          1           0       -2.007732   -1.177621   -0.047488
      7          1           0       -0.542418    1.505586    0.030138
      8          1           0        0.524308   -1.469030   -0.037058
      9          1           0        1.991447    1.163321   -0.006825
     10          1           0        2.745902   -0.542309    0.080011
 ---------------------------------------------------------------------

 SCF Done:  E(RB2PLYPD3) =  -155.696589814     A.U. after   11 cycles
 E2(B2PLYPD3) =    -0.2257152995D+00 E(B2PLYPD3) =    -0.15592230511361D+03

 The electronic state is 1-A.
 Alpha  occ. eigenvalues --  -10.63180 -10.62548 -10.61394 -10.61308  -0.92695
 Alpha  occ. eigenvalues --   -0.85154  -0.70135  -0.64011  -0.54598  -0.54101
 Alpha  occ. eigenvalues --   -0.46948  -0.45237  -0.40925  -0.37963  -0.27902
 Alpha virt. eigenvalues --    0.01738   0.07012   0.07522   0.07983   0.09440
 Alpha virt. eigenvalues --    0.11608   0.12592   0.14571   0.15674   0.16530
 Alpha virt. eigenvalues --    0.18861   0.19753   0.22183   0.22945   0.23799

 Mulliken charges:
               1
     1  C   -0.163495
     2  C   -0.050163
     3  C   -0.019399
     4  C   -0.174184
     5  H    0.079013
     6  H    0.067396
     7  H    0.062583
     8  H    0.050054
     9  H    0.059909
    10  H    0.088286
 Sum of Mulliken charges =   0.00000

 Dipole moment (field-independent basis, Debye):
    X=             -0.0682    Y=             -0.0112    Z=             -0.0068  Tot=              0.0694
 Quadrupole moment (field-independent basis, Debye-Ang):
   XX=            -23.1760   YY=            -23.2220   ZZ=            -29.2561
   XY=              0.0158   XZ=              0.1649   YZ=              0.1149

 1\1\GINC-NODE37\SP\RB2PLYPD3-FC\def2QZVP\C4H6\BOITTIER\26-Aug-2020\0\\
 #p B2PLYPD3/Def2QZVP\\butadiene\\0,1\C,0,-3.843509,0.23893,-0.024845\C
 ,0,-2.737215,-0.526648,0.086591\C,0,-1.379759,0.044614,0.034718\C,0,-0
 .246207,-0.627223,0.007552\H,0,-4.826285,-0.163573,-0.001036\H,0,-3.82
 5128,1.295034,0.043709\H,0,-2.847643,-1.602735,0.028466\H,0,-1.280978,
 1.142501,0.026692\H,0,-0.292689,-1.704429,0.057649\H,0,0.745768,-0.157
 961,-0.068691\\Version=ES64L-G09RevD.01\State=1-A\HF=-155.6965898\MP2=
 -155.9223051\RMSD=6.995e-09\PG=C01 [X(C4H6)]\\@

 Normal termination of Gaussian 09 at Wed Aug 26 09:14:14 2020.
