 Gaussian 09, Revision D.01,
 Gaussian 09:  ES64L-G09RevD.01 24-Apr-2013

 --------------------
 #p B2PLYPD3/Def2QZVP
 --------------------

 ---------
 butadiene
 ---------
 Symbolic Z-matrix:
 Charge =  0 Multiplicity = 1

                         Standard orientation:
 ---------------------------------------------------------------------
 Center     Atomic      Atomic             Coordinates (Angstroms)
 Number     Number       Type             X           Y           Z
 ---------------------------------------------------------------------
      1          6           0        1.850539   -0.139138   -0.036001
      2          6           0        0.623115    0.424365    0.045750
      3          6           0       -0.587993   -0.349304    0.034451
      4          6           0       -1.875237    0.058855   -0.084476
      5          1           0        2.660884    0.601750    0.018179
      6          1           0        2.011037   -1.258023   -0.184814
      7          1           0        0.410599    1.525868    0.176083
      8          1           0       -0.381920   -1.397175    0.160637
      9          1           0       -2.096355    1.134750   -0.170104
     10          1           0       -2.666791   -0.575836    0.241675
 ---------------------------------------------------------------------

 SCF Done:  E(RB2PLYPD3) =  -155.683883749     A.U. after   11 cycles
 E2(B2PLYPD3) =    -0.2279090211D+00 E(B2PLYPD3) =    -0.15591179276991D+03

 The electronic state is 1-A.
 Alpha  occ. eigenvalues --  -10.63320 -10.63122 -10.62432 -10.61695  -0.92870
 Alpha  occ. eigenvalues --   -0.84399  -0.70563  -0.63212  -0.54048  -0.53247
 Alpha  occ. eigenvalues --   -0.47057  -0.45463  -0.40538  -0.37608  -0.27451
 Alpha virt. eigenvalues --    0.00646   0.06960   0.07152   0.07938   0.09636
 Alpha virt. eigenvalues --    0.11640   0.12128   0.14811   0.15361   0.15985
 Alpha virt. eigenvalues --    0.19032   0.19350   0.21152   0.22107   0.23675

 Mulliken charges:
               1
     1  C   -0.177394
     2  C   -0.040171
     3  C   -0.018484
     4  C   -0.178237
     5  H    0.090478
     6  H    0.081799
     7  H    0.051232
     8  H    0.050259
     9  H    0.053491
    10  H    0.087026
 Sum of Mulliken charges =   0.00000

 Dipole moment (field-independent basis, Debye):
    X=              0.1841    Y=              0.0120    Z=              0.2663  Tot=              0.3240
 Quadrupole moment (field-independent basis, Debye-Ang):
   XX=            -24.1090   YY=            -23.2001   ZZ=            -29.3385
   XY=             -0.4385   XZ=             -0.7710   YZ=             -0.0735

 1\1\GINC-NODE31\SP\RB2PLYPD3-FC\def2QZVP\C4H6\BOITTIER\26-Aug-2020\0\\
 #p B2PLYPD3/Def2QZVP\\butadiene\\0,1\C,0,-3.842473,0.26471,-0.022905\C
 ,0,-2.741885,-0.514532,0.08789\C,0,-1.407583,0.018485,0.056174\C,0,-0.
 219266,-0.62696,-0.038905\H,0,-4.77693,-0.309323,0.053153\H,0,-3.79119
 3,1.387495,-0.214044\H,0,-2.73882,-1.630656,0.260271\H,0,-1.414264,1.0
 90392,0.142156\H,0,-0.203029,-1.727663,-0.083221\H,0,0.677,-0.139386,0
 .268898\\Version=ES64L-G09RevD.01\State=1-A\HF=-155.6838837\MP2=-155.9
 117928\RMSD=9.091e-09\PG=C01 [X(C4H6)]\\@

 Normal termination of Gaussian 09 at Wed Aug 26 13:39:55 2020.
