 Gaussian 09, Revision D.01,
 Gaussian 09:  ES64L-G09RevD.01 24-Apr-2013

 --------------------
 #p B2PLYPD3/Def2QZVP
 --------------------

 ---------
 butadiene
 ---------
 Symbolic Z-matrix:
 Charge =  0 Multiplicity = 1

                         Standard orientation:
 ---------------------------------------------------------------------
 Center     Atomic      Atomic             Coordinates (Angstroms)
 Number     Number       Type             X           Y           Z
 ---------------------------------------------------------------------
      1          6           0        1.866100    0.112735    0.065285
      2          6           0        0.615094   -0.392696   -0.053815
      3          6           0       -0.642661    0.413052   -0.042213
      4          6           0       -1.847928   -0.113414    0.050052
      5          1           0        2.683232   -0.530546   -0.055754
      6          1           0        2.129985    1.156639    0.041704
      7          1           0        0.509969   -1.468081   -0.159398
      8          1           0       -0.610893    1.512799   -0.013535
      9          1           0       -1.899598   -1.189817    0.221371
     10          1           0       -2.756327    0.400942   -0.150245
 ---------------------------------------------------------------------

 SCF Done:  E(RB2PLYPD3) =  -155.690857146     A.U. after   11 cycles
 E2(B2PLYPD3) =    -0.2259363711D+00 E(B2PLYPD3) =    -0.15591679351718D+03

 The electronic state is 1-A.
 Alpha  occ. eigenvalues --  -10.63433 -10.62744 -10.61400 -10.61128  -0.92396
 Alpha  occ. eigenvalues --   -0.85238  -0.70061  -0.63897  -0.54880  -0.53874
 Alpha  occ. eigenvalues --   -0.47212  -0.45265  -0.41203  -0.37188  -0.27905
 Alpha virt. eigenvalues --    0.01531   0.07046   0.07568   0.07985   0.09268
 Alpha virt. eigenvalues --    0.11585   0.12657   0.14436   0.15638   0.16476
 Alpha virt. eigenvalues --    0.19058   0.19988   0.21679   0.22373   0.23814

 Mulliken charges:
               1
     1  C   -0.164438
     2  C   -0.056462
     3  C   -0.027300
     4  C   -0.167714
     5  H    0.079132
     6  H    0.069306
     7  H    0.062859
     8  H    0.058571
     9  H    0.054242
    10  H    0.091805
 Sum of Mulliken charges =   0.00000

 Dipole moment (field-independent basis, Debye):
    X=             -0.0179    Y=              0.0157    Z=             -0.1795  Tot=              0.1811
 Quadrupole moment (field-independent basis, Debye-Ang):
   XX=            -23.2167   YY=            -23.2744   ZZ=            -29.1968
   XY=              0.0274   XZ=             -0.0769   YZ=             -0.0400

 1\1\GINC-NODE10\SP\RB2PLYPD3-FC\def2QZVP\C4H6\BOITTIER\26-Aug-2020\0\\
 #p B2PLYPD3/Def2QZVP\\butadiene\\0,1\C,0,-3.872678,0.213414,-0.042164\
 C,0,-2.726805,-0.496339,0.091584\C,0,-1.349269,0.080449,0.059611\C,0,-
 0.252849,-0.647754,-0.017411\H,0,-4.787815,-0.276279,0.095274\H,0,-3.9
 53012,1.287403,-0.046761\H,0,-2.807804,-1.570595,0.225992\H,0,-1.19153
 5,1.168115,0.001497\H,0,-0.3877,-1.721158,-0.159828\H,0,0.731204,-0.29
 2199,0.169907\\Version=ES64L-G09RevD.01\State=1-A\HF=-155.6908571\MP2=
 -155.9167935\RMSD=9.505e-09\PG=C01 [X(C4H6)]\\@

 Normal termination of Gaussian 09 at Wed Aug 26 13:43:53 2020.
