 Gaussian 09, Revision D.01,
 Gaussian 09:  ES64L-G09RevD.01 24-Apr-2013

 --------------------
 #p B2PLYPD3/Def2QZVP
 --------------------

 ---------
 butadiene
 ---------
 Symbolic Z-matrix:
 Charge =  0 Multiplicity = 1

                         Standard orientation:
 ---------------------------------------------------------------------
 Center     Atomic      Atomic             Coordinates (Angstroms)
 Number     Number       Type             X           Y           Z
 ---------------------------------------------------------------------
      1          6           0        1.839073   -0.142844    0.065504
      2          6           0        0.654540    0.439115   -0.102549
      3          6           0       -0.631592   -0.362660   -0.080920
      4          6           0       -1.865345    0.118505    0.101222
      5          1           0        2.882232    0.389283    0.299013
      6          1           0        1.816658   -1.314957   -0.072515
      7          1           0        0.596906    1.564023   -0.134984
      8          1           0       -0.548777   -1.439297   -0.062301
      9          1           0       -2.084230    1.141133    0.019218
     10          1           0       -2.642846   -0.652882    0.052021
 ---------------------------------------------------------------------

 SCF Done:  E(RB2PLYPD3) =  -155.673970142     A.U. after   12 cycles
 E2(B2PLYPD3) =    -0.2276191872D+00 E(B2PLYPD3) =    -0.15590158932922D+03

 The electronic state is 1-A.
 Alpha  occ. eigenvalues --  -10.63877 -10.63673 -10.63140 -10.61181  -0.92162
 Alpha  occ. eigenvalues --   -0.85018  -0.68291  -0.63293  -0.53848  -0.52923
 Alpha  occ. eigenvalues --   -0.46261  -0.44657  -0.40448  -0.37288  -0.28169
 Alpha virt. eigenvalues --    0.01955   0.06676   0.07243   0.07614   0.08965
 Alpha virt. eigenvalues --    0.11483   0.12196   0.14139   0.15746   0.16172
 Alpha virt. eigenvalues --    0.18469   0.19315   0.21018   0.22832   0.24377

 Mulliken charges:
               1
     1  C   -0.156426
     2  C   -0.045684
     3  C   -0.029443
     4  C   -0.171337
     5  H    0.087555
     6  H    0.054490
     7  H    0.056359
     8  H    0.053656
     9  H    0.074132
    10  H    0.076698
 Sum of Mulliken charges =   0.00000

 Dipole moment (field-independent basis, Debye):
    X=              0.0955    Y=              0.0415    Z=             -0.0460  Tot=              0.1139
 Quadrupole moment (field-independent basis, Debye-Ang):
   XX=            -23.8451   YY=            -23.1629   ZZ=            -29.4942
   XY=              0.3088   XZ=              0.6522   YZ=              0.1535

 1\1\GINC-NODE26\SP\RB2PLYPD3-FC\def2QZVP\C4H6\BOITTIER\26-Aug-2020\0\\
 #p B2PLYPD3/Def2QZVP\\butadiene\\0,1\C,0,-3.842072,0.232481,0.093869\C
 ,0,-2.769406,-0.538421,-0.06466\C,0,-1.369632,0.043027,-0.064534\C,0,-
 0.229704,-0.628991,0.124667\H,0,-4.956509,-0.117179,0.342135\H,0,-3.62
 9717,1.382001,-0.070173\H,0,-2.89619,-1.65809,-0.072308\H,0,-1.275652,
 1.118896,-0.069556\H,0,-0.181041,-1.675147,0.064728\H,0,0.662844,0.003
 961,0.056124\\Version=ES64L-G09RevD.01\State=1-A\HF=-155.6739701\MP2=-
 155.9015893\RMSD=3.506e-09\PG=C01 [X(C4H6)]\\@

 Normal termination of Gaussian 09 at Wed Aug 26 14:55:05 2020.
