 Gaussian 09, Revision D.01,
 Gaussian 09:  ES64L-G09RevD.01 24-Apr-2013

 --------------------
 #p B2PLYPD3/Def2QZVP
 --------------------

 ---------
 butadiene
 ---------
 Symbolic Z-matrix:
 Charge =  0 Multiplicity = 1

                         Standard orientation:
 ---------------------------------------------------------------------
 Center     Atomic      Atomic             Coordinates (Angstroms)
 Number     Number       Type             X           Y           Z
 ---------------------------------------------------------------------
      1          6           0        1.843028   -0.116015   -0.022487
      2          6           0        0.607612    0.411288    0.018883
      3          6           0       -0.609633   -0.384604    0.013650
      4          6           0       -1.841773    0.102879   -0.011985
      5          1           0        2.769274    0.457663   -0.037305
      6          1           0        1.978578   -1.186377    0.017050
      7          1           0        0.480575    1.487801    0.058388
      8          1           0       -0.490295   -1.444717    0.039608
      9          1           0       -2.013382    1.151846   -0.030539
     10          1           0       -2.720159   -0.547498   -0.035570
 ---------------------------------------------------------------------

 SCF Done:  E(RB2PLYPD3) =  -155.700434151     A.U. after   11 cycles
 E2(B2PLYPD3) =    -0.2255218381D+00 E(B2PLYPD3) =    -0.15592595598891D+03

 The electronic state is 1-A.
 Alpha  occ. eigenvalues --  -10.62777 -10.62165 -10.61780 -10.61251  -0.93028
 Alpha  occ. eigenvalues --   -0.84956  -0.70212  -0.64423  -0.54641  -0.54030
 Alpha  occ. eigenvalues --   -0.46942  -0.45491  -0.41186  -0.38083  -0.27732
 Alpha virt. eigenvalues --    0.01706   0.06984   0.07521   0.08058   0.09644
 Alpha virt. eigenvalues --    0.11632   0.12571   0.14630   0.15918   0.16214
 Alpha virt. eigenvalues --    0.18862   0.20593   0.21682   0.22736   0.23754

 Mulliken charges:
               1
     1  C   -0.170922
     2  C   -0.038397
     3  C   -0.023824
     4  C   -0.176160
     5  H    0.084885
     6  H    0.062471
     7  H    0.056016
     8  H    0.055987
     9  H    0.065556
    10  H    0.084389
 Sum of Mulliken charges =   0.00000

 Dipole moment (field-independent basis, Debye):
    X=              0.0150    Y=             -0.0078    Z=              0.0331  Tot=              0.0372
 Quadrupole moment (field-independent basis, Debye-Ang):
   XX=            -23.2408   YY=            -23.2234   ZZ=            -29.2370
   XY=             -0.1235   XZ=              0.0969   YZ=             -0.0348

 1\1\GINC-NODE01\SP\RB2PLYPD3-FC\def2QZVP\C4H6\BOITTIER\26-Aug-2020\0\\
 #p B2PLYPD3/Def2QZVP\\butadiene\\0,1\C,0,-3.844932,0.227928,-0.002283\
 C,0,-2.722983,-0.509586,0.05532\C,0,-1.383509,0.056311,0.028348\C,0,-0
 .257977,-0.643355,0.017829\H,0,-4.858577,-0.171796,-0.001469\H,0,-3.78
 7563,1.306002,0.006396\H,0,-2.78949,-1.58995,0.125819\H,0,-1.31207,1.1
 21031,0.023763\H,0,-0.275965,-1.706212,0.029542\H,0,0.722069,-0.160757
 ,-0.023618\\Version=ES64L-G09RevD.01\State=1-A\HF=-155.7004342\MP2=-15
 5.925956\RMSD=4.907e-09\PG=C01 [X(C4H6)]\\@

 Normal termination of Gaussian 09 at Wed Aug 26 21:51:35 2020.
