 Gaussian 09, Revision D.01,
 Gaussian 09:  ES64L-G09RevD.01 24-Apr-2013

 --------------------
 #p B2PLYPD3/Def2QZVP
 --------------------

 ---------
 butadiene
 ---------
 Symbolic Z-matrix:
 Charge =  0 Multiplicity = 1

                         Standard orientation:
 ---------------------------------------------------------------------
 Center     Atomic      Atomic             Coordinates (Angstroms)
 Number     Number       Type             X           Y           Z
 ---------------------------------------------------------------------
      1          6           0        1.834705    0.101958    0.019676
      2          6           0        0.605465   -0.384998   -0.022836
      3          6           0       -0.602398    0.405235   -0.018003
      4          6           0       -1.835852   -0.117291    0.011426
      5          1           0        2.673882   -0.552993    0.020412
      6          1           0        2.040106    1.149264   -0.007815
      7          1           0        0.472021   -1.463616   -0.029348
      8          1           0       -0.453205    1.500859    0.028051
      9          1           0       -2.006540   -1.177414    0.060287
     10          1           0       -2.737785    0.514475   -0.013169
 ---------------------------------------------------------------------

 SCF Done:  E(RB2PLYPD3) =  -155.700123528     A.U. after   11 cycles
 E2(B2PLYPD3) =    -0.2255456460D+00 E(B2PLYPD3) =    -0.15592566917359D+03

 The electronic state is 1-A.
 Alpha  occ. eigenvalues --  -10.62765 -10.62195 -10.61787 -10.60950  -0.93169
 Alpha  occ. eigenvalues --   -0.85024  -0.70386  -0.63944  -0.54722  -0.54019
 Alpha  occ. eigenvalues --   -0.46750  -0.45688  -0.40964  -0.38272  -0.27705
 Alpha virt. eigenvalues --    0.01702   0.07000   0.07402   0.08041   0.09734
 Alpha virt. eigenvalues --    0.11693   0.12441   0.14833   0.15797   0.16153
 Alpha virt. eigenvalues --    0.18777   0.20477   0.21816   0.22728   0.23784

 Mulliken charges:
               1
     1  C   -0.177140
     2  C   -0.022219
     3  C   -0.031731
     4  C   -0.175174
     5  H    0.084883
     6  H    0.066161
     7  H    0.050952
     8  H    0.052599
     9  H    0.067750
    10  H    0.083920
 Sum of Mulliken charges =   0.00000

 Dipole moment (field-independent basis, Debye):
    X=              0.0101    Y=             -0.0180    Z=              0.0240  Tot=              0.0316
 Quadrupole moment (field-independent basis, Debye-Ang):
   XX=            -23.4076   YY=            -23.1415   ZZ=            -29.2218
   XY=              0.2558   XZ=             -0.0700   YZ=             -0.0407

 1\1\GINC-NODE10\SP\RB2PLYPD3-FC\def2QZVP\C4H6\BOITTIER\26-Aug-2020\0\\
 #p B2PLYPD3/Def2QZVP\\butadiene\\0,1\C,0,-3.837826,0.217437,-0.000802\
 C,0,-2.71726,-0.483285,0.056531\C,0,-1.386034,0.074049,0.031226\C,0,-0
 .268064,-0.664372,0.017633\H,0,-4.781957,-0.274016,0.015613\H,0,-3.849
 571,1.284982,-0.002489\H,0,-2.781827,-1.567613,0.092992\H,0,-1.334022,
 1.176872,-0.045249\H,0,-0.292865,-1.738799,-0.001727\H,0,0.733665,-0.2
 06453,0.025779\\Version=ES64L-G09RevD.01\State=1-A\HF=-155.7001235\MP2
 =-155.9256692\RMSD=5.000e-09\PG=C01 [X(C4H6)]\\@

 Normal termination of Gaussian 09 at Wed Aug 26 12:47:12 2020.
