 Gaussian 09, Revision D.01,
 Gaussian 09:  ES64L-G09RevD.01 24-Apr-2013

 --------------------
 #p B2PLYPD3/Def2QZVP
 --------------------

 ---------
 butadiene
 ---------
 Symbolic Z-matrix:
 Charge =  0 Multiplicity = 1

                         Standard orientation:
 ---------------------------------------------------------------------
 Center     Atomic      Atomic             Coordinates (Angstroms)
 Number     Number       Type             X           Y           Z
 ---------------------------------------------------------------------
      1          6           0        1.838848    0.110606    0.023858
      2          6           0        0.610208   -0.383010   -0.020279
      3          6           0       -0.612609    0.409745   -0.020050
      4          6           0       -1.837304   -0.124678    0.017274
      5          1           0        2.643300   -0.582000   -0.055151
      6          1           0        2.029218    1.153922    0.089594
      7          1           0        0.511975   -1.463616   -0.037532
      8          1           0       -0.472113    1.495530   -0.065885
      9          1           0       -1.980712   -1.190186    0.073416
     10          1           0       -2.726525    0.510378   -0.009260
 ---------------------------------------------------------------------

 SCF Done:  E(RB2PLYPD3) =  -155.700215949     A.U. after   11 cycles
 E2(B2PLYPD3) =    -0.2253742222D+00 E(B2PLYPD3) =    -0.15592559017149D+03

 The electronic state is 1-A.
 Alpha  occ. eigenvalues --  -10.62676 -10.62183 -10.61641 -10.60829  -0.92995
 Alpha  occ. eigenvalues --   -0.85179  -0.70101  -0.63999  -0.54582  -0.54169
 Alpha  occ. eigenvalues --   -0.46559  -0.45974  -0.41087  -0.38060  -0.27788
 Alpha virt. eigenvalues --    0.01860   0.07009   0.07440   0.08034   0.09698
 Alpha virt. eigenvalues --    0.11749   0.12326   0.14852   0.15816   0.16079
 Alpha virt. eigenvalues --    0.18780   0.20432   0.21541   0.22607   0.24191

 Mulliken charges:
               1
     1  C   -0.181886
     2  C   -0.020989
     3  C   -0.037012
     4  C   -0.175088
     5  H    0.085860
     6  H    0.069351
     7  H    0.050296
     8  H    0.054216
     9  H    0.069742
    10  H    0.085512
 Sum of Mulliken charges =   0.00000

 Dipole moment (field-independent basis, Debye):
    X=             -0.0120    Y=             -0.0072    Z=             -0.0236  Tot=              0.0275
 Quadrupole moment (field-independent basis, Debye-Ang):
   XX=            -23.6733   YY=            -22.9717   ZZ=            -29.2109
   XY=              0.1221   XZ=             -0.0847   YZ=              0.0155

 1\1\GINC-NODE26\SP\RB2PLYPD3-FC\def2QZVP\C4H6\BOITTIER\26-Aug-2020\0\\
 #p B2PLYPD3/Def2QZVP\\butadiene\\0,1\C,0,-3.842581,0.21869,-0.003731\C
 ,0,-2.720997,-0.483925,0.055785\C,0,-1.37682,0.078635,0.034461\C,0,-0.
 266686,-0.665711,0.013702\H,0,-4.756952,-0.31747,0.093976\H,0,-3.84485
 6,1.276963,-0.099247\H,0,-2.816207,-1.563873,0.10379\H,0,-1.322033,1.1
 7296,0.049323\H,0,-0.315046,-1.740896,-0.012035\H,0,0.721296,-0.198255
 ,0.023224\\Version=ES64L-G09RevD.01\State=1-A\HF=-155.7002159\MP2=-155
 .9255902\RMSD=4.694e-09\PG=C01 [X(C4H6)]\\@

 Normal termination of Gaussian 09 at Wed Aug 26 14:21:56 2020.
