 Gaussian 09, Revision D.01,
 Gaussian 09:  ES64L-G09RevD.01 24-Apr-2013

 --------------------
 #p B2PLYPD3/Def2QZVP
 --------------------

 ---------
 butadiene
 ---------
 Symbolic Z-matrix:
 Charge =  0 Multiplicity = 1

                         Standard orientation:
 ---------------------------------------------------------------------
 Center     Atomic      Atomic             Coordinates (Angstroms)
 Number     Number       Type             X           Y           Z
 ---------------------------------------------------------------------
      1          6           0        1.830785    0.087705   -0.030044
      2          6           0        0.606378   -0.384820    0.014989
      3          6           0       -0.593583    0.444699    0.014323
      4          6           0       -1.824559   -0.142320   -0.011633
      5          1           0        2.717263   -0.505481    0.051118
      6          1           0        1.945586    1.167258   -0.050802
      7          1           0        0.468304   -1.454832    0.059874
      8          1           0       -0.541456    1.511526    0.092176
      9          1           0       -1.935596   -1.214964   -0.042580
     10          1           0       -2.768225    0.464918   -0.035595
 ---------------------------------------------------------------------

 SCF Done:  E(RB2PLYPD3) =  -155.696757644     A.U. after   11 cycles
 E2(B2PLYPD3) =    -0.2260261331D+00 E(B2PLYPD3) =    -0.15592278377755D+03

 The electronic state is 1-A.
 Alpha  occ. eigenvalues --  -10.62954 -10.62296 -10.62150 -10.60881  -0.93033
 Alpha  occ. eigenvalues --   -0.84740  -0.69596  -0.64502  -0.54598  -0.53929
 Alpha  occ. eigenvalues --   -0.46519  -0.45067  -0.41556  -0.38034  -0.27583
 Alpha virt. eigenvalues --    0.01803   0.07040   0.07441   0.07987   0.09372
 Alpha virt. eigenvalues --    0.11653   0.12565   0.14473   0.15819   0.16355
 Alpha virt. eigenvalues --    0.18735   0.20193   0.21666   0.22967   0.23908

 Mulliken charges:
               1
     1  C   -0.171491
     2  C   -0.021775
     3  C   -0.044843
     4  C   -0.175061
     5  H    0.087546
     6  H    0.056799
     7  H    0.055258
     8  H    0.065529
     9  H    0.069264
    10  H    0.078774
 Sum of Mulliken charges =   0.00000

 Dipole moment (field-independent basis, Debye):
    X=             -0.0211    Y=             -0.0121    Z=              0.0932  Tot=              0.0963
 Quadrupole moment (field-independent basis, Debye-Ang):
   XX=            -23.5935   YY=            -23.0459   ZZ=            -29.3014
   XY=             -0.0531   XZ=              0.2439   YZ=             -0.0014

 1\1\GINC-NODE26\SP\RB2PLYPD3-FC\def2QZVP\C4H6\BOITTIER\26-Aug-2020\0\\
 #p B2PLYPD3/Def2QZVP\\butadiene\\0,1\C,0,-3.836665,0.195354,0.043617\C
 ,0,-2.715153,-0.487317,0.018088\C,0,-1.38747,0.116668,-0.003515\C,0,-0
 .279576,-0.677515,0.045595\H,0,-4.814204,-0.234128,-0.02168\H,0,-3.758
 805,1.278304,0.029414\H,0,-2.768473,-1.565769,0.007955\H,0,-1.250383,1
 .172856,-0.115648\H,0,-0.359809,-1.751342,0.111242\H,0,0.756611,-0.246
 153,0.053475\\Version=ES64L-G09RevD.01\State=1-A\HF=-155.6967576\MP2=-
 155.9227838\RMSD=7.403e-09\PG=C01 [X(C4H6)]\\@

 Normal termination of Gaussian 09 at Wed Aug 26 10:43:26 2020.
