 Gaussian 09, Revision D.01,
 Gaussian 09:  ES64L-G09RevD.01 24-Apr-2013

 --------------------
 #p B2PLYPD3/Def2QZVP
 --------------------

 ---------
 butadiene
 ---------
 Symbolic Z-matrix:
 Charge =  0 Multiplicity = 1

                         Standard orientation:
 ---------------------------------------------------------------------
 Center     Atomic      Atomic             Coordinates (Angstroms)
 Number     Number       Type             X           Y           Z
 ---------------------------------------------------------------------
      1          6           0        1.839614    0.109058    0.029196
      2          6           0        0.602495   -0.386099   -0.058808
      3          6           0       -0.603279    0.417328   -0.022175
      4          6           0       -1.827161   -0.120982    0.016059
      5          1           0        2.612020   -0.618131    0.022131
      6          1           0        2.028267    1.160736    0.121763
      7          1           0        0.457467   -1.447250   -0.032208
      8          1           0       -0.531954    1.541245   -0.063178
      9          1           0       -1.939737   -1.203297    0.144987
     10          1           0       -2.696081    0.450874    0.020876
 ---------------------------------------------------------------------

 SCF Done:  E(RB2PLYPD3) =  -155.696196164     A.U. after   11 cycles
 E2(B2PLYPD3) =    -0.2257572421D+00 E(B2PLYPD3) =    -0.15592195340650D+03

 The electronic state is 1-A.
 Alpha  occ. eigenvalues --  -10.62814 -10.62236 -10.61134 -10.61113  -0.93045
 Alpha  occ. eigenvalues --   -0.85110  -0.70326  -0.63790  -0.54683  -0.54347
 Alpha  occ. eigenvalues --   -0.46517  -0.45638  -0.41421  -0.38065  -0.27579
 Alpha virt. eigenvalues --    0.01727   0.07086   0.07326   0.08067   0.09557
 Alpha virt. eigenvalues --    0.11731   0.12331   0.14820   0.15818   0.16221
 Alpha virt. eigenvalues --    0.18754   0.20305   0.21557   0.22790   0.24063

 Mulliken charges:
               1
     1  C   -0.180028
     2  C   -0.030421
     3  C   -0.026874
     4  C   -0.176529
     5  H    0.086264
     6  H    0.076551
     7  H    0.056244
     8  H    0.047472
     9  H    0.058793
    10  H    0.088527
 Sum of Mulliken charges =   0.00000

 Dipole moment (field-independent basis, Debye):
    X=             -0.0369    Y=             -0.0037    Z=              0.1525  Tot=              0.1570
 Quadrupole moment (field-independent basis, Debye-Ang):
   XX=            -23.7818   YY=            -22.9239   ZZ=            -29.2159
   XY=              0.0055   XZ=              0.0289   YZ=             -0.0797

 1\1\GINC-NODE03\SP\RB2PLYPD3-FC\def2QZVP\C4H6\BOITTIER\26-Aug-2020\0\\
 #p B2PLYPD3/Def2QZVP\\butadiene\\0,1\C,0,-3.8413,0.220028,-0.013326\C,
 0,-2.713061,-0.487459,0.086301\C,0,-1.382677,0.085533,0.036433\C,0,-0.
 275423,-0.664435,0.010646\H,0,-4.731722,-0.356366,0.006283\H,0,-3.8381
 9,1.286522,-0.126313\H,0,-2.760991,-1.557715,0.080247\H,0,-1.250946,1.
 204564,0.055816\H,0,-0.359253,-1.751636,-0.097369\H,0,0.682053,-0.2581
 08,-0.003576\\Version=ES64L-G09RevD.01\State=1-A\HF=-155.6961962\MP2=-
 155.9219534\RMSD=5.175e-09\PG=C01 [X(C4H6)]\\@

 Normal termination of Gaussian 09 at Wed Aug 26 09:29:33 2020.
