 Gaussian 09, Revision D.01,
 Gaussian 09:  ES64L-G09RevD.01 24-Apr-2013

 --------------------
 #p B2PLYPD3/Def2QZVP
 --------------------

 ---------
 butadiene
 ---------
 Symbolic Z-matrix:
 Charge =  0 Multiplicity = 1

                         Standard orientation:
 ---------------------------------------------------------------------
 Center     Atomic      Atomic             Coordinates (Angstroms)
 Number     Number       Type             X           Y           Z
 ---------------------------------------------------------------------
      1          6           0       -1.877217    0.098945    0.050231
      2          6           0       -0.608513   -0.407673   -0.042434
      3          6           0        0.630376    0.391483   -0.086591
      4          6           0        1.879209   -0.125833   -0.001062
      5          1           0       -2.859437   -0.475883    0.030136
      6          1           0       -1.914380    1.226323    0.055367
      7          1           0       -0.478377   -1.410828    0.021867
      8          1           0        0.375828    1.430611   -0.009215
      9          1           0        2.056923   -1.143114    0.102049
     10          1           0        2.676321    0.631363    0.278932
 ---------------------------------------------------------------------

 SCF Done:  E(RB2PLYPD3) =  -155.677877117     A.U. after   12 cycles
 E2(B2PLYPD3) =    -0.2278232796D+00 E(B2PLYPD3) =    -0.15590570039702D+03

 The electronic state is 1-A.
 Alpha  occ. eigenvalues --  -10.63281 -10.63196 -10.62413 -10.62230  -0.92532
 Alpha  occ. eigenvalues --   -0.84258  -0.70019  -0.65089  -0.54229  -0.53140
 Alpha  occ. eigenvalues --   -0.47287  -0.45116  -0.40860  -0.37512  -0.27471
 Alpha virt. eigenvalues --    0.00812   0.06785   0.07472   0.08098   0.09093
 Alpha virt. eigenvalues --    0.11670   0.12390   0.14476   0.15674   0.16056
 Alpha virt. eigenvalues --    0.18587   0.19773   0.21628   0.22897   0.24007

 Mulliken charges:
               1
     1  C   -0.175488
     2  C   -0.035512
     3  C   -0.032683
     4  C   -0.171433
     5  H    0.092732
     6  H    0.048795
     7  H    0.060990
     8  H    0.057601
     9  H    0.077433
    10  H    0.077565
 Sum of Mulliken charges =   0.00000

 Dipole moment (field-independent basis, Debye):
    X=             -0.0775    Y=             -0.0885    Z=              0.3461  Tot=              0.3655
 Quadrupole moment (field-independent basis, Debye-Ang):
   XX=            -23.7853   YY=            -23.3213   ZZ=            -29.4357
   XY=             -0.1192   XZ=              0.8618   YZ=              0.1111

 1\1\GINC-NODE22\SP\RB2PLYPD3-FC\def2QZVP\C4H6\BOITTIER\26-Aug-2020\0\\
 #p B2PLYPD3/Def2QZVP\\butadiene\\0,1\C,0,-3.884422,0.220628,0.067059\C
 ,0,-2.725131,-0.504406,-0.005244\C,0,-1.364102,0.061726,-0.055656\C,0,
 -0.227023,-0.666525,0.050251\H,0,-4.952834,-0.171567,0.050749\H,0,-3.7
 2133,1.336634,0.049131\H,0,-2.775014,-1.513156,0.080336\H,0,-1.430895,
 1.13091,-0.00131\H,0,-0.232748,-1.69677,0.175297\H,0,0.690403,-0.05658
 6,0.321241\\Version=ES64L-G09RevD.01\State=1-A\HF=-155.6778771\MP2=-15
 5.9057004\RMSD=4.143e-09\PG=C01 [X(C4H6)]\\@

 Normal termination of Gaussian 09 at Wed Aug 26 16:01:14 2020.
