 Gaussian 09, Revision D.01,
 Gaussian 09:  ES64L-G09RevD.01 24-Apr-2013

 --------------------
 #p B2PLYPD3/Def2QZVP
 --------------------

 ---------
 butadiene
 ---------
 Symbolic Z-matrix:
 Charge =  0 Multiplicity = 1

                         Standard orientation:
 ---------------------------------------------------------------------
 Center     Atomic      Atomic             Coordinates (Angstroms)
 Number     Number       Type             X           Y           Z
 ---------------------------------------------------------------------
      1          6           0       -1.834334   -0.119581   -0.021320
      2          6           0       -0.607378    0.394769    0.008797
      3          6           0        0.604798   -0.383537    0.017255
      4          6           0        1.846278    0.103641   -0.005222
      5          1           0       -2.726322    0.509034    0.064557
      6          1           0       -1.999542   -1.165473   -0.027420
      7          1           0       -0.537764    1.488878   -0.003556
      8          1           0        0.467499   -1.429912    0.012593
      9          1           0        2.026290    1.171552   -0.033941
     10          1           0        2.713651   -0.545822   -0.009289
 ---------------------------------------------------------------------

 SCF Done:  E(RB2PLYPD3) =  -155.699950564     A.U. after   11 cycles
 E2(B2PLYPD3) =    -0.2254033020D+00 E(B2PLYPD3) =    -0.15592535386598D+03

 The electronic state is 1-A.
 Alpha  occ. eigenvalues --  -10.62432 -10.62118 -10.61551 -10.61313  -0.93245
 Alpha  occ. eigenvalues --   -0.85088  -0.70379  -0.64344  -0.54649  -0.54266
 Alpha  occ. eigenvalues --   -0.46720  -0.45615  -0.41213  -0.38279  -0.27703
 Alpha virt. eigenvalues --    0.01628   0.06970   0.07561   0.08005   0.09831
 Alpha virt. eigenvalues --    0.11691   0.12463   0.14772   0.15879   0.16189
 Alpha virt. eigenvalues --    0.18866   0.20437   0.21682   0.22670   0.23851

 Mulliken charges:
               1
     1  C   -0.174318
     2  C   -0.023380
     3  C   -0.035895
     4  C   -0.174721
     5  H    0.082204
     6  H    0.063833
     7  H    0.051519
     8  H    0.057909
     9  H    0.066718
    10  H    0.086131
 Sum of Mulliken charges =   0.00000

 Dipole moment (field-independent basis, Debye):
    X=             -0.0154    Y=             -0.0300    Z=              0.0201  Tot=              0.0393
 Quadrupole moment (field-independent basis, Debye-Ang):
   XX=            -23.3585   YY=            -23.1684   ZZ=            -29.1901
   XY=              0.0722   XZ=             -0.2443   YZ=              0.0215

 1\1\GINC-NODE35\SP\RB2PLYPD3-FC\def2QZVP\C4H6\BOITTIER\26-Aug-2020\0\\
 #p B2PLYPD3/Def2QZVP\\butadiene\\0,1\C,0,-3.837051,0.229017,0.035764\C
 ,0,-2.721226,-0.496037,0.024982\C,0,-1.389933,0.053654,-0.001481\C,0,-
 0.254901,-0.64573,0.039579\H,0,-4.826777,-0.233128,-0.035214\H,0,-3.81
 3536,1.287345,0.011097\H,0,-2.84736,-1.584253,0.069134\H,0,-1.338871,1
 .107451,-0.027497\H,0,-0.267713,-1.72734,0.099739\H,0,0.714187,-0.1610
 75,0.02809\\Version=ES64L-G09RevD.01\State=1-A\HF=-155.6999506\MP2=-15
 5.9253539\RMSD=2.821e-09\PG=C01 [X(C4H6)]\\@

 Normal termination of Gaussian 09 at Wed Aug 26 17:34:53 2020.
