 Gaussian 09, Revision D.01,
 Gaussian 09:  ES64L-G09RevD.01 24-Apr-2013

 --------------------
 #p B2PLYPD3/Def2QZVP
 --------------------

 ---------
 butadiene
 ---------
 Symbolic Z-matrix:
 Charge =  0 Multiplicity = 1

                         Standard orientation:
 ---------------------------------------------------------------------
 Center     Atomic      Atomic             Coordinates (Angstroms)
 Number     Number       Type             X           Y           Z
 ---------------------------------------------------------------------
      1          6           0       -1.837688   -0.119075    0.013219
      2          6           0       -0.608219    0.423903   -0.016236
      3          6           0        0.599795   -0.397003   -0.022156
      4          6           0        1.850837    0.097004    0.005517
      5          1           0       -2.731593    0.487581    0.089913
      6          1           0       -1.987186   -1.196178   -0.033468
      7          1           0       -0.507844    1.496112   -0.046804
      8          1           0        0.434966   -1.445751    0.007173
      9          1           0        2.042816    1.155293    0.026447
     10          1           0        2.720494   -0.526026    0.074673
 ---------------------------------------------------------------------

 SCF Done:  E(RB2PLYPD3) =  -155.700111863     A.U. after   11 cycles
 E2(B2PLYPD3) =    -0.2258959846D+00 E(B2PLYPD3) =    -0.15592600784756D+03

 The electronic state is 1-A.
 Alpha  occ. eigenvalues --  -10.62685 -10.62541 -10.61744 -10.61455  -0.92781
 Alpha  occ. eigenvalues --   -0.84657  -0.70246  -0.64548  -0.54650  -0.53853
 Alpha  occ. eigenvalues --   -0.46725  -0.45712  -0.41479  -0.37863  -0.27492
 Alpha virt. eigenvalues --    0.01587   0.07013   0.07477   0.08144   0.09358
 Alpha virt. eigenvalues --    0.11649   0.12534   0.14653   0.15859   0.16272
 Alpha virt. eigenvalues --    0.18854   0.20502   0.21704   0.23070   0.23638

 Mulliken charges:
               1
     1  C   -0.175285
     2  C   -0.033757
     3  C   -0.035716
     4  C   -0.175199
     5  H    0.084097
     6  H    0.064694
     7  H    0.060592
     8  H    0.061065
     9  H    0.065159
    10  H    0.084352
 Sum of Mulliken charges =   0.00000

 Dipole moment (field-independent basis, Debye):
    X=             -0.0314    Y=              0.0093    Z=              0.0812  Tot=              0.0875
 Quadrupole moment (field-independent basis, Debye-Ang):
   XX=            -23.3909   YY=            -23.0890   ZZ=            -29.3041
   XY=              0.2136   XZ=              0.1154   YZ=              0.0095

 1\1\GINC-NODE35\SP\RB2PLYPD3-FC\def2QZVP\C4H6\BOITTIER\26-Aug-2020\0\\
 #p B2PLYPD3/Def2QZVP\\butadiene\\0,1\C,0,-3.838237,0.234884,0.004118\C
 ,0,-2.727298,-0.520685,0.051202\C,0,-1.390585,0.06761,0.033063\C,0,-0.
 24983,-0.645454,0.021567\H,0,-4.827572,-0.201842,-0.054764\H,0,-3.7899
 91,1.322159,0.01774\H,0,-2.822605,-1.591917,0.114607\H,0,-1.362909,1.1
 27493,-0.028442\H,0,-0.252769,-1.721153,0.033152\H,0,0.717938,-0.19264
 6,-0.065854\\Version=ES64L-G09RevD.01\State=1-A\HF=-155.7001119\MP2=-1
 55.9260078\RMSD=2.472e-09\PG=C01 [X(C4H6)]\\@

 Normal termination of Gaussian 09 at Wed Aug 26 17:55:25 2020.
