 Gaussian 09, Revision D.01,
 Gaussian 09:  ES64L-G09RevD.01 24-Apr-2013

 --------------------
 #p B2PLYPD3/Def2QZVP
 --------------------

 ---------
 butadiene
 ---------
 Symbolic Z-matrix:
 Charge =  0 Multiplicity = 1

                         Standard orientation:
 ---------------------------------------------------------------------
 Center     Atomic      Atomic             Coordinates (Angstroms)
 Number     Number       Type             X           Y           Z
 ---------------------------------------------------------------------
      1          6           0       -1.831305   -0.111367    0.019015
      2          6           0       -0.594955    0.371167   -0.044452
      3          6           0        0.619850   -0.412117   -0.060180
      4          6           0        1.820630    0.122696    0.033172
      5          1           0       -2.639442    0.599793    0.097234
      6          1           0       -2.026921   -1.126268    0.120705
      7          1           0       -0.503210    1.423230   -0.009444
      8          1           0        0.470757   -1.460224   -0.058548
      9          1           0        1.894483    1.234371    0.014635
     10          1           0        2.719015   -0.493179    0.150087
 ---------------------------------------------------------------------

 SCF Done:  E(RB2PLYPD3) =  -155.696487481     A.U. after   11 cycles
 E2(B2PLYPD3) =    -0.2249922540D+00 E(B2PLYPD3) =    -0.15592147973512D+03

 The electronic state is 1-A.
 Alpha  occ. eigenvalues --  -10.61901 -10.61771 -10.61733 -10.60678  -0.93520
 Alpha  occ. eigenvalues --   -0.85361  -0.70062  -0.64696  -0.54819  -0.54155
 Alpha  occ. eigenvalues --   -0.46633  -0.45912  -0.41239  -0.38361  -0.27829
 Alpha virt. eigenvalues --    0.01982   0.06970   0.07556   0.08091   0.09767
 Alpha virt. eigenvalues --    0.11823   0.12404   0.14805   0.15825   0.16099
 Alpha virt. eigenvalues --    0.18592   0.20382   0.21526   0.22701   0.24589

 Mulliken charges:
               1
     1  C   -0.183191
     2  C   -0.018682
     3  C   -0.036818
     4  C   -0.170218
     5  H    0.080254
     6  H    0.068626
     7  H    0.051213
     8  H    0.057337
     9  H    0.063762
    10  H    0.087715
 Sum of Mulliken charges =   0.00000

 Dipole moment (field-independent basis, Debye):
    X=              0.0465    Y=             -0.0340    Z=              0.2223  Tot=              0.2297
 Quadrupole moment (field-independent basis, Debye-Ang):
   XX=            -23.8291   YY=            -23.0139   ZZ=            -29.0578
   XY=             -0.0552   XZ=             -0.0748   YZ=             -0.1015

 1\1\GINC-NODE11\SP\RB2PLYPD3-FC\def2QZVP\C4H6\BOITTIER\26-Aug-2020\0\\
 #p B2PLYPD3/Def2QZVP\\butadiene\\0,1\C,0,-3.837059,0.216102,-0.008355\
 C,0,-2.705835,-0.476058,0.073345\C,0,-1.371233,0.079227,0.068117\C,0,-
 0.284739,-0.66289,-0.005406\H,0,-4.758828,-0.342367,-0.06672\H,0,-3.84
 9684,1.245972,-0.141917\H,0,-2.802416,-1.528268,0.071145\H,0,-1.331895
 ,1.136594,0.033662\H,0,-0.409358,-1.768904,0.047708\H,0,0.708375,-0.22
 0201,-0.138889\\Version=ES64L-G09RevD.01\State=1-A\HF=-155.6964875\MP2
 =-155.9214797\RMSD=5.630e-09\PG=C01 [X(C4H6)]\\@

 Normal termination of Gaussian 09 at Wed Aug 26 09:51:25 2020.
