 Gaussian 09, Revision D.01,
 Gaussian 09:  ES64L-G09RevD.01 24-Apr-2013

 --------------------
 #p B2PLYPD3/Def2QZVP
 --------------------

 ---------
 butadiene
 ---------
 Symbolic Z-matrix:
 Charge =  0 Multiplicity = 1

                         Standard orientation:
 ---------------------------------------------------------------------
 Center     Atomic      Atomic             Coordinates (Angstroms)
 Number     Number       Type             X           Y           Z
 ---------------------------------------------------------------------
      1          6           0        1.824203   -0.126209    0.040814
      2          6           0        0.595402    0.422710   -0.046943
      3          6           0       -0.591058   -0.362730   -0.030811
      4          6           0       -1.837347    0.081466    0.023903
      5          1           0        2.712161    0.437054    0.052771
      6          1           0        1.989196   -1.180687    0.048424
      7          1           0        0.514514    1.484568   -0.136987
      8          1           0       -0.479210   -1.453383   -0.055573
      9          1           0       -1.967365    1.165330    0.187317
     10          1           0       -2.716493   -0.544301   -0.017724
 ---------------------------------------------------------------------

 SCF Done:  E(RB2PLYPD3) =  -155.696747916     A.U. after   11 cycles
 E2(B2PLYPD3) =    -0.2257436622D+00 E(B2PLYPD3) =    -0.15592249157782D+03

 The electronic state is 1-A.
 Alpha  occ. eigenvalues --  -10.62511 -10.62091 -10.61392 -10.61332  -0.93466
 Alpha  occ. eigenvalues --   -0.84982  -0.70751  -0.64128  -0.55145  -0.54089
 Alpha  occ. eigenvalues --   -0.47137  -0.45138  -0.41329  -0.38327  -0.27449
 Alpha virt. eigenvalues --    0.01431   0.07061   0.07511   0.08009   0.09774
 Alpha virt. eigenvalues --    0.11635   0.12615   0.14689   0.15868   0.16455
 Alpha virt. eigenvalues --    0.18803   0.20410   0.21659   0.22504   0.23778

 Mulliken charges:
               1
     1  C   -0.170634
     2  C   -0.040856
     3  C   -0.014381
     4  C   -0.179620
     5  H    0.082465
     6  H    0.065753
     7  H    0.061310
     8  H    0.048094
     9  H    0.056364
    10  H    0.091505
 Sum of Mulliken charges =   0.00000

 Dipole moment (field-independent basis, Debye):
    X=              0.1027    Y=             -0.0284    Z=              0.0160  Tot=              0.1077
 Quadrupole moment (field-independent basis, Debye-Ang):
   XX=            -23.2611   YY=            -23.2851   ZZ=            -29.1363
   XY=              0.0687   XZ=             -0.0840   YZ=              0.0949

 1\1\GINC-NODE14\SP\RB2PLYPD3-FC\def2QZVP\C4H6\BOITTIER\26-Aug-2020\0\\
 #p B2PLYPD3/Def2QZVP\\butadiene\\0,1\C,0,-3.823786,0.241602,0.056855\C
 ,0,-2.71475,-0.522956,-0.009886\C,0,-1.405777,0.0351,-0.014871\C,0,-0.
 260217,-0.625193,0.057548\H,0,-4.798927,-0.151146,0.083832\H,0,-3.7953
 52,1.308241,0.03081\H,0,-2.827461,-1.584235,-0.066256\H,0,-1.31862,1.1
 2667,-0.074249\H,0,-0.327899,-1.709012,0.25535\H,0,0.717479,-0.170343,
 -0.001075\\Version=ES64L-G09RevD.01\State=1-A\HF=-155.6967479\MP2=-155
 .9224916\RMSD=7.092e-09\PG=C01 [X(C4H6)]\\@

 Normal termination of Gaussian 09 at Wed Aug 26 08:41:34 2020.
