 Gaussian 09, Revision D.01,
 Gaussian 09:  ES64L-G09RevD.01 24-Apr-2013

 --------------------
 #p B2PLYPD3/Def2QZVP
 --------------------

 ---------
 butadiene
 ---------
 Symbolic Z-matrix:
 Charge =  0 Multiplicity = 1

                         Standard orientation:
 ---------------------------------------------------------------------
 Center     Atomic      Atomic             Coordinates (Angstroms)
 Number     Number       Type             X           Y           Z
 ---------------------------------------------------------------------
      1          6           0        1.841480   -0.154387    0.090464
      2          6           0        0.619140    0.423271   -0.079625
      3          6           0       -0.645532   -0.355121   -0.063310
      4          6           0       -1.843312    0.085225    0.061629
      5          1           0        2.636764    0.574687   -0.004560
      6          1           0        2.089702   -1.237993    0.093056
      7          1           0        0.578383    1.509688   -0.263053
      8          1           0       -0.522806   -1.454236   -0.094182
      9          1           0       -1.999949    1.212214    0.345485
     10          1           0       -2.612749   -0.598288   -0.131696
 ---------------------------------------------------------------------

 SCF Done:  E(RB2PLYPD3) =  -155.678826220     A.U. after   11 cycles
 E2(B2PLYPD3) =    -0.2263539375D+00 E(B2PLYPD3) =    -0.15590518015706D+03

 The electronic state is 1-A.
 Alpha  occ. eigenvalues --  -10.63429 -10.62300 -10.61891 -10.61098  -0.92751
 Alpha  occ. eigenvalues --   -0.85452  -0.69393  -0.62669  -0.54692  -0.53220
 Alpha  occ. eigenvalues --   -0.47141  -0.44877  -0.40441  -0.37313  -0.28119
 Alpha virt. eigenvalues --    0.01807   0.07036   0.07227   0.07783   0.09491
 Alpha virt. eigenvalues --    0.11461   0.12193   0.14539   0.15205   0.16418
 Alpha virt. eigenvalues --    0.19077   0.19340   0.21113   0.21799   0.24657

 Mulliken charges:
               1
     1  C   -0.170790
     2  C   -0.059904
     3  C   -0.011889
     4  C   -0.179959
     5  H    0.075912
     6  H    0.079279
     7  H    0.061815
     8  H    0.047240
     9  H    0.064289
    10  H    0.094008
 Sum of Mulliken charges =   0.00000

 Dipole moment (field-independent basis, Debye):
    X=              0.0637    Y=             -0.0713    Z=             -0.1485  Tot=              0.1766
 Quadrupole moment (field-independent basis, Debye-Ang):
   XX=            -24.2317   YY=            -22.9196   ZZ=            -29.1703
   XY=              0.0388   XZ=             -0.1689   YZ=              0.1207

 1\1\GINC-NODE24\SP\RB2PLYPD3-FC\def2QZVP\C4H6\BOITTIER\26-Aug-2020\0\\
 #p B2PLYPD3/Def2QZVP\\butadiene\\0,1\C,0,-3.84166,0.259035,0.100497\C,
 0,-2.738409,-0.526905,-0.04739\C,0,-1.357738,0.020179,-0.048663\C,0,-0
 .254536,-0.617571,0.094206\H,0,-4.751589,-0.323351,0.023617\H,0,-3.897
 879,1.368874,0.070173\H,0,-2.887165,-1.608853,-0.198612\H,0,-1.287708,
 1.122498,-0.112364\H,0,-0.295767,-1.745704,0.411742\H,0,0.621745,-0.08
 4107,-0.115904\\Version=ES64L-G09RevD.01\State=1-A\HF=-155.6788262\MP2
 =-155.9051802\RMSD=9.333e-09\PG=C01 [X(C4H6)]\\@

 Normal termination of Gaussian 09 at Wed Aug 26 15:20:00 2020.
