 Gaussian 09, Revision D.01,
 Gaussian 09:  ES64L-G09RevD.01 24-Apr-2013

 --------------------
 #p B2PLYPD3/Def2QZVP
 --------------------

 ---------
 butadiene
 ---------
 Symbolic Z-matrix:
 Charge =  0 Multiplicity = 1

                         Standard orientation:
 ---------------------------------------------------------------------
 Center     Atomic      Atomic             Coordinates (Angstroms)
 Number     Number       Type             X           Y           Z
 ---------------------------------------------------------------------
      1          6           0        1.862968   -0.081230    0.101653
      2          6           0        0.631621    0.331458   -0.100850
      3          6           0       -0.615927   -0.424008   -0.093346
      4          6           0       -1.857551    0.120656    0.050546
      5          1           0        2.707411    0.585374    0.013548
      6          1           0        2.092958   -1.105863    0.046793
      7          1           0        0.426318    1.391655   -0.016644
      8          1           0       -0.636738   -1.457479   -0.049551
      9          1           0       -1.879219    1.258649    0.038437
     10          1           0       -2.837392   -0.353591    0.219399
 ---------------------------------------------------------------------

 SCF Done:  E(RB2PLYPD3) =  -155.683931672     A.U. after   12 cycles
 E2(B2PLYPD3) =    -0.2265774058D+00 E(B2PLYPD3) =    -0.15591050907795D+03

 The electronic state is 1-A.
 Alpha  occ. eigenvalues --  -10.63015 -10.62661 -10.62571 -10.61001  -0.93024
 Alpha  occ. eigenvalues --   -0.85156  -0.70347  -0.64568  -0.54938  -0.53987
 Alpha  occ. eigenvalues --   -0.47610  -0.44275  -0.40634  -0.38070  -0.27940
 Alpha virt. eigenvalues --    0.01135   0.06931   0.07650   0.08102   0.09549
 Alpha virt. eigenvalues --    0.11479   0.12789   0.14328   0.15499   0.16712
 Alpha virt. eigenvalues --    0.18960   0.19441   0.21666   0.23148   0.23497

 Mulliken charges:
               1
     1  C   -0.162801
     2  C   -0.028264
     3  C   -0.036586
     4  C   -0.166008
     5  H    0.081529
     6  H    0.064539
     7  H    0.054081
     8  H    0.057755
     9  H    0.042523
    10  H    0.093233
 Sum of Mulliken charges =   0.00000

 Dipole moment (field-independent basis, Debye):
    X=             -0.0800    Y=             -0.0838    Z=              0.0951  Tot=              0.1499
 Quadrupole moment (field-independent basis, Debye-Ang):
   XX=            -22.8100   YY=            -23.7042   ZZ=            -29.2029
   XY=              0.1687   XZ=             -0.6815   YZ=             -0.0577

 1\1\GINC-NODE22\SP\RB2PLYPD3-FC\def2QZVP\C4H6\BOITTIER\26-Aug-2020\0\\
 #p B2PLYPD3/Def2QZVP\\butadiene\\0,1\C,0,-3.871516,0.186465,0.115057\C
 ,0,-2.730387,-0.441792,-0.060019\C,0,-1.370973,0.086217,-0.079047\C,0,
 -0.242053,-0.657538,0.098047\H,0,-4.818646,-0.327535,0.052156\H,0,-3.9
 20911,1.231747,0.011502\H,0,-2.711415,-1.516431,0.074325\H,0,-1.171678
 ,1.101442,-0.082794\H,0,-0.417541,-1.781463,0.138545\H,0,0.805282,-0.3
 5243,0.251374\\Version=ES64L-G09RevD.01\State=1-A\HF=-155.6839317\MP2=
 -155.9105091\RMSD=4.945e-09\PG=C01 [X(C4H6)]\\@

 Normal termination of Gaussian 09 at Wed Aug 26 14:10:29 2020.
