 Gaussian 09, Revision D.01,
 Gaussian 09:  ES64L-G09RevD.01 24-Apr-2013

 --------------------
 #p B2PLYPD3/Def2QZVP
 --------------------

 ---------
 butadiene
 ---------
 Symbolic Z-matrix:
 Charge =  0 Multiplicity = 1

                         Standard orientation:
 ---------------------------------------------------------------------
 Center     Atomic      Atomic             Coordinates (Angstroms)
 Number     Number       Type             X           Y           Z
 ---------------------------------------------------------------------
      1          6           0       -1.845162    0.099995    0.020979
      2          6           0       -0.602718   -0.378159   -0.014878
      3          6           0        0.604286    0.411295   -0.028418
      4          6           0        1.844677   -0.117002    0.006459
      5          1           0       -2.692340   -0.585566   -0.033916
      6          1           0       -2.058112    1.146176    0.092018
      7          1           0       -0.470829   -1.442678   -0.061292
      8          1           0        0.458122    1.468283   -0.040924
      9          1           0        2.020891   -1.178205    0.116115
     10          1           0        2.735767    0.495213    0.023142
 ---------------------------------------------------------------------

 SCF Done:  E(RB2PLYPD3) =  -155.700137899     A.U. after   11 cycles
 E2(B2PLYPD3) =    -0.2257140059D+00 E(B2PLYPD3) =    -0.15592585190485D+03

 The electronic state is 1-A.
 Alpha  occ. eigenvalues --  -10.62545 -10.62152 -10.61807 -10.61402  -0.93088
 Alpha  occ. eigenvalues --   -0.84797  -0.70538  -0.64430  -0.54595  -0.54060
 Alpha  occ. eigenvalues --   -0.46798  -0.45817  -0.41206  -0.38126  -0.27541
 Alpha virt. eigenvalues --    0.01451   0.06968   0.07529   0.08089   0.09689
 Alpha virt. eigenvalues --    0.11681   0.12417   0.14878   0.15914   0.16090
 Alpha virt. eigenvalues --    0.18862   0.20595   0.21624   0.22629   0.23725

 Mulliken charges:
               1
     1  C   -0.180810
     2  C   -0.021692
     3  C   -0.040488
     4  C   -0.172567
     5  H    0.083851
     6  H    0.067441
     7  H    0.055235
     8  H    0.059241
     9  H    0.066434
    10  H    0.083354
 Sum of Mulliken charges =   0.00000

 Dipole moment (field-independent basis, Debye):
    X=              0.0231    Y=              0.0083    Z=              0.0661  Tot=              0.0705
 Quadrupole moment (field-independent basis, Debye-Ang):
   XX=            -23.4004   YY=            -23.1469   ZZ=            -29.2306
   XY=             -0.2502   XZ=              0.2450   YZ=              0.0353

 1\1\GINC-NODE35\SP\RB2PLYPD3-FC\def2QZVP\C4H6\BOITTIER\26-Aug-2020\0\\
 #p B2PLYPD3/Def2QZVP\\butadiene\\0,1\C,0,-3.848828,0.2178,0.037529\C,0
 ,-2.714063,-0.479037,0.019907\C,0,-1.383683,0.077171,-0.011702\C,0,-0.
 259941,-0.666549,0.042804\H,0,-4.8066,-0.303654,-0.000907\H,0,-3.86794
 ,1.286862,0.077906\H,0,-2.777957,-1.550684,0.004369\H,0,-1.335287,1.14
 2317,-0.054897\H,0,-0.279402,-1.738509,0.18334\H,0,0.727618,-0.226267,
 0.045298\\Version=ES64L-G09RevD.01\State=1-A\HF=-155.7001379\MP2=-155.
 9258519\RMSD=5.337e-09\PG=C01 [X(C4H6)]\\@

 Normal termination of Gaussian 09 at Wed Aug 26 19:25:12 2020.
