 Gaussian 09, Revision D.01,
 Gaussian 09:  ES64L-G09RevD.01 24-Apr-2013

 --------------------
 #p B2PLYPD3/Def2QZVP
 --------------------

 ---------
 butadiene
 ---------
 Symbolic Z-matrix:
 Charge =  0 Multiplicity = 1

                         Standard orientation:
 ---------------------------------------------------------------------
 Center     Atomic      Atomic             Coordinates (Angstroms)
 Number     Number       Type             X           Y           Z
 ---------------------------------------------------------------------
      1          6           0       -1.839266    0.060821    0.089517
      2          6           0       -0.619465   -0.328318   -0.067880
      3          6           0        0.601139    0.414339   -0.120357
      4          6           0        1.832523   -0.157185    0.055750
      5          1           0       -2.670161   -0.613035    0.088326
      6          1           0       -1.969674    1.160623    0.016079
      7          1           0       -0.420761   -1.370758   -0.149048
      8          1           0        0.497450    1.575794    0.001551
      9          1           0        1.994583   -1.174595    0.079288
     10          1           0        2.718971    0.484029    0.221624
 ---------------------------------------------------------------------

 SCF Done:  E(RB2PLYPD3) =  -155.682157293     A.U. after   12 cycles
 E2(B2PLYPD3) =    -0.2264288044D+00 E(B2PLYPD3) =    -0.15590858609784D+03

 The electronic state is 1-A.
 Alpha  occ. eigenvalues --  -10.63855 -10.62223 -10.61332 -10.60897  -0.93575
 Alpha  occ. eigenvalues --   -0.85227  -0.70830  -0.63372  -0.55431  -0.53447
 Alpha  occ. eigenvalues --   -0.47130  -0.45351  -0.40153  -0.38445  -0.27829
 Alpha virt. eigenvalues --    0.01269   0.06978   0.07352   0.07946   0.09869
 Alpha virt. eigenvalues --    0.11707   0.12413   0.14763   0.15513   0.16220
 Alpha virt. eigenvalues --    0.18895   0.19489   0.21832   0.23093   0.23808

 Mulliken charges:
               1
     1  C   -0.177059
     2  C   -0.001472
     3  C   -0.033328
     4  C   -0.173679
     5  H    0.093425
     6  H    0.055210
     7  H    0.039818
     8  H    0.037757
     9  H    0.075452
    10  H    0.083876
 Sum of Mulliken charges =   0.00000

 Dipole moment (field-independent basis, Debye):
    X=              0.1280    Y=             -0.1602    Z=              0.1022  Tot=              0.2291
 Quadrupole moment (field-independent basis, Debye-Ang):
   XX=            -23.4785   YY=            -23.4149   ZZ=            -29.1435
   XY=             -0.0139   XZ=              0.6894   YZ=              0.1510

 1\1\GINC-NODE11\SP\RB2PLYPD3-FC\def2QZVP\C4H6\BOITTIER\26-Aug-2020\0\\
 #p B2PLYPD3/Def2QZVP\\butadiene\\0,1\C,0,-3.848065,0.178013,0.104156\C
 ,0,-2.717313,-0.427655,-0.032532\C,0,-1.383531,0.082893,-0.099861\C,0,
 -0.274387,-0.693492,0.102585\H,0,-4.786054,-0.33623,0.118375\H,0,-3.77
 9642,1.280484,-0.004651\H,0,-2.708103,-1.490883,-0.07958\H,0,-1.278026
 ,1.247491,-0.015173\H,0,-0.296878,-1.722198,0.159151\H,0,0.712228,-0.2
 15988,0.254372\\Version=ES64L-G09RevD.01\State=1-A\HF=-155.6821573\MP2
 =-155.9085861\RMSD=3.379e-09\PG=C01 [X(C4H6)]\\@

 Normal termination of Gaussian 09 at Wed Aug 26 15:44:49 2020.
