 Gaussian 09, Revision D.01,
 Gaussian 09:  ES64L-G09RevD.01 24-Apr-2013

 --------------------
 #p B2PLYPD3/Def2QZVP
 --------------------

 ---------
 butadiene
 ---------
 Symbolic Z-matrix:
 Charge =  0 Multiplicity = 1

                         Standard orientation:
 ---------------------------------------------------------------------
 Center     Atomic      Atomic             Coordinates (Angstroms)
 Number     Number       Type             X           Y           Z
 ---------------------------------------------------------------------
      1          6           0       -1.842057   -0.132459    0.034008
      2          6           0       -0.603632    0.410193   -0.032752
      3          6           0        0.612518   -0.382235   -0.062850
      4          6           0        1.838196    0.102636    0.015738
      5          1           0       -2.673259    0.525995    0.133591
      6          1           0       -2.017059   -1.186168    0.017221
      7          1           0       -0.512721    1.498250   -0.092046
      8          1           0        0.532254   -1.435015   -0.060755
      9          1           0        1.992955    1.176343    0.064287
     10          1           0        2.647678   -0.568216    0.212842
 ---------------------------------------------------------------------

 SCF Done:  E(RB2PLYPD3) =  -155.697231222     A.U. after   11 cycles
 E2(B2PLYPD3) =    -0.2255894701D+00 E(B2PLYPD3) =    -0.15592282069234D+03

 The electronic state is 1-A.
 Alpha  occ. eigenvalues --  -10.62892 -10.61819 -10.61454 -10.61015  -0.93062
 Alpha  occ. eigenvalues --   -0.85129  -0.70229  -0.64273  -0.54799  -0.54177
 Alpha  occ. eigenvalues --   -0.46375  -0.45929  -0.41709  -0.37916  -0.27584
 Alpha virt. eigenvalues --    0.01664   0.07018   0.07530   0.08050   0.09573
 Alpha virt. eigenvalues --    0.11740   0.12413   0.14803   0.15843   0.16103
 Alpha virt. eigenvalues --    0.18825   0.20511   0.21332   0.22819   0.24115

 Mulliken charges:
               1
     1  C   -0.181876
     2  C   -0.041710
     3  C   -0.023555
     4  C   -0.171316
     5  H    0.085539
     6  H    0.073910
     7  H    0.056836
     8  H    0.056934
     9  H    0.061963
    10  H    0.083276
 Sum of Mulliken charges =   0.00000

 Dipole moment (field-independent basis, Debye):
    X=             -0.0436    Y=             -0.0354    Z=              0.1888  Tot=              0.1970
 Quadrupole moment (field-independent basis, Debye-Ang):
   XX=            -23.8755   YY=            -22.9090   ZZ=            -29.1500
   XY=             -0.0199   XZ=              0.3739   YZ=             -0.0695

 1\1\GINC-NODE31\SP\RB2PLYPD3-FC\def2QZVP\C4H6\BOITTIER\26-Aug-2020\0\\
 #p B2PLYPD3/Def2QZVP\\butadiene\\0,1\C,0,-3.842378,0.240082,-0.017211\
 C,0,-2.719227,-0.510829,0.068167\C,0,-1.381729,0.053945,0.068052\C,0,-
 0.261968,-0.64309,0.006077\H,0,-4.777809,-0.263682,-0.091813\H,0,-3.82
 7791,1.308038,-0.038843\H,0,-2.82209,-1.594926,0.167168\H,0,-1.274211,
 1.10351,0.027493\H,0,-0.300257,-1.728263,-0.003281\H,0,0.652074,-0.133
 92,-0.216242\\Version=ES64L-G09RevD.01\State=1-A\HF=-155.6972312\MP2=-
 155.9228207\RMSD=6.347e-09\PG=C01 [X(C4H6)]\\@

 Normal termination of Gaussian 09 at Wed Aug 26 10:56:10 2020.
