 Gaussian 09, Revision D.01,
 Gaussian 09:  ES64L-G09RevD.01 24-Apr-2013

 --------------------
 #p B2PLYPD3/Def2QZVP
 --------------------

 ---------
 butadiene
 ---------
 Symbolic Z-matrix:
 Charge =  0 Multiplicity = 1

                         Standard orientation:
 ---------------------------------------------------------------------
 Center     Atomic      Atomic             Coordinates (Angstroms)
 Number     Number       Type             X           Y           Z
 ---------------------------------------------------------------------
      1          6           0       -1.855396   -0.102093    0.086081
      2          6           0       -0.607198    0.367832   -0.055145
      3          6           0        0.647768   -0.418172   -0.089224
      4          6           0        1.842251    0.110842    0.044357
      5          1           0       -2.767097    0.551553   -0.187087
      6          1           0       -2.019831   -1.180712    0.228295
      7          1           0       -0.507022    1.482141   -0.104501
      8          1           0        0.458898   -1.417958   -0.128425
      9          1           0        1.894041    1.262811    0.227928
     10          1           0        2.776459   -0.448285    0.047374
 ---------------------------------------------------------------------

 SCF Done:  E(RB2PLYPD3) =  -155.681684828     A.U. after   11 cycles
 E2(B2PLYPD3) =    -0.2266355667D+00 E(B2PLYPD3) =    -0.15590832039482D+03

 The electronic state is 1-A.
 Alpha  occ. eigenvalues --  -10.63079 -10.62580 -10.62437 -10.62030  -0.92865
 Alpha  occ. eigenvalues --   -0.84883  -0.69412  -0.63908  -0.54646  -0.52793
 Alpha  occ. eigenvalues --   -0.47269  -0.44518  -0.40443  -0.37599  -0.28109
 Alpha virt. eigenvalues --    0.01543   0.06816   0.07323   0.07941   0.09523
 Alpha virt. eigenvalues --    0.11662   0.12215   0.14317   0.15646   0.15936
 Alpha virt. eigenvalues --    0.19070   0.19682   0.21047   0.21738   0.23804

 Mulliken charges:
               1
     1  C   -0.178431
     2  C   -0.020608
     3  C   -0.052703
     4  C   -0.150229
     5  H    0.083213
     6  H    0.057674
     7  H    0.049298
     8  H    0.064920
     9  H    0.055410
    10  H    0.091457
 Sum of Mulliken charges =   0.00000

 Dipole moment (field-independent basis, Debye):
    X=              0.1584    Y=             -0.1235    Z=             -0.0320  Tot=              0.2034
 Quadrupole moment (field-independent basis, Debye-Ang):
   XX=            -23.5670   YY=            -23.4657   ZZ=            -29.2509
   XY=             -0.0674   XZ=              0.6854   YZ=             -0.1275

 1\1\GINC-NODE38\SP\RB2PLYPD3-FC\def2QZVP\C4H6\BOITTIER\26-Aug-2020\0\\
 #p B2PLYPD3/Def2QZVP\\butadiene\\0,1\C,0,-3.866608,0.201255,-0.058807\
 C,0,-2.717776,-0.473992,0.092843\C,0,-1.345178,0.082645,0.098638\C,0,-
 0.261841,-0.649626,-0.022392\H,0,-4.875573,-0.275583,0.237314\H,0,-3.8
 42518,1.287311,-0.233693\H,0,-2.812134,-1.586781,0.176223\H,0,-1.35729
 ,1.100758,0.107589\H,0,-0.412369,-1.798023,-0.17051\H,0,0.755182,-0.26
 1682,-0.045648\\Version=ES64L-G09RevD.01\State=1-A\HF=-155.6816848\MP2
 =-155.9083204\RMSD=7.213e-09\PG=C01 [X(C4H6)]\\@

 Normal termination of Gaussian 09 at Wed Aug 26 12:29:41 2020.
