 Gaussian 09, Revision D.01,
 Gaussian 09:  ES64L-G09RevD.01 24-Apr-2013

 --------------------
 #p B2PLYPD3/Def2QZVP
 --------------------

 ---------
 butadiene
 ---------
 Symbolic Z-matrix:
 Charge =  0 Multiplicity = 1

                         Standard orientation:
 ---------------------------------------------------------------------
 Center     Atomic      Atomic             Coordinates (Angstroms)
 Number     Number       Type             X           Y           Z
 ---------------------------------------------------------------------
      1          6           0       -1.870664    0.077068    0.007823
      2          6           0       -0.620989   -0.376874   -0.063661
      3          6           0        0.618001    0.419552   -0.063762
      4          6           0        1.844561   -0.133250    0.032278
      5          1           0       -2.716474   -0.520716    0.175337
      6          1           0       -2.110973    1.127469    0.162622
      7          1           0       -0.407315   -1.346186   -0.080571
      8          1           0        0.612196    1.525756    0.037307
      9          1           0        2.062577   -1.178129    0.198117
     10          1           0        2.734535    0.472826    0.031122
 ---------------------------------------------------------------------

 SCF Done:  E(RB2PLYPD3) =  -155.686085103     A.U. after   11 cycles
 E2(B2PLYPD3) =    -0.2257046563D+00 E(B2PLYPD3) =    -0.15591178975951D+03

 The electronic state is 1-A.
 Alpha  occ. eigenvalues --  -10.63212 -10.61974 -10.61775 -10.61247  -0.92801
 Alpha  occ. eigenvalues --   -0.85014  -0.70994  -0.64802  -0.55368  -0.53719
 Alpha  occ. eigenvalues --   -0.47367  -0.45427  -0.41025  -0.37686  -0.27754
 Alpha virt. eigenvalues --    0.01355   0.06954   0.07562   0.08212   0.09387
 Alpha virt. eigenvalues --    0.11539   0.12642   0.14699   0.15737   0.16686
 Alpha virt. eigenvalues --    0.19131   0.19682   0.22573   0.22846   0.23085

 Mulliken charges:
               1
     1  C   -0.153918
     2  C   -0.050377
     3  C   -0.031604
     4  C   -0.173538
     5  H    0.078648
     6  H    0.057724
     7  H    0.074270
     8  H    0.057440
     9  H    0.062438
    10  H    0.078916
 Sum of Mulliken charges =   0.00000

 Dipole moment (field-independent basis, Debye):
    X=              0.0910    Y=             -0.0542    Z=              0.3996  Tot=              0.4134
 Quadrupole moment (field-independent basis, Debye-Ang):
   XX=            -23.0361   YY=            -23.3866   ZZ=            -29.1016
   XY=             -0.2738   XZ=             -0.3035   YZ=              0.0181

 1\1\GINC-NODE24\SP\RB2PLYPD3-FC\def2QZVP\C4H6\BOITTIER\26-Aug-2020\0\\
 #p B2PLYPD3/Def2QZVP\\butadiene\\0,1\C,0,-3.875173,0.197706,0.040995\C
 ,0,-2.727384,-0.474678,-0.016796\C,0,-1.365898,0.08662,-0.043109\C,0,-
 0.257477,-0.673602,0.069706\H,0,-4.813222,-0.23343,0.228044\H,0,-3.922
 643,1.278478,0.162374\H,0,-2.69073,-1.466632,-0.002925\H,0,-1.17301,1.
 178594,0.022634\H,0,-0.228913,-1.734929,0.268641\H,0,0.726564,-0.23702
 1,0.048638\\Version=ES64L-G09RevD.01\State=1-A\HF=-155.6860851\MP2=-15
 5.9117898\RMSD=5.905e-09\PG=C01 [X(C4H6)]\\@

 Normal termination of Gaussian 09 at Wed Aug 26 15:15:41 2020.
