 Gaussian 09, Revision D.01,
 Gaussian 09:  ES64L-G09RevD.01 24-Apr-2013

 --------------------
 #p B2PLYPD3/Def2QZVP
 --------------------

 ---------
 butadiene
 ---------
 Symbolic Z-matrix:
 Charge =  0 Multiplicity = 1

                         Standard orientation:
 ---------------------------------------------------------------------
 Center     Atomic      Atomic             Coordinates (Angstroms)
 Number     Number       Type             X           Y           Z
 ---------------------------------------------------------------------
      1          6           0        1.843079   -0.115709    0.011608
      2          6           0        0.620277    0.408173   -0.029598
      3          6           0       -0.604856   -0.394353   -0.011581
      4          6           0       -1.848836    0.109209    0.023371
      5          1           0        2.736754    0.503119    0.009660
      6          1           0        1.946928   -1.209875    0.074960
      7          1           0        0.476062    1.500715   -0.012148
      8          1           0       -0.504301   -1.479884   -0.043158
      9          1           0       -2.024050    1.180280    0.047870
     10          1           0       -2.689374   -0.538271   -0.039989
 ---------------------------------------------------------------------

 SCF Done:  E(RB2PLYPD3) =  -155.699873976     A.U. after   11 cycles
 E2(B2PLYPD3) =    -0.2259481677D+00 E(B2PLYPD3) =    -0.15592582214360D+03

 The electronic state is 1-A.
 Alpha  occ. eigenvalues --  -10.62793 -10.62711 -10.61793 -10.61399  -0.92742
 Alpha  occ. eigenvalues --   -0.84940  -0.69925  -0.63728  -0.54492  -0.53881
 Alpha  occ. eigenvalues --   -0.46627  -0.45514  -0.41101  -0.37955  -0.27753
 Alpha virt. eigenvalues --    0.01748   0.07020   0.07343   0.08026   0.09540
 Alpha virt. eigenvalues --    0.11672   0.12385   0.14593   0.15841   0.16100
 Alpha virt. eigenvalues --    0.18795   0.20532   0.21324   0.22693   0.24010

 Mulliken charges:
               1
     1  C   -0.171602
     2  C   -0.031943
     3  C   -0.028537
     4  C   -0.179595
     5  H    0.089864
     6  H    0.064678
     7  H    0.052504
     8  H    0.051336
     9  H    0.065232
    10  H    0.088063
 Sum of Mulliken charges =   0.00000

 Dipole moment (field-independent basis, Debye):
    X=              0.0141    Y=              0.0065    Z=              0.0068  Tot=              0.0170
 Quadrupole moment (field-independent basis, Debye-Ang):
   XX=            -23.5255   YY=            -23.0799   ZZ=            -29.3376
   XY=              0.0065   XZ=              0.2372   YZ=              0.0468

 1\1\GINC-NODE21\SP\RB2PLYPD3-FC\def2QZVP\C4H6\BOITTIER\26-Aug-2020\0\\
 #p B2PLYPD3/Def2QZVP\\butadiene\\0,1\C,0,-3.844195,0.226156,0.033038\C
 ,0,-2.733678,-0.507016,0.00847\C,0,-1.385758,0.066031,0.001219\C,0,-0.
 250379,-0.648535,0.052131\H,0,-4.833292,-0.224386,0.050571\H,0,-3.7523
 81,1.322851,0.061806\H,0,-2.785031,-1.606751,0.060414\H,0,-1.292755,1.
 150698,-0.064622\H,0,-0.267384,-1.732419,0.110445\H,0,0.69113,-0.16242
 8,-0.031586\\Version=ES64L-G09RevD.01\State=1-A\HF=-155.699874\MP2=-15
 5.9258221\RMSD=4.866e-09\PG=C01 [X(C4H6)]\\@

 Normal termination of Gaussian 09 at Wed Aug 26 09:01:29 2020.
