 Gaussian 09, Revision D.01,
 Gaussian 09:  ES64L-G09RevD.01 24-Apr-2013

 --------------------
 #p B2PLYPD3/Def2QZVP
 --------------------

 ---------
 butadiene
 ---------
 Symbolic Z-matrix:
 Charge =  0 Multiplicity = 1

                         Standard orientation:
 ---------------------------------------------------------------------
 Center     Atomic      Atomic             Coordinates (Angstroms)
 Number     Number       Type             X           Y           Z
 ---------------------------------------------------------------------
      1          6           0       -1.844034   -0.107432    0.014980
      2          6           0       -0.606364    0.388404   -0.020368
      3          6           0        0.618510   -0.414155   -0.015934
      4          6           0        1.847352    0.118616    0.006419
      5          1           0       -2.708325    0.535400    0.081826
      6          1           0       -2.023897   -1.167105   -0.005058
      7          1           0       -0.526970    1.487693   -0.078473
      8          1           0        0.484308   -1.501096   -0.021256
      9          1           0        1.950698    1.223571    0.060228
     10          1           0        2.731405   -0.491060    0.052153
 ---------------------------------------------------------------------

 SCF Done:  E(RB2PLYPD3) =  -155.699384729     A.U. after   11 cycles
 E2(B2PLYPD3) =    -0.2260016231D+00 E(B2PLYPD3) =    -0.15592538635233D+03

 The electronic state is 1-A.
 Alpha  occ. eigenvalues --  -10.62925 -10.62736 -10.61892 -10.61323  -0.92722
 Alpha  occ. eigenvalues --   -0.84937  -0.69894  -0.63704  -0.54579  -0.53818
 Alpha  occ. eigenvalues --   -0.46596  -0.45339  -0.41165  -0.37925  -0.27747
 Alpha virt. eigenvalues --    0.01755   0.07011   0.07351   0.07987   0.09516
 Alpha virt. eigenvalues --    0.11637   0.12426   0.14519   0.15831   0.16179
 Alpha virt. eigenvalues --    0.18789   0.20464   0.21458   0.22686   0.23923

 Mulliken charges:
               1
     1  C   -0.178000
     2  C   -0.022851
     3  C   -0.039268
     4  C   -0.170609
     5  H    0.085916
     6  H    0.064088
     7  H    0.050774
     8  H    0.054872
     9  H    0.064868
    10  H    0.090210
 Sum of Mulliken charges =   0.00000

 Dipole moment (field-independent basis, Debye):
    X=             -0.0043    Y=             -0.0289    Z=              0.0595  Tot=              0.0663
 Quadrupole moment (field-independent basis, Debye-Ang):
   XX=            -23.4738   YY=            -23.1051   ZZ=            -29.3378
   XY=             -0.0399   XZ=              0.0775   YZ=              0.0370

 1\1\GINC-NODE06\SP\RB2PLYPD3-FC\def2QZVP\C4H6\BOITTIER\26-Aug-2020\0\\
 #p B2PLYPD3/Def2QZVP\\butadiene\\0,1\C,0,-3.850669,0.213781,0.003617\C
 ,0,-2.719503,-0.491128,0.053573\C,0,-1.372491,0.082786,0.028718\C,0,-0
 .256734,-0.658455,0.021983\H,0,-4.81488,-0.268363,-0.04673\H,0,-3.8410
 83,1.288718,-0.005123\H,0,-2.834668,-1.585267,0.141396\H,0,-1.313212,1
 .176122,0.004578\H,0,-0.34974,-1.76538,-0.001891\H,0,0.720669,-0.21542
 7,-0.039296\\Version=ES64L-G09RevD.01\State=1-A\HF=-155.6993847\MP2=-1
 55.9253864\RMSD=4.181e-09\PG=C01 [X(C4H6)]\\@

 Normal termination of Gaussian 09 at Wed Aug 26 21:37:36 2020.
