 Gaussian 09, Revision D.01,
 Gaussian 09:  ES64L-G09RevD.01 24-Apr-2013

 --------------------
 #p B2PLYPD3/Def2QZVP
 --------------------

 ---------
 butadiene
 ---------
 Symbolic Z-matrix:
 Charge =  0 Multiplicity = 1

                         Standard orientation:
 ---------------------------------------------------------------------
 Center     Atomic      Atomic             Coordinates (Angstroms)
 Number     Number       Type             X           Y           Z
 ---------------------------------------------------------------------
      1          6           0       -1.847727   -0.114280    0.002737
      2          6           0       -0.616624    0.391420   -0.016707
      3          6           0        0.614912   -0.406644   -0.017077
      4          6           0        1.837580    0.119074    0.014725
      5          1           0       -2.681419    0.546256    0.072357
      6          1           0       -2.013956   -1.166848    0.034156
      7          1           0       -0.474273    1.479988   -0.010165
      8          1           0        0.528291   -1.487036   -0.046585
      9          1           0        1.964190    1.180960   -0.024726
     10          1           0        2.748322   -0.490735    0.072897
 ---------------------------------------------------------------------

 SCF Done:  E(RB2PLYPD3) =  -155.700446580     A.U. after   11 cycles
 E2(B2PLYPD3) =    -0.2254072720D+00 E(B2PLYPD3) =    -0.15592585385192D+03

 The electronic state is 1-A.
 Alpha  occ. eigenvalues --  -10.62712 -10.62513 -10.61469 -10.61101  -0.92843
 Alpha  occ. eigenvalues --   -0.85175  -0.69992  -0.64058  -0.54475  -0.54240
 Alpha  occ. eigenvalues --   -0.46665  -0.45793  -0.41093  -0.37976  -0.27856
 Alpha virt. eigenvalues --    0.01904   0.07005   0.07465   0.08037   0.09583
 Alpha virt. eigenvalues --    0.11691   0.12467   0.14674   0.15879   0.16126
 Alpha virt. eigenvalues --    0.18806   0.20557   0.21544   0.22877   0.23919

 Mulliken charges:
               1
     1  C   -0.177425
     2  C   -0.031592
     3  C   -0.030176
     4  C   -0.174106
     5  H    0.087584
     6  H    0.070494
     7  H    0.051459
     8  H    0.054737
     9  H    0.064184
    10  H    0.084840
 Sum of Mulliken charges =   0.00000

 Dipole moment (field-independent basis, Debye):
    X=              0.0195    Y=             -0.0060    Z=              0.0677  Tot=              0.0707
 Quadrupole moment (field-independent basis, Debye-Ang):
   XX=            -23.4808   YY=            -23.0745   ZZ=            -29.2373
   XY=              0.0590   XZ=             -0.1432   YZ=             -0.0227

 1\1\GINC-NODE18\SP\RB2PLYPD3-FC\def2QZVP\C4H6\BOITTIER\26-Aug-2020\0\\
 #p B2PLYPD3/Def2QZVP\\butadiene\\0,1\C,0,-3.849964,0.220394,0.011589\C
 ,0,-2.726685,-0.49272,0.049512\C,0,-1.374199,0.076473,0.029843\C,0,-0.
 262858,-0.656376,0.01711\H,0,-4.786808,-0.28534,-0.04088\H,0,-3.828948
 ,1.2844,-0.051401\H,0,-2.777617,-1.589084,0.075553\H,0,-1.269783,1.155
 69,0.02716\H,0,-0.324495,-1.722361,0.088289\H,0,0.740636,-0.217865,-0.
 056436\\Version=ES64L-G09RevD.01\State=1-A\HF=-155.7004466\MP2=-155.92
 58539\RMSD=2.998e-09\PG=C01 [X(C4H6)]\\@

 Normal termination of Gaussian 09 at Wed Aug 26 19:18:31 2020.
