 Gaussian 09, Revision D.01,
 Gaussian 09:  ES64L-G09RevD.01 24-Apr-2013

 --------------------
 #p B2PLYPD3/Def2QZVP
 --------------------

 ---------
 butadiene
 ---------
 Symbolic Z-matrix:
 Charge =  0 Multiplicity = 1

                         Standard orientation:
 ---------------------------------------------------------------------
 Center     Atomic      Atomic             Coordinates (Angstroms)
 Number     Number       Type             X           Y           Z
 ---------------------------------------------------------------------
      1          6           0       -1.861001    0.093842   -0.047650
      2          6           0       -0.601849   -0.373490    0.058747
      3          6           0        0.631933    0.423480    0.048655
      4          6           0        1.856647   -0.117209   -0.031768
      5          1           0       -2.685640   -0.586285   -0.060005
      6          1           0       -2.096894    1.129160    0.002434
      7          1           0       -0.480799   -1.440545    0.045851
      8          1           0        0.419901    1.494745   -0.032155
      9          1           0        1.953428   -1.204845   -0.087280
     10          1           0        2.735623    0.448035   -0.036745
 ---------------------------------------------------------------------

 SCF Done:  E(RB2PLYPD3) =  -155.696836862     A.U. after   11 cycles
 E2(B2PLYPD3) =    -0.2259395362D+00 E(B2PLYPD3) =    -0.15592277639794D+03

 The electronic state is 1-A.
 Alpha  occ. eigenvalues --  -10.63024 -10.62571 -10.61642 -10.61322  -0.92616
 Alpha  occ. eigenvalues --   -0.84910  -0.70689  -0.64117  -0.55048  -0.53673
 Alpha  occ. eigenvalues --   -0.47113  -0.45999  -0.40960  -0.37726  -0.27676
 Alpha virt. eigenvalues --    0.01426   0.07022   0.07470   0.08207   0.09428
 Alpha virt. eigenvalues --    0.11664   0.12528   0.14726   0.15671   0.16185
 Alpha virt. eigenvalues --    0.18964   0.20294   0.21742   0.22724   0.24096

 Mulliken charges:
               1
     1  C   -0.180929
     2  C   -0.024799
     3  C   -0.039722
     4  C   -0.169850
     5  H    0.083989
     6  H    0.066002
     7  H    0.051744
     8  H    0.055864
     9  H    0.064888
    10  H    0.092812
 Sum of Mulliken charges =   0.00000

 Dipole moment (field-independent basis, Debye):
    X=              0.0434    Y=              0.0002    Z=             -0.0763  Tot=              0.0878
 Quadrupole moment (field-independent basis, Debye-Ang):
   XX=            -23.2238   YY=            -23.2355   ZZ=            -29.2888
   XY=             -0.2398   XZ=             -0.1539   YZ=              0.0481

 1\1\GINC-NODE17\SP\RB2PLYPD3-FC\def2QZVP\C4H6\BOITTIER\26-Aug-2020\0\\
 #p B2PLYPD3/Def2QZVP\\butadiene\\0,1\C,0,-3.869439,0.209887,-0.029345\
 C,0,-2.714955,-0.474475,0.088975\C,0,-1.35762,0.086172,0.060749\C,0,-0
 .250931,-0.668496,-0.005975\H,0,-4.803345,-0.31027,-0.026067\H,0,-3.91
 4379,1.271668,-0.004058\H,0,-2.788564,-1.545852,0.101545\H,0,-1.373079
 ,1.175913,-0.04566\H,0,-0.352281,-1.756731,-0.035536\H,0,0.715617,-0.2
 7152,-0.023812\\Version=ES64L-G09RevD.01\State=1-A\HF=-155.6968369\MP2
 =-155.9227764\RMSD=3.870e-09\PG=C01 [X(C4H6)]\\@

 Normal termination of Gaussian 09 at Wed Aug 26 09:27:48 2020.
