 Gaussian 09, Revision D.01,
 Gaussian 09:  ES64L-G09RevD.01 24-Apr-2013

 --------------------
 #p B2PLYPD3/Def2QZVP
 --------------------

 ---------
 butadiene
 ---------
 Symbolic Z-matrix:
 Charge =  0 Multiplicity = 1

                         Standard orientation:
 ---------------------------------------------------------------------
 Center     Atomic      Atomic             Coordinates (Angstroms)
 Number     Number       Type             X           Y           Z
 ---------------------------------------------------------------------
      1          6           0        1.838674    0.098323    0.065945
      2          6           0        0.591369   -0.392572   -0.085182
      3          6           0       -0.597420    0.447742   -0.014908
      4          6           0       -1.819118   -0.107913    0.022357
      5          1           0        2.628719   -0.634075    0.099274
      6          1           0        2.004131    1.184514   -0.068957
      7          1           0        0.427723   -1.378770   -0.018572
      8          1           0       -0.524061    1.541249   -0.074719
      9          1           0       -1.764802   -1.276069   -0.006663
     10          1           0       -2.852739    0.289670    0.140363
 ---------------------------------------------------------------------

 SCF Done:  E(RB2PLYPD3) =  -155.679495715     A.U. after   11 cycles
 E2(B2PLYPD3) =    -0.2273856168D+00 E(B2PLYPD3) =    -0.15590688133188D+03

 The electronic state is 1-A.
 Alpha  occ. eigenvalues --  -10.63004 -10.62837 -10.61948 -10.61826  -0.93199
 Alpha  occ. eigenvalues --   -0.84478  -0.69344  -0.64831  -0.54575  -0.53414
 Alpha  occ. eigenvalues --   -0.46494  -0.44725  -0.41015  -0.38022  -0.27499
 Alpha virt. eigenvalues --    0.01570   0.06973   0.07318   0.08063   0.08946
 Alpha virt. eigenvalues --    0.11495   0.12604   0.14038   0.15648   0.16640
 Alpha virt. eigenvalues --    0.18290   0.19725   0.21184   0.23137   0.24477

 Mulliken charges:
               1
     1  C   -0.175578
     2  C   -0.039549
     3  C   -0.025259
     4  C   -0.163711
     5  H    0.080794
     6  H    0.074792
     7  H    0.070759
     8  H    0.054400
     9  H    0.031253
    10  H    0.092099
 Sum of Mulliken charges =   0.00000

 Dipole moment (field-independent basis, Debye):
    X=             -0.0672    Y=              0.0096    Z=             -0.0012  Tot=              0.0679
 Quadrupole moment (field-independent basis, Debye-Ang):
   XX=            -23.6435   YY=            -23.2555   ZZ=            -29.3800
   XY=             -0.2369   XZ=             -0.2454   YZ=             -0.2072

 1\1\GINC-NODE21\SP\RB2PLYPD3-FC\def2QZVP\C4H6\BOITTIER\26-Aug-2020\0\\
 #p B2PLYPD3/Def2QZVP\\butadiene\\0,1\C,0,-3.842492,0.207113,-0.042094\
 C,0,-2.703434,-0.498876,0.111898\C,0,-1.38312,0.113609,0.034948\C,0,-0
 .281232,-0.652798,0.001032\H,0,-4.751348,-0.371597,-0.069733\H,0,-3.80
 982,1.30627,0.085078\H,0,-2.719794,-1.498868,0.052298\H,0,-1.258672,1.
 202887,0.086929\H,0,-0.544531,-1.791943,0.038484\H,0,0.806793,-0.44827
 4,-0.120381\\Version=ES64L-G09RevD.01\State=1-A\HF=-155.6794957\MP2=-1
 55.9068813\RMSD=8.828e-09\PG=C01 [X(C4H6)]\\@

 Normal termination of Gaussian 09 at Wed Aug 26 14:15:59 2020.
