 Gaussian 09, Revision D.01,
 Gaussian 09:  ES64L-G09RevD.01 24-Apr-2013

 --------------------
 #p B2PLYPD3/Def2QZVP
 --------------------

 ---------
 butadiene
 ---------
 Symbolic Z-matrix:
 Charge =  0 Multiplicity = 1

                         Standard orientation:
 ---------------------------------------------------------------------
 Center     Atomic      Atomic             Coordinates (Angstroms)
 Number     Number       Type             X           Y           Z
 ---------------------------------------------------------------------
      1          6           0        1.875058   -0.125723    0.010082
      2          6           0        0.634515    0.402239   -0.074383
      3          6           0       -0.630854   -0.361091   -0.016122
      4          6           0       -1.871563    0.112785    0.042421
      5          1           0        2.805484    0.439183    0.166843
      6          1           0        1.886186   -1.192079   -0.057432
      7          1           0        0.480415    1.430803    0.153130
      8          1           0       -0.548991   -1.419057    0.065928
      9          1           0       -1.966347    1.195433   -0.113488
     10          1           0       -2.699686   -0.623543    0.013033
 ---------------------------------------------------------------------

 SCF Done:  E(RB2PLYPD3) =  -155.687583520     A.U. after   11 cycles
 E2(B2PLYPD3) =    -0.2265999989D+00 E(B2PLYPD3) =    -0.15591418351842D+03

 The electronic state is 1-A.
 Alpha  occ. eigenvalues --  -10.62828 -10.62297 -10.62242 -10.61824  -0.92720
 Alpha  occ. eigenvalues --   -0.85172  -0.69856  -0.64066  -0.54260  -0.53990
 Alpha  occ. eigenvalues --   -0.46765  -0.45518  -0.40831  -0.37583  -0.28011
 Alpha virt. eigenvalues --    0.01378   0.06977   0.07659   0.07925   0.09211
 Alpha virt. eigenvalues --    0.11717   0.12492   0.14410   0.15289   0.16105
 Alpha virt. eigenvalues --    0.18682   0.19190   0.21372   0.23454   0.24542

 Mulliken charges:
               1
     1  C   -0.176356
     2  C   -0.040677
     3  C   -0.020924
     4  C   -0.179849
     5  H    0.095345
     6  H    0.066553
     7  H    0.057499
     8  H    0.044085
     9  H    0.065226
    10  H    0.089100
 Sum of Mulliken charges =   0.00000

 Dipole moment (field-independent basis, Debye):
    X=              0.1279    Y=             -0.0827    Z=              0.1370  Tot=              0.2049
 Quadrupole moment (field-independent basis, Debye-Ang):
   XX=            -23.4924   YY=            -23.4260   ZZ=            -29.2596
   XY=              0.4023   XZ=              0.7429   YZ=              0.1444

 1\1\GINC-NODE35\SP\RB2PLYPD3-FC\def2QZVP\C4H6\BOITTIER\26-Aug-2020\0\\
 #p B2PLYPD3/Def2QZVP\\butadiene\\0,1\C,0,-3.877958,0.227202,0.041613\C
 ,0,-2.744544,-0.504542,-0.027303\C,0,-1.368475,0.036779,-0.002147\C,0,
 -0.224423,-0.636506,0.069813\H,0,-4.888445,-0.167138,0.22271\H,0,-3.71
 0558,1.277073,-0.065837\H,0,-2.763104,-1.535396,0.238115\H,0,-1.270753
 ,1.095724,0.040423\H,0,-0.314271,-1.724626,-0.045681\H,0,0.715239,-0.0
 5146,0.009921\\Version=ES64L-G09RevD.01\State=1-A\HF=-155.6875835\MP2=
 -155.9141835\RMSD=6.258e-09\PG=C01 [X(C4H6)]\\@

 Normal termination of Gaussian 09 at Wed Aug 26 10:57:08 2020.
