 Gaussian 09, Revision D.01,
 Gaussian 09:  ES64L-G09RevD.01 24-Apr-2013

 --------------------
 #p B2PLYPD3/Def2QZVP
 --------------------

 ---------
 butadiene
 ---------
 Symbolic Z-matrix:
 Charge =  0 Multiplicity = 1

                         Standard orientation:
 ---------------------------------------------------------------------
 Center     Atomic      Atomic             Coordinates (Angstroms)
 Number     Number       Type             X           Y           Z
 ---------------------------------------------------------------------
      1          6           0       -1.857705    0.076805   -0.026326
      2          6           0       -0.617688   -0.325664    0.033559
      3          6           0        0.638474    0.408268    0.025466
      4          6           0        1.825243   -0.164646   -0.053627
      5          1           0       -2.661768   -0.567745    0.052970
      6          1           0       -2.045275    1.106583   -0.071456
      7          1           0       -0.412634   -1.334601    0.087424
      8          1           0        0.618107    1.492695   -0.055871
      9          1           0        1.906841   -1.240723   -0.113911
     10          1           0        2.664786    0.575208    0.226414
 ---------------------------------------------------------------------

 SCF Done:  E(RB2PLYPD3) =  -155.682321895     A.U. after   11 cycles
 E2(B2PLYPD3) =    -0.2250172114D+00 E(B2PLYPD3) =    -0.15590733910588D+03

 The electronic state is 1-A.
 Alpha  occ. eigenvalues --  -10.62189 -10.62026 -10.61246 -10.60189  -0.93604
 Alpha  occ. eigenvalues --   -0.85985  -0.70394  -0.64345  -0.54973  -0.54483
 Alpha  occ. eigenvalues --   -0.46924  -0.45919  -0.40793  -0.37908  -0.28222
 Alpha virt. eigenvalues --    0.01730   0.06842   0.07674   0.07969   0.10086
 Alpha virt. eigenvalues --    0.11959   0.12316   0.14800   0.15225   0.16080
 Alpha virt. eigenvalues --    0.18949   0.19717   0.21683   0.22500   0.24557

 Mulliken charges:
               1
     1  C   -0.181047
     2  C   -0.023128
     3  C   -0.023301
     4  C   -0.176557
     5  H    0.091594
     6  H    0.064332
     7  H    0.047800
     8  H    0.051297
     9  H    0.069043
    10  H    0.079966
 Sum of Mulliken charges =   0.00000

 Dipole moment (field-independent basis, Debye):
    X=             -0.0637    Y=             -0.0098    Z=              0.1464  Tot=              0.1599
 Quadrupole moment (field-independent basis, Debye-Ang):
   XX=            -23.9641   YY=            -23.1295   ZZ=            -28.9109
   XY=              0.1036   XZ=              0.3546   YZ=              0.0459

 1\1\GINC-NODE39\SP\RB2PLYPD3-FC\def2QZVP\C4H6\BOITTIER\26-Aug-2020\0\\
 #p B2PLYPD3/Def2QZVP\\butadiene\\0,1\C,0,-3.868075,0.180205,-0.009414\
 C,0,-2.715736,-0.427761,0.066094\C,0,-1.352101,0.078962,0.046144\C,0,-
 0.281449,-0.691146,-0.0134\H,0,-4.77101,-0.314423,0.08169\H,0,-3.87580
 2,1.225462,-0.080408\H,0,-2.687206,-1.455282,0.145398\H,0,-1.185703,1.
 14841,-0.06158\H,0,-0.386023,-1.766394,-0.047166\H,0,0.672644,-0.09987
 5,0.252579\\Version=ES64L-G09RevD.01\State=1-A\HF=-155.6823219\MP2=-15
 5.9073391\RMSD=8.980e-09\PG=C01 [X(C4H6)]\\@

 Normal termination of Gaussian 09 at Wed Aug 26 11:42:54 2020.
