 Gaussian 09, Revision D.01,
 Gaussian 09:  ES64L-G09RevD.01 24-Apr-2013

 --------------------
 #p B2PLYPD3/Def2QZVP
 --------------------

 ---------
 butadiene
 ---------
 Symbolic Z-matrix:
 Charge =  0 Multiplicity = 1

                         Standard orientation:
 ---------------------------------------------------------------------
 Center     Atomic      Atomic             Coordinates (Angstroms)
 Number     Number       Type             X           Y           Z
 ---------------------------------------------------------------------
      1          6           0       -1.812869    0.106331   -0.100982
      2          6           0       -0.612138   -0.451481    0.127380
      3          6           0        0.563628    0.369832    0.080716
      4          6           0        1.838054   -0.082556   -0.063885
      5          1           0       -2.843250   -0.302109   -0.107935
      6          1           0       -1.705635    1.279701    0.007329
      7          1           0       -0.509036   -1.451137   -0.025785
      8          1           0        0.428831    1.412167    0.084414
      9          1           0        2.062392   -1.145908   -0.070964
     10          1           0        2.706651    0.554531   -0.146429
 ---------------------------------------------------------------------

 SCF Done:  E(RB2PLYPD3) =  -155.677107474     A.U. after   11 cycles
 E2(B2PLYPD3) =    -0.2276809106D+00 E(B2PLYPD3) =    -0.15590478838421D+03

 The electronic state is 1-A.
 Alpha  occ. eigenvalues --  -10.63200 -10.62492 -10.62098 -10.61761  -0.93555
 Alpha  occ. eigenvalues --   -0.84301  -0.69855  -0.65371  -0.55159  -0.53335
 Alpha  occ. eigenvalues --   -0.46953  -0.43815  -0.41460  -0.38265  -0.27351
 Alpha virt. eigenvalues --    0.01064   0.06957   0.07492   0.08149   0.08994
 Alpha virt. eigenvalues --    0.11499   0.12942   0.14087   0.15244   0.16893
 Alpha virt. eigenvalues --    0.18658   0.19184   0.21678   0.22332   0.24921

 Mulliken charges:
               1
     1  C   -0.153433
     2  C   -0.034902
     3  C   -0.028381
     4  C   -0.184653
     5  H    0.091354
     6  H    0.033010
     7  H    0.072225
     8  H    0.059674
     9  H    0.061317
    10  H    0.083790
 Sum of Mulliken charges =   0.00000

 Dipole moment (field-independent basis, Debye):
    X=             -0.0945    Y=             -0.0958    Z=             -0.1030  Tot=              0.1694
 Quadrupole moment (field-independent basis, Debye-Ang):
   XX=            -23.1112   YY=            -23.6219   ZZ=            -29.3097
   XY=              0.2754   XZ=             -0.1398   YZ=              0.2106

 1\1\GINC-NODE26\SP\RB2PLYPD3-FC\def2QZVP\C4H6\BOITTIER\26-Aug-2020\0\\
 #p B2PLYPD3/Def2QZVP\\butadiene\\0,1\C,0,-3.812232,0.221025,-0.082684\
 C,0,-2.731256,-0.539184,0.159452\C,0,-1.426384,0.053865,0.090445\C,0,-
 0.25585,-0.625656,-0.043071\H,0,-4.899594,0.00613,-0.078218\H,0,-3.493
 54,1.357897,-0.005306\H,0,-2.811858,-1.544568,0.032532\H,0,-1.370026,1
 .103109,0.06685\H,0,-0.227978,-1.711883,-0.022363\H,0,0.713362,-0.1589
 48,-0.142902\\Version=ES64L-G09RevD.01\State=1-A\HF=-155.6771075\MP2=-
 155.9047884\RMSD=7.041e-09\PG=C01 [X(C4H6)]\\@

 Normal termination of Gaussian 09 at Wed Aug 26 15:39:43 2020.
