 Gaussian 09, Revision D.01,
 Gaussian 09:  ES64L-G09RevD.01 24-Apr-2013

 --------------------
 #p B2PLYPD3/Def2QZVP
 --------------------

 ---------
 butadiene
 ---------
 Symbolic Z-matrix:
 Charge =  0 Multiplicity = 1

                         Standard orientation:
 ---------------------------------------------------------------------
 Center     Atomic      Atomic             Coordinates (Angstroms)
 Number     Number       Type             X           Y           Z
 ---------------------------------------------------------------------
      1          6           0       -1.833822   -0.153215   -0.059699
      2          6           0       -0.634292    0.405035    0.050009
      3          6           0        0.629373   -0.350434    0.109597
      4          6           0        1.849179    0.109298   -0.082040
      5          1           0       -2.628433    0.532906   -0.064695
      6          1           0       -1.955871   -1.254266   -0.062225
      7          1           0       -0.681425    1.585206    0.056197
      8          1           0        0.463180   -1.418634    0.058417
      9          1           0        2.085255    1.144144   -0.002207
     10          1           0        2.654667   -0.653463   -0.092692
 ---------------------------------------------------------------------

 SCF Done:  E(RB2PLYPD3) =  -155.685529758     A.U. after   11 cycles
 E2(B2PLYPD3) =    -0.2261771066D+00 E(B2PLYPD3) =    -0.15591170686465D+03

 The electronic state is 1-A.
 Alpha  occ. eigenvalues --  -10.63329 -10.62491 -10.61455 -10.61274  -0.92842
 Alpha  occ. eigenvalues --   -0.85654  -0.69779  -0.62721  -0.54783  -0.53624
 Alpha  occ. eigenvalues --   -0.46690  -0.45047  -0.40253  -0.38079  -0.28243
 Alpha virt. eigenvalues --    0.01940   0.06966   0.07120   0.07882   0.09655
 Alpha virt. eigenvalues --    0.11606   0.12207   0.14602   0.15626   0.16062
 Alpha virt. eigenvalues --    0.18945   0.19626   0.21019   0.22804   0.24447

 Mulliken charges:
               1
     1  C   -0.180363
     2  C   -0.020945
     3  C   -0.031794
     4  C   -0.166771
     5  H    0.090516
     6  H    0.066553
     7  H    0.031461
     8  H    0.054180
     9  H    0.079570
    10  H    0.077593
 Sum of Mulliken charges =   0.00000

 Dipole moment (field-independent basis, Debye):
    X=             -0.0200    Y=             -0.0205    Z=              0.0199  Tot=              0.0349
 Quadrupole moment (field-independent basis, Debye-Ang):
   XX=            -23.9317   YY=            -22.9405   ZZ=            -29.2982
   XY=             -0.1238   XZ=              0.0081   YZ=              0.1272

 1\1\GINC-NODE25\SP\RB2PLYPD3-FC\def2QZVP\C4H6\BOITTIER\26-Aug-2020\0\\
 #p B2PLYPD3/Def2QZVP\\butadiene\\0,1\C,0,-3.834657,0.246754,0.082035\C
 ,0,-2.746533,-0.506916,-0.020528\C,0,-1.373533,0.023905,-0.085571\C,0,
 -0.248743,-0.633142,0.112275\H,0,-4.733638,-0.295387,0.092502\H,0,-3.7
 69185,1.352584,0.073747\H,0,-2.992112,-1.662221,-0.015383\H,0,-1.35710
 5,1.10528,-0.044954\H,0,-0.190667,-1.693712,0.042786\H,0,0.673893,-0.0
 17146,0.116731\\Version=ES64L-G09RevD.01\State=1-A\HF=-155.6855298\MP2
 =-155.9117069\RMSD=6.030e-09\PG=C01 [X(C4H6)]\\@

 Normal termination of Gaussian 09 at Wed Aug 26 12:47:46 2020.
