 Gaussian 09, Revision D.01,
 Gaussian 09:  ES64L-G09RevD.01 24-Apr-2013

 --------------------
 #p B2PLYPD3/Def2QZVP
 --------------------

 ---------
 butadiene
 ---------
 Symbolic Z-matrix:
 Charge =  0 Multiplicity = 1

                         Standard orientation:
 ---------------------------------------------------------------------
 Center     Atomic      Atomic             Coordinates (Angstroms)
 Number     Number       Type             X           Y           Z
 ---------------------------------------------------------------------
      1          6           0       -1.841007    0.111086    0.014197
      2          6           0       -0.611517   -0.382803   -0.010628
      3          6           0        0.610029    0.411723   -0.021418
      4          6           0        1.844492   -0.125937    0.020288
      5          1           0       -2.674579   -0.580738   -0.060096
      6          1           0       -2.024967    1.165938    0.095749
      7          1           0       -0.504186   -1.458027   -0.011279
      8          1           0        0.517142    1.479625   -0.058259
      9          1           0        1.964975   -1.194732    0.030681
     10          1           0        2.709631    0.503520   -0.011440
 ---------------------------------------------------------------------

 SCF Done:  E(RB2PLYPD3) =  -155.700391812     A.U. after   11 cycles
 E2(B2PLYPD3) =    -0.2255084249D+00 E(B2PLYPD3) =    -0.15592590023700D+03

 The electronic state is 1-A.
 Alpha  occ. eigenvalues --  -10.62529 -10.62233 -10.61471 -10.61226  -0.92939
 Alpha  occ. eigenvalues --   -0.85071  -0.70074  -0.64240  -0.54557  -0.54201
 Alpha  occ. eigenvalues --   -0.46348  -0.46057  -0.41435  -0.37965  -0.27664
 Alpha virt. eigenvalues --    0.01743   0.06999   0.07518   0.08038   0.09637
 Alpha virt. eigenvalues --    0.11748   0.12346   0.14769   0.15850   0.16126
 Alpha virt. eigenvalues --    0.18793   0.20491   0.21400   0.22697   0.24228

 Mulliken charges:
               1
     1  C   -0.180002
     2  C   -0.024335
     3  C   -0.038782
     4  C   -0.177828
     5  H    0.084806
     6  H    0.070196
     7  H    0.053153
     8  H    0.056914
     9  H    0.068201
    10  H    0.087678
 Sum of Mulliken charges =   0.00000

 Dipole moment (field-independent basis, Debye):
    X=              0.0153    Y=              0.0103    Z=             -0.0310  Tot=              0.0361
 Quadrupole moment (field-independent basis, Debye-Ang):
   XX=            -23.6800   YY=            -22.9530   ZZ=            -29.2400
   XY=              0.0125   XZ=             -0.0173   YZ=              0.0626

 1\1\GINC-NODE37\SP\RB2PLYPD3-FC\def2QZVP\C4H6\BOITTIER\26-Aug-2020\0\\
 #p B2PLYPD3/Def2QZVP\\butadiene\\0,1\C,0,-3.845259,0.217643,0.032873\C
 ,0,-2.722043,-0.485549,0.023112\C,0,-1.37972,0.080839,-0.007479\C,0,-0
 .259089,-0.664512,0.050457\H,0,-4.787878,-0.318301,-0.023831\H,0,-3.84
 0315,1.29021,0.08561\H,0,-2.80573,-1.562492,0.051691\H,0,-1.283231,1.1
 47026,-0.073319\H,0,-0.328661,-1.737149,0.089921\H,0,0.70326,-0.198346
 ,0.002909\\Version=ES64L-G09RevD.01\State=1-A\HF=-155.7003918\MP2=-155
 .9259002\RMSD=5.670e-09\PG=C01 [X(C4H6)]\\@

 Normal termination of Gaussian 09 at Wed Aug 26 21:44:18 2020.
