 Gaussian 09, Revision D.01,
 Gaussian 09:  ES64L-G09RevD.01 24-Apr-2013

 --------------------
 #p B2PLYPD3/Def2QZVP
 --------------------

 ---------
 butadiene
 ---------
 Symbolic Z-matrix:
 Charge =  0 Multiplicity = 1

                         Standard orientation:
 ---------------------------------------------------------------------
 Center     Atomic      Atomic             Coordinates (Angstroms)
 Number     Number       Type             X           Y           Z
 ---------------------------------------------------------------------
      1          6           0        1.837412   -0.118719    0.034292
      2          6           0        0.609139    0.410198   -0.040667
      3          6           0       -0.591117   -0.390099   -0.045074
      4          6           0       -1.846072    0.104570    0.016115
      5          1           0        2.728554    0.510680    0.079128
      6          1           0        1.984431   -1.168188    0.073848
      7          1           0        0.485599    1.528710   -0.066080
      8          1           0       -0.458184   -1.470021   -0.112584
      9          1           0       -2.142020    1.147319    0.074582
     10          1           0       -2.654550   -0.584197    0.163108
 ---------------------------------------------------------------------

 SCF Done:  E(RB2PLYPD3) =  -155.697075314     A.U. after   11 cycles
 E2(B2PLYPD3) =    -0.2263743864D+00 E(B2PLYPD3) =    -0.15592344969996D+03

 The electronic state is 1-A.
 Alpha  occ. eigenvalues --  -10.62949 -10.62850 -10.61646 -10.61506  -0.92884
 Alpha  occ. eigenvalues --   -0.84670  -0.70474  -0.63771  -0.54460  -0.53961
 Alpha  occ. eigenvalues --   -0.46413  -0.45639  -0.41237  -0.37991  -0.27424
 Alpha virt. eigenvalues --    0.01410   0.06990   0.07358   0.07957   0.09534
 Alpha virt. eigenvalues --    0.11559   0.12438   0.14889   0.15780   0.16172
 Alpha virt. eigenvalues --    0.18798   0.20300   0.21925   0.22536   0.23709

 Mulliken charges:
               1
     1  C   -0.175453
     2  C   -0.026214
     3  C   -0.035747
     4  C   -0.174663
     5  H    0.085134
     6  H    0.067675
     7  H    0.052772
     8  H    0.058710
     9  H    0.069206
    10  H    0.078581
 Sum of Mulliken charges =   0.00000

 Dipole moment (field-independent basis, Debye):
    X=              0.0276    Y=             -0.0135    Z=              0.1385  Tot=              0.1419
 Quadrupole moment (field-independent basis, Debye-Ang):
   XX=            -23.5435   YY=            -23.0621   ZZ=            -29.3102
   XY=             -0.3548   XZ=             -0.2437   YZ=             -0.0105

 1\1\GINC-NODE23\SP\RB2PLYPD3-FC\def2QZVP\C4H6\BOITTIER\26-Aug-2020\0\\
 #p B2PLYPD3/Def2QZVP\\butadiene\\0,1\C,0,-3.83566,0.23878,0.052279\C,0
 ,-2.724832,-0.507534,-0.003444\C,0,-1.398532,0.059539,-0.02506\C,0,-0.
 255052,-0.654239,0.05448\H,0,-4.82677,-0.215707,0.110838\H,0,-3.78835,
 1.298129,0.062583\H,0,-2.807828,-1.630056,0.002184\H,0,-1.331934,1.143
 291,-0.122559\H,0,-0.154597,-1.731495,0.142555\H,0,0.665865,-0.121014,
 0.185735\\Version=ES64L-G09RevD.01\State=1-A\HF=-155.6970753\MP2=-155.
 9234497\RMSD=4.100e-09\PG=C01 [X(C4H6)]\\@

 Normal termination of Gaussian 09 at Wed Aug 26 09:42:32 2020.
