 Gaussian 09, Revision D.01,
 Gaussian 09:  ES64L-G09RevD.01 24-Apr-2013

 --------------------
 #p B2PLYPD3/Def2QZVP
 --------------------

 ---------
 butadiene
 ---------
 Symbolic Z-matrix:
 Charge =  0 Multiplicity = 1

                         Standard orientation:
 ---------------------------------------------------------------------
 Center     Atomic      Atomic             Coordinates (Angstroms)
 Number     Number       Type             X           Y           Z
 ---------------------------------------------------------------------
      1          6           0       -1.835689    0.098421    0.001051
      2          6           0       -0.586341   -0.397470   -0.012184
      3          6           0        0.598905    0.417382   -0.009041
      4          6           0        1.822586   -0.113440    0.015202
      5          1           0       -2.706557   -0.528963    0.041032
      6          1           0       -2.047052    1.164115   -0.024971
      7          1           0       -0.426410   -1.482560    0.010476
      8          1           0        0.484388    1.495249    0.052387
      9          1           0        1.990527   -1.191595   -0.009694
     10          1           0        2.708338    0.514401   -0.039400
 ---------------------------------------------------------------------

 SCF Done:  E(RB2PLYPD3) =  -155.700049948     A.U. after   11 cycles
 E2(B2PLYPD3) =    -0.2260431508D+00 E(B2PLYPD3) =    -0.15592609309925D+03

 The electronic state is 1-A.
 Alpha  occ. eigenvalues --  -10.62687 -10.62406 -10.61619 -10.61555  -0.93162
 Alpha  occ. eigenvalues --   -0.84664  -0.70234  -0.64061  -0.54692  -0.53780
 Alpha  occ. eigenvalues --   -0.46503  -0.45387  -0.41360  -0.38253  -0.27463
 Alpha virt. eigenvalues --    0.01604   0.07038   0.07330   0.08050   0.09517
 Alpha virt. eigenvalues --    0.11675   0.12463   0.14762   0.15787   0.16233
 Alpha virt. eigenvalues --    0.18751   0.20292   0.21909   0.22908   0.23634

 Mulliken charges:
               1
     1  C   -0.177632
     2  C   -0.029934
     3  C   -0.028303
     4  C   -0.173011
     5  H    0.084308
     6  H    0.064566
     7  H    0.054555
     8  H    0.059267
     9  H    0.064105
    10  H    0.082080
 Sum of Mulliken charges =   0.00000

 Dipole moment (field-independent basis, Debye):
    X=              0.0192    Y=              0.0166    Z=              0.0089  Tot=              0.0269
 Quadrupole moment (field-independent basis, Debye-Ang):
   XX=            -23.5097   YY=            -23.0745   ZZ=            -29.2966
   XY=             -0.2597   XZ=             -0.1983   YZ=             -0.0192

 1\1\GINC-NODE29\SP\RB2PLYPD3-FC\def2QZVP\C4H6\BOITTIER\26-Aug-2020\0\\
 #p B2PLYPD3/Def2QZVP\\butadiene\\0,1\C,0,-3.838235,0.220222,0.023106\C
 ,0,-2.701984,-0.49803,0.024621\C,0,-1.386684,0.083681,0.004655\C,0,-0.
 28192,-0.663082,0.044632\H,0,-4.809742,-0.234152,0.080876\H,0,-3.84936
 1,1.305441,-0.033737\H,0,-2.745003,-1.592901,0.078644\H,0,-1.299946,1.
 16546,0.034909\H,0,-0.316023,-1.753971,0.050922\H,0,0.704227,-0.211422
 ,-0.027761\\Version=ES64L-G09RevD.01\State=1-A\HF=-155.7000499\MP2=-15
 5.9260931\RMSD=3.038e-09\PG=C01 [X(C4H6)]\\@

 Normal termination of Gaussian 09 at Wed Aug 26 16:32:58 2020.
