 Gaussian 09, Revision D.01,
 Gaussian 09:  ES64L-G09RevD.01 24-Apr-2013

 --------------------
 #p B2PLYPD3/Def2QZVP
 --------------------

 ---------
 butadiene
 ---------
 Symbolic Z-matrix:
 Charge =  0 Multiplicity = 1

                         Standard orientation:
 ---------------------------------------------------------------------
 Center     Atomic      Atomic             Coordinates (Angstroms)
 Number     Number       Type             X           Y           Z
 ---------------------------------------------------------------------
      1          6           0        1.823154   -0.117988    0.038145
      2          6           0        0.585331    0.412552   -0.047914
      3          6           0       -0.600189   -0.388643   -0.044308
      4          6           0       -1.828709    0.093441    0.010913
      5          1           0        2.699200    0.465900    0.016467
      6          1           0        2.000304   -1.209460    0.059661
      7          1           0        0.567807    1.561284    0.028831
      8          1           0       -0.433415   -1.451227   -0.040880
      9          1           0       -1.996899    1.175772    0.059070
     10          1           0       -2.714515   -0.538447    0.135834
 ---------------------------------------------------------------------

 SCF Done:  E(RB2PLYPD3) =  -155.693928372     A.U. after   11 cycles
 E2(B2PLYPD3) =    -0.2263597053D+00 E(B2PLYPD3) =    -0.15592028807744D+03

 The electronic state is 1-A.
 Alpha  occ. eigenvalues --  -10.63239 -10.62233 -10.61605 -10.61580  -0.93303
 Alpha  occ. eigenvalues --   -0.84831  -0.70264  -0.63515  -0.54826  -0.53791
 Alpha  occ. eigenvalues --   -0.46591  -0.44651  -0.41176  -0.38458  -0.27542
 Alpha virt. eigenvalues --    0.01565   0.07058   0.07221   0.07913   0.09633
 Alpha virt. eigenvalues --    0.11613   0.12463   0.14564   0.15731   0.16457
 Alpha virt. eigenvalues --    0.18788   0.19803   0.22145   0.22747   0.23652

 Mulliken charges:
               1
     1  C   -0.174920
     2  C   -0.025844
     3  C   -0.029151
     4  C   -0.166586
     5  H    0.086205
     6  H    0.056143
     7  H    0.048182
     8  H    0.058516
     9  H    0.063764
    10  H    0.083690
 Sum of Mulliken charges =   0.00000

 Dipole moment (field-independent basis, Debye):
    X=              0.0457    Y=             -0.0267    Z=              0.1714  Tot=              0.1794
 Quadrupole moment (field-independent basis, Debye-Ang):
   XX=            -23.4361   YY=            -23.1906   ZZ=            -29.2842
   XY=             -0.0250   XZ=             -0.3231   YZ=              0.0198

 1\1\GINC-NODE25\SP\RB2PLYPD3-FC\def2QZVP\C4H6\BOITTIER\26-Aug-2020\0\\
 #p B2PLYPD3/Def2QZVP\\butadiene\\0,1\C,0,-3.825939,0.23277,0.05606\C,0
 ,-2.70499,-0.515836,-0.008349\C,0,-1.393798,0.056809,-0.023783\C,0,-0.
 273049,-0.638151,0.05151\H,0,-4.793392,-0.182951,0.048213\H,0,-3.80213
 1,1.338408,0.043654\H,0,-2.896051,-1.645797,0.103299\H,0,-1.365048,1.1
 31615,-0.053345\H,0,-0.303931,-1.731043,0.133238\H,0,0.712826,-0.17385
 4,0.161138\\Version=ES64L-G09RevD.01\State=1-A\HF=-155.6939284\MP2=-15
 5.9202881\RMSD=6.504e-09\PG=C01 [X(C4H6)]\\@

 Normal termination of Gaussian 09 at Wed Aug 26 10:09:49 2020.
