 Gaussian 09, Revision D.01,
 Gaussian 09:  ES64L-G09RevD.01 24-Apr-2013

 --------------------
 #p B2PLYPD3/Def2QZVP
 --------------------

 ---------
 butadiene
 ---------
 Symbolic Z-matrix:
 Charge =  0 Multiplicity = 1

                         Standard orientation:
 ---------------------------------------------------------------------
 Center     Atomic      Atomic             Coordinates (Angstroms)
 Number     Number       Type             X           Y           Z
 ---------------------------------------------------------------------
      1          6           0       -1.834355    0.091383   -0.026412
      2          6           0       -0.606021   -0.394601    0.021544
      3          6           0        0.598770    0.418025    0.041406
      4          6           0        1.835156   -0.116408   -0.019020
      5          1           0       -2.723398   -0.525303   -0.020255
      6          1           0       -1.987530    1.193144   -0.008732
      7          1           0       -0.428783   -1.458898    0.029325
      8          1           0        0.450784    1.486718   -0.021157
      9          1           0        1.998609   -1.188688   -0.038277
     10          1           0        2.729020    0.502634   -0.046020
 ---------------------------------------------------------------------

 SCF Done:  E(RB2PLYPD3) =  -155.699707988     A.U. after   11 cycles
 E2(B2PLYPD3) =    -0.2258959617D+00 E(B2PLYPD3) =    -0.15592560395021D+03

 The electronic state is 1-A.
 Alpha  occ. eigenvalues --  -10.62708 -10.62228 -10.61880 -10.61613  -0.93060
 Alpha  occ. eigenvalues --   -0.84755  -0.70052  -0.64157  -0.54760  -0.53497
 Alpha  occ. eigenvalues --   -0.46970  -0.45324  -0.40998  -0.38173  -0.27690
 Alpha virt. eigenvalues --    0.01729   0.07020   0.07335   0.08124   0.09511
 Alpha virt. eigenvalues --    0.11685   0.12461   0.14613   0.15759   0.16168
 Alpha virt. eigenvalues --    0.18774   0.20332   0.21703   0.23042   0.23647

 Mulliken charges:
               1
     1  C   -0.172482
     2  C   -0.025020
     3  C   -0.033782
     4  C   -0.176126
     5  H    0.087873
     6  H    0.057991
     7  H    0.053388
     8  H    0.057750
     9  H    0.066190
    10  H    0.084218
 Sum of Mulliken charges =   0.00000

 Dipole moment (field-independent basis, Debye):
    X=              0.0218    Y=             -0.0243    Z=             -0.0506  Tot=              0.0602
 Quadrupole moment (field-independent basis, Debye-Ang):
   XX=            -23.4328   YY=            -23.1737   ZZ=            -29.2971
   XY=             -0.1923   XZ=             -0.1864   YZ=             -0.0468

 1\1\GINC-NODE14\SP\RB2PLYPD3-FC\def2QZVP\C4H6\BOITTIER\26-Aug-2020\0\\
 #p B2PLYPD3/Def2QZVP\\butadiene\\0,1\C,0,-3.838221,0.209897,-0.007365\
 C,0,-2.71928,-0.490934,0.056617\C,0,-1.386073,0.087692,0.051207\C,0,-0
 .268659,-0.665617,0.008407\H,0,-4.825029,-0.233166,0.017972\H,0,-3.787
 163,1.321086,-0.024809\H,0,-2.739692,-1.568916,0.098329\H,0,-1.336393,
 1.162922,-0.045385\H,0,-0.304228,-1.749768,0.023342\H,0,0.723208,-0.22
 1775,-0.037835\\Version=ES64L-G09RevD.01\State=1-A\HF=-155.699708\MP2=
 -155.925604\RMSD=5.636e-09\PG=C01 [X(C4H6)]\\@

 Normal termination of Gaussian 09 at Wed Aug 26 20:31:26 2020.
