 Gaussian 09, Revision D.01,
 Gaussian 09:  ES64L-G09RevD.01 24-Apr-2013

 --------------------
 #p B2PLYPD3/Def2QZVP
 --------------------

 ---------
 butadiene
 ---------
 Symbolic Z-matrix:
 Charge =  0 Multiplicity = 1

                         Standard orientation:
 ---------------------------------------------------------------------
 Center     Atomic      Atomic             Coordinates (Angstroms)
 Number     Number       Type             X           Y           Z
 ---------------------------------------------------------------------
      1          6           0       -1.824889   -0.116673   -0.002430
      2          6           0       -0.600541    0.413419   -0.001771
      3          6           0        0.606863   -0.400466   -0.008024
      4          6           0        1.833399    0.100446    0.006573
      5          1           0       -2.731968    0.475410   -0.014760
      6          1           0       -1.978678   -1.189644   -0.010106
      7          1           0       -0.526323    1.518484    0.088043
      8          1           0        0.448423   -1.470499    0.032220
      9          1           0        1.973640    1.197458   -0.083861
     10          1           0        2.725918   -0.511558    0.022380
 ---------------------------------------------------------------------

 SCF Done:  E(RB2PLYPD3) =  -155.699347873     A.U. after   11 cycles
 E2(B2PLYPD3) =    -0.2257821734D+00 E(B2PLYPD3) =    -0.15592513004609D+03

 The electronic state is 1-A.
 Alpha  occ. eigenvalues --  -10.62801 -10.62451 -10.61623 -10.61477  -0.93046
 Alpha  occ. eigenvalues --   -0.84956  -0.69805  -0.63843  -0.54739  -0.53708
 Alpha  occ. eigenvalues --   -0.46733  -0.44992  -0.41095  -0.38182  -0.27798
 Alpha virt. eigenvalues --    0.01925   0.07059   0.07311   0.07996   0.09481
 Alpha virt. eigenvalues --    0.11651   0.12504   0.14515   0.15797   0.16262
 Alpha virt. eigenvalues --    0.18746   0.20283   0.21695   0.22954   0.23723

 Mulliken charges:
               1
     1  C   -0.174073
     2  C   -0.027352
     3  C   -0.033179
     4  C   -0.170610
     5  H    0.083775
     6  H    0.060704
     7  H    0.054461
     8  H    0.056721
     9  H    0.062549
    10  H    0.087003
 Sum of Mulliken charges =   0.00000

 Dipole moment (field-independent basis, Debye):
    X=             -0.0317    Y=             -0.0314    Z=              0.0214  Tot=              0.0495
 Quadrupole moment (field-independent basis, Debye-Ang):
   XX=            -23.4112   YY=            -23.1684   ZZ=            -29.2722
   XY=              0.0436   XZ=             -0.0639   YZ=             -0.0454

 1\1\GINC-NODE18\SP\RB2PLYPD3-FC\def2QZVP\C4H6\BOITTIER\26-Aug-2020\0\\
 #p B2PLYPD3/Def2QZVP\\butadiene\\0,1\C,0,-3.828354,0.226404,0.01802\C,
 0,-2.718784,-0.514225,0.036683\C,0,-1.385096,0.069988,0.021084\C,0,-0.
 268187,-0.642765,0.024929\H,0,-4.826787,-0.192937,0.046166\H,0,-3.7874
 14,1.309293,-0.007532\H,0,-2.844003,-1.616928,-0.019084\H,0,-1.349401,
 1.149356,-0.052287\H,0,-0.326469,-1.743869,0.149246\H,0,0.71948,-0.201
 333,-0.007339\\Version=ES64L-G09RevD.01\State=1-A\HF=-155.6993479\MP2=
 -155.92513\RMSD=4.384e-09\PG=C01 [X(C4H6)]\\@

 Normal termination of Gaussian 09 at Wed Aug 26 19:12:17 2020.
