 Gaussian 09, Revision D.01,
 Gaussian 09:  ES64L-G09RevD.01 24-Apr-2013

 --------------------
 #p B2PLYPD3/Def2QZVP
 --------------------

 ---------
 butadiene
 ---------
 Symbolic Z-matrix:
 Charge =  0 Multiplicity = 1

                         Standard orientation:
 ---------------------------------------------------------------------
 Center     Atomic      Atomic             Coordinates (Angstroms)
 Number     Number       Type             X           Y           Z
 ---------------------------------------------------------------------
      1          6           0       -1.864251   -0.116456    0.023578
      2          6           0       -0.612847    0.394030   -0.123625
      3          6           0        0.633051   -0.435018   -0.056494
      4          6           0        1.880671    0.128719    0.050039
      5          1           0       -2.713225    0.574560    0.294554
      6          1           0       -2.099766   -1.106536    0.166805
      7          1           0       -0.558437    1.517503   -0.003913
      8          1           0        0.412209   -1.552953   -0.075328
      9          1           0        1.990633    1.271927    0.090710
     10          1           0        2.748836   -0.532150    0.166191
 ---------------------------------------------------------------------

 SCF Done:  E(RB2PLYPD3) =  -155.678253550     A.U. after   11 cycles
 E2(B2PLYPD3) =    -0.2287520451D+00 E(B2PLYPD3) =    -0.15590700559472D+03

 The electronic state is 1-A.
 Alpha  occ. eigenvalues --  -10.64504 -10.63854 -10.63286 -10.61810  -0.91608
 Alpha  occ. eigenvalues --   -0.84075  -0.69596  -0.63298  -0.53937  -0.52610
 Alpha  occ. eigenvalues --   -0.45941  -0.45408  -0.40576  -0.37291  -0.27467
 Alpha virt. eigenvalues --    0.01071   0.06818   0.07076   0.07771   0.08664
 Alpha virt. eigenvalues --    0.11482   0.12223   0.14421   0.15574   0.16019
 Alpha virt. eigenvalues --    0.18895   0.19988   0.21355   0.22636   0.23920

 Mulliken charges:
               1
     1  C   -0.165407
     2  C   -0.019888
     3  C   -0.055044
     4  C   -0.170347
     5  H    0.067577
     6  H    0.065447
     7  H    0.053862
     8  H    0.057524
     9  H    0.073601
    10  H    0.092677
 Sum of Mulliken charges =   0.00000

 Dipole moment (field-independent basis, Debye):
    X=              0.0126    Y=             -0.0685    Z=              0.4607  Tot=              0.4660
 Quadrupole moment (field-independent basis, Debye-Ang):
   XX=            -23.9896   YY=            -23.0308   ZZ=            -29.6296
   XY=              0.2945   XZ=             -0.6015   YZ=              0.1438

 1\1\GINC-NODE07\SP\RB2PLYPD3-FC\def2QZVP\C4H6\BOITTIER\26-Aug-2020\0\\
 #p B2PLYPD3/Def2QZVP\\butadiene\\0,1\C,0,-3.872076,0.22316,-0.024226\C
 ,0,-2.730018,-0.496514,0.137172\C,0,-1.357937,0.100743,0.068133\C,0,-0
 .227849,-0.673981,-0.023566\H,0,-4.827763,-0.312056,-0.292358\H,0,-3.9
 29993,1.237238,-0.180851\H,0,-2.872644,-1.613624,0.031316\H,0,-1.37971
 2,1.240223,0.072112\H,0,-0.319573,-1.819219,-0.049794\H,0,0.7431,-0.17
 6818,-0.142041\\Version=ES64L-G09RevD.01\State=1-A\HF=-155.6782535\MP2
 =-155.9070056\RMSD=7.051e-09\PG=C01 [X(C4H6)]\\@

 Normal termination of Gaussian 09 at Wed Aug 26 15:06:29 2020.
