 Gaussian 09, Revision D.01,
 Gaussian 09:  ES64L-G09RevD.01 24-Apr-2013

 --------------------
 #p B2PLYPD3/Def2QZVP
 --------------------

 ---------
 butadiene
 ---------
 Symbolic Z-matrix:
 Charge =  0 Multiplicity = 1

                         Standard orientation:
 ---------------------------------------------------------------------
 Center     Atomic      Atomic             Coordinates (Angstroms)
 Number     Number       Type             X           Y           Z
 ---------------------------------------------------------------------
      1          6           0        1.836629   -0.115450    0.027642
      2          6           0        0.610563    0.408573   -0.014923
      3          6           0       -0.609704   -0.391091   -0.036946
      4          6           0       -1.851017    0.103641    0.016557
      5          1           0        2.738873    0.482807    0.048341
      6          1           0        2.004953   -1.187837   -0.021116
      7          1           0        0.507114    1.501478   -0.060453
      8          1           0       -0.447598   -1.454764   -0.023414
      9          1           0       -1.992193    1.147677    0.012421
     10          1           0       -2.729972   -0.523398    0.090241
 ---------------------------------------------------------------------

 SCF Done:  E(RB2PLYPD3) =  -155.700155472     A.U. after   11 cycles
 E2(B2PLYPD3) =    -0.2256182669D+00 E(B2PLYPD3) =    -0.15592577373906D+03

 The electronic state is 1-A.
 Alpha  occ. eigenvalues --  -10.62769 -10.62518 -10.61601 -10.61272  -0.92902
 Alpha  occ. eigenvalues --   -0.84969  -0.70278  -0.64179  -0.54712  -0.53952
 Alpha  occ. eigenvalues --   -0.46939  -0.45609  -0.41103  -0.38010  -0.27727
 Alpha virt. eigenvalues --    0.01709   0.07009   0.07466   0.08071   0.09563
 Alpha virt. eigenvalues --    0.11647   0.12559   0.14653   0.15839   0.16244
 Alpha virt. eigenvalues --    0.18856   0.20485   0.21715   0.23000   0.23641

 Mulliken charges:
               1
     1  C   -0.172467
     2  C   -0.031065
     3  C   -0.030111
     4  C   -0.176644
     5  H    0.084159
     6  H    0.062093
     7  H    0.052712
     8  H    0.055846
     9  H    0.067654
    10  H    0.087821
 Sum of Mulliken charges =   0.00000

 Dipole moment (field-independent basis, Debye):
    X=              0.0306    Y=              0.0012    Z=              0.0055  Tot=              0.0311
 Quadrupole moment (field-independent basis, Debye-Ang):
   XX=            -23.2605   YY=            -23.2105   ZZ=            -29.2503
   XY=             -0.1542   XZ=             -0.2447   YZ=             -0.0467

 1\1\GINC-NODE03\SP\RB2PLYPD3-FC\def2QZVP\C4H6\BOITTIER\26-Aug-2020\0\\
 #p B2PLYPD3/Def2QZVP\\butadiene\\0,1\C,0,-3.839942,0.227779,0.043576\C
 ,0,-2.727177,-0.507597,0.018575\C,0,-1.383762,0.060577,-0.019024\C,0,-
 0.250679,-0.646284,0.051335\H,0,-4.834485,-0.199092,0.075965\H,0,-3.81
 4136,1.31141,-0.032602\H,0,-2.820564,-1.602211,0.000774\H,0,-1.353338,
 1.1361,-0.032692\H,0,-0.298182,-1.698518,0.073829\H,0,0.726173,-0.1845
 61,0.112494\\Version=ES64L-G09RevD.01\State=1-A\HF=-155.7001555\MP2=-1
 55.9257737\RMSD=4.077e-09\PG=C01 [X(C4H6)]\\@

 Normal termination of Gaussian 09 at Wed Aug 26 20:23:36 2020.
