 Gaussian 09, Revision D.01,
 Gaussian 09:  ES64L-G09RevD.01 24-Apr-2013

 --------------------
 #p B2PLYPD3/Def2QZVP
 --------------------

 ---------
 butadiene
 ---------
 Symbolic Z-matrix:
 Charge =  0 Multiplicity = 1

                         Standard orientation:
 ---------------------------------------------------------------------
 Center     Atomic      Atomic             Coordinates (Angstroms)
 Number     Number       Type             X           Y           Z
 ---------------------------------------------------------------------
      1          6           0        1.828933   -0.123118   -0.011459
      2          6           0        0.599845    0.408963   -0.005628
      3          6           0       -0.597405   -0.389600    0.014073
      4          6           0       -1.831234    0.101889   -0.001357
      5          1           0        2.697057    0.520935    0.024917
      6          1           0        1.936214   -1.186724   -0.038507
      7          1           0        0.501747    1.486860    0.072101
      8          1           0       -0.437664   -1.440411    0.047356
      9          1           0       -1.999685    1.173383   -0.059333
     10          1           0       -2.698505   -0.542844   -0.020306
 ---------------------------------------------------------------------

 SCF Done:  E(RB2PLYPD3) =  -155.700653086     A.U. after   11 cycles
 E2(B2PLYPD3) =    -0.2254974320D+00 E(B2PLYPD3) =    -0.15592615051852D+03

 The electronic state is 1-A.
 Alpha  occ. eigenvalues --  -10.62286 -10.62008 -10.61373 -10.61368  -0.93346
 Alpha  occ. eigenvalues --   -0.84982  -0.70193  -0.64380  -0.54557  -0.54247
 Alpha  occ. eigenvalues --   -0.46522  -0.45804  -0.41471  -0.38270  -0.27596
 Alpha virt. eigenvalues --    0.01749   0.07044   0.07462   0.08072   0.09662
 Alpha virt. eigenvalues --    0.11773   0.12440   0.14789   0.15810   0.16099
 Alpha virt. eigenvalues --    0.18677   0.20443   0.21533   0.22994   0.24067

 Mulliken charges:
               1
     1  C   -0.183602
     2  C   -0.024397
     3  C   -0.030518
     4  C   -0.176276
     5  H    0.087734
     6  H    0.067421
     7  H    0.053679
     8  H    0.054962
     9  H    0.065510
    10  H    0.085488
 Sum of Mulliken charges =   0.00000

 Dipole moment (field-independent basis, Debye):
    X=              0.0097    Y=             -0.0047    Z=              0.0258  Tot=              0.0279
 Quadrupole moment (field-independent basis, Debye-Ang):
   XX=            -23.6552   YY=            -23.0396   ZZ=            -29.1958
   XY=             -0.0179   XZ=              0.2220   YZ=              0.0475

 1\1\GINC-NODE13\SP\RB2PLYPD3-FC\def2QZVP\C4H6\BOITTIER\26-Aug-2020\0\\
 #p B2PLYPD3/Def2QZVP\\butadiene\\0,1\C,0,-3.828923,0.235173,0.01001\C,
 0,-2.715883,-0.509401,0.033544\C,0,-1.39419,0.06032,0.026862\C,0,-0.26
 9295,-0.645898,0.027803\H,0,-4.798702,-0.240194,0.067642\H,0,-3.742858
 ,1.299228,-0.052261\H,0,-2.813257,-1.584197,0.146942\H,0,-1.361675,1.1
 23226,0.025309\H,0,-0.297118,-1.731513,0.005362\H,0,0.699871,-0.169141
 ,-0.012435\\Version=ES64L-G09RevD.01\State=1-A\HF=-155.7006531\MP2=-15
 5.9261505\RMSD=5.051e-09\PG=C01 [X(C4H6)]\\@

 Normal termination of Gaussian 09 at Wed Aug 26 19:52:44 2020.
