 Gaussian 09, Revision D.01,
 Gaussian 09:  ES64L-G09RevD.01 24-Apr-2013

 --------------------
 #p B2PLYPD3/Def2QZVP
 --------------------

 ---------
 butadiene
 ---------
 Symbolic Z-matrix:
 Charge =  0 Multiplicity = 1

                         Standard orientation:
 ---------------------------------------------------------------------
 Center     Atomic      Atomic             Coordinates (Angstroms)
 Number     Number       Type             X           Y           Z
 ---------------------------------------------------------------------
      1          6           0       -1.845364   -0.130388    0.015325
      2          6           0       -0.612413    0.405085   -0.024504
      3          6           0        0.607615   -0.389017    0.018436
      4          6           0        1.842208    0.098044   -0.011537
      5          1           0       -2.684946    0.598953    0.001797
      6          1           0       -2.072313   -1.188112    0.053712
      7          1           0       -0.471316    1.498087   -0.068675
      8          1           0        0.483096   -1.447888   -0.104173
      9          1           0        2.041884    1.156760    0.121833
     10          1           0        2.751318   -0.520142    0.009183
 ---------------------------------------------------------------------

 SCF Done:  E(RB2PLYPD3) =  -155.696664273     A.U. after   11 cycles
 E2(B2PLYPD3) =    -0.2261771567D+00 E(B2PLYPD3) =    -0.15592284142919D+03

 The electronic state is 1-A.
 Alpha  occ. eigenvalues --  -10.62989 -10.62278 -10.62112 -10.61593  -0.92870
 Alpha  occ. eigenvalues --   -0.84803  -0.69978  -0.63972  -0.54192  -0.53940
 Alpha  occ. eigenvalues --   -0.46663  -0.45352  -0.40700  -0.38041  -0.27772
 Alpha virt. eigenvalues --    0.01621   0.06953   0.07422   0.07938   0.09464
 Alpha virt. eigenvalues --    0.11632   0.12294   0.14794   0.15607   0.16141
 Alpha virt. eigenvalues --    0.18755   0.19977   0.21924   0.22738   0.23592

 Mulliken charges:
               1
     1  C   -0.176396
     2  C   -0.038397
     3  C   -0.028600
     4  C   -0.169930
     5  H    0.080066
     6  H    0.077919
     7  H    0.056450
     8  H    0.060247
     9  H    0.059640
    10  H    0.079000
 Sum of Mulliken charges =   0.00000

 Dipole moment (field-independent basis, Debye):
    X=              0.0041    Y=             -0.0170    Z=              0.0210  Tot=              0.0273
 Quadrupole moment (field-independent basis, Debye-Ang):
   XX=            -23.5618   YY=            -23.1047   ZZ=            -29.3111
   XY=              0.3073   XZ=              0.1072   YZ=              0.1297

 1\1\GINC-NODE38\SP\RB2PLYPD3-FC\def2QZVP\C4H6\BOITTIER\26-Aug-2020\0\\
 #p B2PLYPD3/Def2QZVP\\butadiene\\0,1\C,0,-3.843237,0.24266,0.006395\C,
 0,-2.726499,-0.50486,0.057357\C,0,-1.383744,0.055981,-0.000755\C,0,-0.
 25672,-0.644413,0.039396\H,0,-4.800195,-0.323456,0.033986\H,0,-3.87648
 4,1.322995,-0.053019\H,0,-2.784028,-1.604344,0.123214\H,0,-1.315521,1.
 122177,0.100818\H,0,-0.251017,-1.724179,-0.072906\H,0,0.748631,-0.2002
 59,0.006845\\Version=ES64L-G09RevD.01\State=1-A\HF=-155.6966643\MP2=-1
 55.9228414\RMSD=6.032e-09\PG=C01 [X(C4H6)]\\@

 Normal termination of Gaussian 09 at Wed Aug 26 09:03:16 2020.
