 Gaussian 09, Revision D.01,
 Gaussian 09:  ES64L-G09RevD.01 24-Apr-2013

 --------------------
 #p B2PLYPD3/Def2QZVP
 --------------------

 ---------
 butadiene
 ---------
 Symbolic Z-matrix:
 Charge =  0 Multiplicity = 1

                         Standard orientation:
 ---------------------------------------------------------------------
 Center     Atomic      Atomic             Coordinates (Angstroms)
 Number     Number       Type             X           Y           Z
 ---------------------------------------------------------------------
      1          6           0       -1.853039    0.104773   -0.050742
      2          6           0       -0.621514   -0.378997    0.066603
      3          6           0        0.612777    0.423299    0.041636
      4          6           0        1.848809   -0.123577   -0.028186
      5          1           0       -2.685712   -0.588574   -0.039223
      6          1           0       -2.015766    1.126243    0.006860
      7          1           0       -0.431902   -1.407744   -0.040375
      8          1           0        0.494551    1.481874   -0.004698
      9          1           0        1.935141   -1.231101   -0.012912
     10          1           0        2.781493    0.466318   -0.085515
 ---------------------------------------------------------------------

 SCF Done:  E(RB2PLYPD3) =  -155.694527894     A.U. after   11 cycles
 E2(B2PLYPD3) =    -0.2259448514D+00 E(B2PLYPD3) =    -0.15592047274552D+03

 The electronic state is 1-A.
 Alpha  occ. eigenvalues --  -10.62726 -10.62421 -10.62136 -10.60985  -0.92825
 Alpha  occ. eigenvalues --   -0.84866  -0.70058  -0.64696  -0.54229  -0.54137
 Alpha  occ. eigenvalues --   -0.46842  -0.45886  -0.41127  -0.37798  -0.27762
 Alpha virt. eigenvalues --    0.01605   0.06982   0.07558   0.08143   0.09309
 Alpha virt. eigenvalues --    0.11744   0.12488   0.14621   0.15580   0.16113
 Alpha virt. eigenvalues --    0.18731   0.19857   0.21691   0.23524   0.24005

 Mulliken charges:
               1
     1  C   -0.177546
     2  C   -0.028435
     3  C   -0.040106
     4  C   -0.174602
     5  H    0.084615
     6  H    0.072014
     7  H    0.059651
     8  H    0.056267
     9  H    0.059909
    10  H    0.088232
 Sum of Mulliken charges =   0.00000

 Dipole moment (field-independent basis, Debye):
    X=              0.0080    Y=              0.0289    Z=             -0.0788  Tot=              0.0843
 Quadrupole moment (field-independent basis, Debye-Ang):
   XX=            -23.4921   YY=            -23.1536   ZZ=            -29.2828
   XY=             -0.0689   XZ=             -0.1767   YZ=              0.0521

 1\1\GINC-NODE39\SP\RB2PLYPD3-FC\def2QZVP\C4H6\BOITTIER\26-Aug-2020\0\\
 #p B2PLYPD3/Def2QZVP\\butadiene\\0,1\C,0,-3.856764,0.212016,-0.031904\
 C,0,-2.72972,-0.47929,0.095865\C,0,-1.373157,0.091479,0.054182\C,0,-0.
 253496,-0.666621,-0.00384\H,0,-4.798825,-0.322821,-0.005893\H,0,-3.836
 187,1.24714,0.004073\H,0,-2.725297,-1.527356,0.010682\H,0,-1.302591,1.
 153083,-0.014529\H,0,-0.364215,-1.771401,0.034846\H,0,0.768555,-0.2522
 18,-0.073446\\Version=ES64L-G09RevD.01\State=1-A\HF=-155.6945279\MP2=-
 155.9204727\RMSD=5.082e-09\PG=C01 [X(C4H6)]\\@

 Normal termination of Gaussian 09 at Wed Aug 26 09:11:18 2020.
