 Gaussian 09, Revision D.01,
 Gaussian 09:  ES64L-G09RevD.01 24-Apr-2013

 --------------------
 #p B2PLYPD3/Def2QZVP
 --------------------

 ---------
 butadiene
 ---------
 Symbolic Z-matrix:
 Charge =  0 Multiplicity = 1

                         Standard orientation:
 ---------------------------------------------------------------------
 Center     Atomic      Atomic             Coordinates (Angstroms)
 Number     Number       Type             X           Y           Z
 ---------------------------------------------------------------------
      1          6           0        1.835706    0.100419    0.019204
      2          6           0        0.598642   -0.394318   -0.029060
      3          6           0       -0.592253    0.412388   -0.038257
      4          6           0       -1.818065   -0.113495    0.007654
      5          1           0        2.740883   -0.539230    0.034186
      6          1           0        1.937308    1.193273    0.027315
      7          1           0        0.395020   -1.442184    0.066855
      8          1           0       -0.535260    1.486010    0.001032
      9          1           0       -1.954329   -1.184786   -0.029524
     10          1           0       -2.727802    0.456951    0.142888
 ---------------------------------------------------------------------

 SCF Done:  E(RB2PLYPD3) =  -155.697647151     A.U. after   11 cycles
 E2(B2PLYPD3) =    -0.2259265440D+00 E(B2PLYPD3) =    -0.15592357369474D+03

 The electronic state is 1-A.
 Alpha  occ. eigenvalues --  -10.62303 -10.62221 -10.61943 -10.61411  -0.93409
 Alpha  occ. eigenvalues --   -0.84834  -0.69976  -0.64438  -0.54590  -0.53872
 Alpha  occ. eigenvalues --   -0.46677  -0.45190  -0.41417  -0.38315  -0.27576
 Alpha virt. eigenvalues --    0.01692   0.07043   0.07421   0.08042   0.09545
 Alpha virt. eigenvalues --    0.11709   0.12552   0.14544   0.15640   0.16369
 Alpha virt. eigenvalues --    0.18713   0.20082   0.21489   0.23301   0.23884

 Mulliken charges:
               1
     1  C   -0.175417
     2  C   -0.032662
     3  C   -0.021958
     4  C   -0.176126
     5  H    0.088913
     6  H    0.065264
     7  H    0.057409
     8  H    0.053769
     9  H    0.057723
    10  H    0.083086
 Sum of Mulliken charges =   0.00000

 Dipole moment (field-independent basis, Debye):
    X=             -0.0602    Y=             -0.0063    Z=              0.1734  Tot=              0.1837
 Quadrupole moment (field-independent basis, Debye-Ang):
   XX=            -23.4888   YY=            -23.2273   ZZ=            -29.2198
   XY=             -0.0068   XZ=             -0.2113   YZ=              0.0552

 1\1\GINC-NODE28\SP\RB2PLYPD3-FC\def2QZVP\C4H6\BOITTIER\26-Aug-2020\0\\
 #p B2PLYPD3/Def2QZVP\\butadiene\\0,1\C,0,-3.836931,0.213964,-0.00266\C
 ,0,-2.709339,-0.494537,0.060459\C,0,-1.392296,0.083636,0.046169\C,0,-0
 .281875,-0.656185,0.016069\H,0,-4.842815,-0.251766,0.000995\H,0,-3.739
 518,1.306485,-0.042994\H,0,-2.698815,-1.564282,-0.004488\H,0,-1.25464,
 1.148285,-0.024753\H,0,-0.341154,-1.732926,0.084831\H,0,0.715231,-0.26
 3673,-0.135696\\Version=ES64L-G09RevD.01\State=1-A\HF=-155.6976472\MP2
 =-155.9235737\RMSD=3.437e-09\PG=C01 [X(C4H6)]\\@

 Normal termination of Gaussian 09 at Wed Aug 26 08:39:48 2020.
