 Gaussian 09, Revision D.01,
 Gaussian 09:  ES64L-G09RevD.01 24-Apr-2013

 --------------------
 #p B2PLYPD3/Def2QZVP
 --------------------

 ---------
 butadiene
 ---------
 Symbolic Z-matrix:
 Charge =  0 Multiplicity = 1

                         Standard orientation:
 ---------------------------------------------------------------------
 Center     Atomic      Atomic             Coordinates (Angstroms)
 Number     Number       Type             X           Y           Z
 ---------------------------------------------------------------------
      1          6           0       -1.846701   -0.127487    0.010774
      2          6           0       -0.613399    0.418780   -0.018748
      3          6           0        0.605338   -0.383372   -0.015887
      4          6           0        1.846497    0.093778    0.022074
      5          1           0       -2.720002    0.513023    0.069190
      6          1           0       -1.978244   -1.199007   -0.001316
      7          1           0       -0.469688    1.497706   -0.053500
      8          1           0        0.466068   -1.441568   -0.020355
      9          1           0        2.025211    1.153112    0.017197
     10          1           0        2.726245   -0.533454   -0.000498
 ---------------------------------------------------------------------

 SCF Done:  E(RB2PLYPD3) =  -155.700517577     A.U. after   11 cycles
 E2(B2PLYPD3) =    -0.2257653046D+00 E(B2PLYPD3) =    -0.15592628288178D+03

 The electronic state is 1-A.
 Alpha  occ. eigenvalues --  -10.62879 -10.62230 -10.61848 -10.61287  -0.92856
 Alpha  occ. eigenvalues --   -0.84841  -0.70219  -0.64295  -0.54542  -0.53955
 Alpha  occ. eigenvalues --   -0.46786  -0.45822  -0.41180  -0.37961  -0.27644
 Alpha virt. eigenvalues --    0.01634   0.06993   0.07465   0.08100   0.09561
 Alpha virt. eigenvalues --    0.11682   0.12461   0.14695   0.15828   0.16161
 Alpha virt. eigenvalues --    0.18820   0.20414   0.21691   0.22920   0.23785

 Mulliken charges:
               1
     1  C   -0.178041
     2  C   -0.037892
     3  C   -0.024661
     4  C   -0.175722
     5  H    0.087792
     6  H    0.071152
     7  H    0.056269
     8  H    0.054360
     9  H    0.061162
    10  H    0.085580
 Sum of Mulliken charges =   0.00000

 Dipole moment (field-independent basis, Debye):
    X=             -0.0101    Y=             -0.0016    Z=             -0.0148  Tot=              0.0180
 Quadrupole moment (field-independent basis, Debye-Ang):
   XX=            -23.4333   YY=            -23.1092   ZZ=            -29.2926
   XY=              0.1442   XZ=             -0.1695   YZ=              0.0257

 1\1\GINC-NODE30\SP\RB2PLYPD3-FC\def2QZVP\C4H6\BOITTIER\26-Aug-2020\0\\
 #p B2PLYPD3/Def2QZVP\\butadiene\\0,1\C,0,-3.844949,0.240765,0.00456\C,
 0,-2.729451,-0.516532,0.054338\C,0,-1.386693,0.053753,0.03082\C,0,-0.2
 51245,-0.639036,0.011074\H,0,-4.819046,-0.234339,-0.037033\H,0,-3.7822
 9,1.318376,-0.016239\H,0,-2.78135,-1.602184,0.122219\H,0,-1.334043,1.1
 19416,0.002783\H,0,-0.265271,-1.712603,0.048605\H,0,0.726726,-0.179232
 ,0.017262\\Version=ES64L-G09RevD.01\State=1-A\HF=-155.7005176\MP2=-155
 .9262829\RMSD=5.616e-09\PG=C01 [X(C4H6)]\\@

 Normal termination of Gaussian 09 at Wed Aug 26 21:05:11 2020.
