 Gaussian 09, Revision D.01,
 Gaussian 09:  ES64L-G09RevD.01 24-Apr-2013

 --------------------
 #p B2PLYPD3/Def2QZVP
 --------------------

 ---------
 butadiene
 ---------
 Symbolic Z-matrix:
 Charge =  0 Multiplicity = 1

                         Standard orientation:
 ---------------------------------------------------------------------
 Center     Atomic      Atomic             Coordinates (Angstroms)
 Number     Number       Type             X           Y           Z
 ---------------------------------------------------------------------
      1          6           0        1.850618    0.092865    0.004597
      2          6           0        0.612259   -0.384206   -0.012674
      3          6           0       -0.604664    0.413958   -0.016442
      4          6           0       -1.847675   -0.120807    0.011434
      5          1           0        2.700584   -0.553430   -0.000234
      6          1           0        2.014081    1.174688    0.088167
      7          1           0        0.442881   -1.438765   -0.011096
      8          1           0       -0.473864    1.497443   -0.055420
      9          1           0       -2.013385   -1.208165    0.028318
     10          1           0       -2.733522    0.517366    0.028772
 ---------------------------------------------------------------------

 SCF Done:  E(RB2PLYPD3) =  -155.699714532     A.U. after   11 cycles
 E2(B2PLYPD3) =    -0.2260277701D+00 E(B2PLYPD3) =    -0.15592574230232D+03

 The electronic state is 1-A.
 Alpha  occ. eigenvalues --  -10.62934 -10.62201 -10.62194 -10.61424  -0.92868
 Alpha  occ. eigenvalues --   -0.84741  -0.70180  -0.64027  -0.54661  -0.53601
 Alpha  occ. eigenvalues --   -0.46832  -0.45582  -0.41067  -0.38017  -0.27639
 Alpha virt. eigenvalues --    0.01561   0.06987   0.07384   0.08091   0.09594
 Alpha virt. eigenvalues --    0.11667   0.12359   0.14656   0.15826   0.16102
 Alpha virt. eigenvalues --    0.18802   0.20546   0.21453   0.22809   0.23724

 Mulliken charges:
               1
     1  C   -0.176825
     2  C   -0.024804
     3  C   -0.035442
     4  C   -0.177121
     5  H    0.089670
     6  H    0.063371
     7  H    0.053864
     8  H    0.054297
     9  H    0.066698
    10  H    0.086291
 Sum of Mulliken charges =   0.00000

 Dipole moment (field-independent basis, Debye):
    X=             -0.0146    Y=             -0.0218    Z=              0.0550  Tot=              0.0609
 Quadrupole moment (field-independent basis, Debye-Ang):
   XX=            -23.4672   YY=            -23.1289   ZZ=            -29.3345
   XY=              0.1214   XZ=              0.0540   YZ=              0.0377

 1\1\GINC-NODE21\SP\RB2PLYPD3-FC\def2QZVP\C4H6\BOITTIER\26-Aug-2020\0\\
 #p B2PLYPD3/Def2QZVP\\butadiene\\0,1\C,0,-3.854421,0.21054,0.011739\C,
 0,-2.722639,-0.481781,0.046229\C,0,-1.381489,0.083021,0.029014\C,0,-0.
 255698,-0.668207,0.020115\H,0,-4.807184,-0.271036,0.033879\H,0,-3.8199
 13,1.301104,-0.104553\H,0,-2.746663,-1.549154,0.07661\H,0,-1.31418,1.1
 72974,0.035243\H,0,-0.289305,-1.767618,0.03617\H,0,0.730848,-0.201475,
 -0.014198\\Version=ES64L-G09RevD.01\State=1-A\HF=-155.6997145\MP2=-155
 .9257423\RMSD=5.522e-09\PG=C01 [X(C4H6)]\\@

 Normal termination of Gaussian 09 at Wed Aug 26 22:02:36 2020.
