 Gaussian 09, Revision D.01,
 Gaussian 09:  ES64L-G09RevD.01 24-Apr-2013

 --------------------
 #p B2PLYPD3/Def2QZVP
 --------------------

 ---------
 butadiene
 ---------
 Symbolic Z-matrix:
 Charge =  0 Multiplicity = 1

                         Standard orientation:
 ---------------------------------------------------------------------
 Center     Atomic      Atomic             Coordinates (Angstroms)
 Number     Number       Type             X           Y           Z
 ---------------------------------------------------------------------
      1          6           0       -1.838201    0.107173    0.006248
      2          6           0       -0.599320   -0.397500   -0.013385
      3          6           0        0.609139    0.416413   -0.016060
      4          6           0        1.827357   -0.124245    0.011026
      5          1           0       -2.706162   -0.534147    0.017446
      6          1           0       -1.989328    1.190556    0.000106
      7          1           0       -0.457404   -1.485422    0.055041
      8          1           0        0.510503    1.499873    0.006177
      9          1           0        1.940446   -1.195121   -0.056805
     10          1           0        2.708096    0.513215    0.051054
 ---------------------------------------------------------------------

 SCF Done:  E(RB2PLYPD3) =  -155.700396430     A.U. after   11 cycles
 E2(B2PLYPD3) =    -0.2259051095D+00 E(B2PLYPD3) =    -0.15592630153912D+03

 The electronic state is 1-A.
 Alpha  occ. eigenvalues --  -10.62693 -10.62487 -10.61571 -10.61455  -0.92958
 Alpha  occ. eigenvalues --   -0.84880  -0.69760  -0.63934  -0.54324  -0.54033
 Alpha  occ. eigenvalues --   -0.46334  -0.45587  -0.41329  -0.38084  -0.27656
 Alpha virt. eigenvalues --    0.01856   0.07046   0.07322   0.08020   0.09454
 Alpha virt. eigenvalues --    0.11735   0.12394   0.14632   0.15780   0.16135
 Alpha virt. eigenvalues --    0.18683   0.20323   0.21432   0.23081   0.24031

 Mulliken charges:
               1
     1  C   -0.178664
     2  C   -0.030276
     3  C   -0.028663
     4  C   -0.177102
     5  H    0.087963
     6  H    0.065462
     7  H    0.052635
     8  H    0.054873
     9  H    0.068217
    10  H    0.085556
 Sum of Mulliken charges =   0.00000

 Dipole moment (field-independent basis, Debye):
    X=              0.0236    Y=              0.0114    Z=              0.0415  Tot=              0.0491
 Quadrupole moment (field-independent basis, Debye-Ang):
   XX=            -23.7076   YY=            -22.9860   ZZ=            -29.3135
   XY=              0.0082   XZ=             -0.0356   YZ=              0.0343

 1\1\GINC-NODE11\SP\RB2PLYPD3-FC\def2QZVP\C4H6\BOITTIER\26-Aug-2020\0\\
 #p B2PLYPD3/Def2QZVP\\butadiene\\0,1\C,0,-3.841837,0.217813,0.02706\C,
 0,-2.712689,-0.499766,0.023457\C,0,-1.378641,0.085529,-0.000628\C,0,-0
 .276061,-0.66245,0.043461\H,0,-4.810069,-0.258114,0.055241\H,0,-3.7976
 75,1.310182,-0.01001\H,0,-2.766493,-1.593206,0.122902\H,0,-1.282709,1.
 169426,-0.009261\H,0,-0.355699,-1.737826,0.006181\H,0,0.704247,-0.1911
 53,0.066612\\Version=ES64L-G09RevD.01\State=1-A\HF=-155.7003964\MP2=-1
 55.9263015\RMSD=3.286e-09\PG=C01 [X(C4H6)]\\@

 Normal termination of Gaussian 09 at Wed Aug 26 22:08:11 2020.
