 Gaussian 09, Revision D.01,
 Gaussian 09:  ES64L-G09RevD.01 24-Apr-2013

 --------------------
 #p B2PLYPD3/Def2QZVP
 --------------------

 ---------
 butadiene
 ---------
 Symbolic Z-matrix:
 Charge =  0 Multiplicity = 1

                         Standard orientation:
 ---------------------------------------------------------------------
 Center     Atomic      Atomic             Coordinates (Angstroms)
 Number     Number       Type             X           Y           Z
 ---------------------------------------------------------------------
      1          6           0        1.839775   -0.139042    0.019873
      2          6           0        0.605077    0.426597   -0.050510
      3          6           0       -0.620844   -0.386442   -0.033636
      4          6           0       -1.840510    0.096903    0.005823
      5          1           0        2.709380    0.549372    0.121440
      6          1           0        2.060104   -1.182023    0.007987
      7          1           0        0.460614    1.528487    0.010294
      8          1           0       -0.447979   -1.458409    0.028486
      9          1           0       -2.022942    1.152078    0.080030
     10          1           0       -2.660168   -0.577603    0.102457
 ---------------------------------------------------------------------

 SCF Done:  E(RB2PLYPD3) =  -155.695848016     A.U. after   11 cycles
 E2(B2PLYPD3) =    -0.2260072048D+00 E(B2PLYPD3) =    -0.15592185522097D+03

 The electronic state is 1-A.
 Alpha  occ. eigenvalues --  -10.63377 -10.62199 -10.62168 -10.60803  -0.92729
 Alpha  occ. eigenvalues --   -0.84862  -0.69977  -0.63874  -0.54621  -0.53622
 Alpha  occ. eigenvalues --   -0.46813  -0.45745  -0.40651  -0.37907  -0.27760
 Alpha virt. eigenvalues --    0.01786   0.06978   0.07317   0.08050   0.09402
 Alpha virt. eigenvalues --    0.11709   0.12305   0.14878   0.15851   0.15894
 Alpha virt. eigenvalues --    0.18769   0.20333   0.21640   0.23111   0.23721

 Mulliken charges:
               1
     1  C   -0.179066
     2  C   -0.040272
     3  C   -0.020789
     4  C   -0.174271
     5  H    0.077825
     6  H    0.077894
     7  H    0.056209
     8  H    0.052332
     9  H    0.065441
    10  H    0.084697
 Sum of Mulliken charges =   0.00000

 Dipole moment (field-independent basis, Debye):
    X=              0.0171    Y=             -0.0384    Z=              0.2583  Tot=              0.2617
 Quadrupole moment (field-independent basis, Debye-Ang):
   XX=            -23.8117   YY=            -22.9268   ZZ=            -29.3030
   XY=             -0.4002   XZ=             -0.1018   YZ=              0.0823

 1\1\GINC-NODE26\SP\RB2PLYPD3-FC\def2QZVP\C4H6\BOITTIER\26-Aug-2020\0\\
 #p B2PLYPD3/Def2QZVP\\butadiene\\0,1\C,0,-3.838198,0.254494,0.042265\C
 ,0,-2.726238,-0.526849,-0.006997\C,0,-1.373554,0.051436,-0.012625\C,0,
 -0.261165,-0.642829,0.045261\H,0,-4.817543,-0.261922,0.163265\H,0,-3.8
 66506,1.319216,-0.00314\H,0,-2.783036,-1.634231,0.088964\H,0,-1.349709
 ,1.138411,0.015149\H,0,-0.272137,-1.710725,0.153241\H,0,0.667166,-0.12
 4808,0.122671\\Version=ES64L-G09RevD.01\State=1-A\HF=-155.695848\MP2=-
 155.9218552\RMSD=6.682e-09\PG=C01 [X(C4H6)]\\@

 Normal termination of Gaussian 09 at Wed Aug 26 08:45:28 2020.
