 Gaussian 09, Revision D.01,
 Gaussian 09:  ES64L-G09RevD.01 24-Apr-2013

 --------------------
 #p B2PLYPD3/Def2QZVP
 --------------------

 ---------
 butadiene
 ---------
 Symbolic Z-matrix:
 Charge =  0 Multiplicity = 1

                         Standard orientation:
 ---------------------------------------------------------------------
 Center     Atomic      Atomic             Coordinates (Angstroms)
 Number     Number       Type             X           Y           Z
 ---------------------------------------------------------------------
      1          6           0        1.831959   -0.108019   -0.002674
      2          6           0        0.597238    0.401800   -0.009415
      3          6           0       -0.597324   -0.415071    0.011381
      4          6           0       -1.826341    0.113222    0.004396
      5          1           0        2.678482    0.534546   -0.002126
      6          1           0        2.024733   -1.152602   -0.024355
      7          1           0        0.446782    1.490743    0.064153
      8          1           0       -0.456943   -1.480992    0.022980
      9          1           0       -1.994578    1.158228   -0.050449
     10          1           0       -2.731668   -0.501505   -0.032330
 ---------------------------------------------------------------------

 SCF Done:  E(RB2PLYPD3) =  -155.700041461     A.U. after   11 cycles
 E2(B2PLYPD3) =    -0.2255624151D+00 E(B2PLYPD3) =    -0.15592560387568D+03

 The electronic state is 1-A.
 Alpha  occ. eigenvalues --  -10.62588 -10.62399 -10.61398 -10.61038  -0.93114
 Alpha  occ. eigenvalues --   -0.84872  -0.70399  -0.64350  -0.54683  -0.54141
 Alpha  occ. eigenvalues --   -0.46663  -0.45820  -0.41301  -0.38165  -0.27549
 Alpha virt. eigenvalues --    0.01736   0.07043   0.07427   0.08104   0.09478
 Alpha virt. eigenvalues --    0.11722   0.12539   0.14867   0.15787   0.16208
 Alpha virt. eigenvalues --    0.18737   0.20441   0.21981   0.23054   0.23713

 Mulliken charges:
               1
     1  C   -0.180782
     2  C   -0.026869
     3  C   -0.032224
     4  C   -0.173571
     5  H    0.084715
     6  H    0.068195
     7  H    0.054629
     8  H    0.059216
     9  H    0.066691
    10  H    0.080000
 Sum of Mulliken charges =   0.00000

 Dipole moment (field-independent basis, Debye):
    X=              0.0026    Y=             -0.0077    Z=             -0.0248  Tot=              0.0261
 Quadrupole moment (field-independent basis, Debye-Ang):
   XX=            -23.4928   YY=            -23.0454   ZZ=            -29.2198
   XY=             -0.3296   XZ=              0.1845   YZ=              0.0472

 1\1\GINC-NODE25\SP\RB2PLYPD3-FC\def2QZVP\C4H6\BOITTIER\26-Aug-2020\0\\
 #p B2PLYPD3/Def2QZVP\\butadiene\\0,1\C,0,-3.832803,0.226036,0.017548\C
 ,0,-2.712493,-0.501488,0.02814\C,0,-1.388353,0.082732,0.022662\C,0,-0.
 277038,-0.661905,0.033614\H,0,-4.782739,-0.250053,0.038798\H,0,-3.8309
 78,1.286997,-0.038519\H,0,-2.76376,-1.596595,0.137502\H,0,-1.330928,1.
 156128,-0.000819\H,0,-0.303487,-1.72126,0.013198\H,0,0.725402,-0.22512
 1,-0.022853\\Version=ES64L-G09RevD.01\State=1-A\HF=-155.7000415\MP2=-1
 55.9256039\RMSD=2.548e-09\PG=C01 [X(C4H6)]\\@

 Normal termination of Gaussian 09 at Wed Aug 26 11:09:50 2020.
