 Gaussian 09, Revision D.01,
 Gaussian 09:  ES64L-G09RevD.01 24-Apr-2013

 --------------------
 #p B2PLYPD3/Def2QZVP
 --------------------

 ---------
 butadiene
 ---------
 Symbolic Z-matrix:
 Charge =  0 Multiplicity = 1

                         Standard orientation:
 ---------------------------------------------------------------------
 Center     Atomic      Atomic             Coordinates (Angstroms)
 Number     Number       Type             X           Y           Z
 ---------------------------------------------------------------------
      1          6           0       -1.848741   -0.111393   -0.020389
      2          6           0       -0.608494    0.389514    0.015655
      3          6           0        0.621811   -0.415067    0.041090
      4          6           0        1.844368    0.121686   -0.031466
      5          1           0       -2.708108    0.574972   -0.055499
      6          1           0       -2.048682   -1.178771   -0.006418
      7          1           0       -0.477114    1.467889    0.055537
      8          1           0        0.507033   -1.479905    0.016920
      9          1           0        1.942277    1.205199    0.013563
     10          1           0        2.730924   -0.497823   -0.053449
 ---------------------------------------------------------------------

 SCF Done:  E(RB2PLYPD3) =  -155.700029828     A.U. after   11 cycles
 E2(B2PLYPD3) =    -0.2258979471D+00 E(B2PLYPD3) =    -0.15592592777540D+03

 The electronic state is 1-A.
 Alpha  occ. eigenvalues --  -10.62711 -10.62514 -10.61771 -10.61650  -0.92707
 Alpha  occ. eigenvalues --   -0.84870  -0.69764  -0.64130  -0.54419  -0.53745
 Alpha  occ. eigenvalues --   -0.46571  -0.45709  -0.41117  -0.37876  -0.27760
 Alpha virt. eigenvalues --    0.01795   0.06973   0.07434   0.08032   0.09459
 Alpha virt. eigenvalues --    0.11693   0.12341   0.14633   0.15729   0.16183
 Alpha virt. eigenvalues --    0.18782   0.20236   0.21496   0.22867   0.24048

 Mulliken charges:
               1
     1  C   -0.178641
     2  C   -0.030623
     3  C   -0.035872
     4  C   -0.172994
     5  H    0.083744
     6  H    0.069578
     7  H    0.053938
     8  H    0.057942
     9  H    0.065347
    10  H    0.087581
 Sum of Mulliken charges =   0.00000

 Dipole moment (field-independent basis, Debye):
    X=              0.0277    Y=             -0.0271    Z=              0.0152  Tot=              0.0417
 Quadrupole moment (field-independent basis, Debye-Ang):
   XX=            -23.6092   YY=            -23.0194   ZZ=            -29.3428
   XY=              0.0383   XZ=              0.0024   YZ=              0.0822

 1\1\GINC-NODE09\SP\RB2PLYPD3-FC\def2QZVP\C4H6\BOITTIER\26-Aug-2020\0\\
 #p B2PLYPD3/Def2QZVP\\butadiene\\0,1\C,0,-3.853644,0.219327,0.040307\C
 ,0,-2.721109,-0.492921,0.018229\C,0,-1.368416,0.081529,-0.025076\C,0,-
 0.259291,-0.660245,0.062263\H,0,-4.820352,-0.30389,0.090925\H,0,-3.862
 52,1.304577,0.000043\H,0,-2.781816,-1.578222,0.004828\H,0,-1.293796,1.
 150204,-0.027028\H,0,-0.353866,-1.744832,0.043794\H,0,0.722572,-0.2062
 24,0.070389\\Version=ES64L-G09RevD.01\State=1-A\HF=-155.7000298\MP2=-1
 55.9259278\RMSD=3.981e-09\PG=C01 [X(C4H6)]\\@

 Normal termination of Gaussian 09 at Wed Aug 26 21:06:47 2020.
