 Gaussian 09, Revision D.01,
 Gaussian 09:  ES64L-G09RevD.01 24-Apr-2013

 --------------------
 #p B2PLYPD3/Def2QZVP
 --------------------

 ---------
 butadiene
 ---------
 Symbolic Z-matrix:
 Charge =  0 Multiplicity = 1

                         Standard orientation:
 ---------------------------------------------------------------------
 Center     Atomic      Atomic             Coordinates (Angstroms)
 Number     Number       Type             X           Y           Z
 ---------------------------------------------------------------------
      1          6           0       -1.829079   -0.126199   -0.011916
      2          6           0       -0.599431    0.415562    0.007481
      3          6           0        0.595283   -0.391225    0.008519
      4          6           0        1.851957    0.106774   -0.031860
      5          1           0       -2.685340    0.532896   -0.025109
      6          1           0       -2.073250   -1.175837   -0.018630
      7          1           0       -0.537356    1.510006    0.082061
      8          1           0        0.424710   -1.433690    0.079269
      9          1           0        2.056961    1.112162    0.013131
     10          1           0        2.701893   -0.575015    0.035936
 ---------------------------------------------------------------------

 SCF Done:  E(RB2PLYPD3) =  -155.695991744     A.U. after   11 cycles
 E2(B2PLYPD3) =    -0.2260002677D+00 E(B2PLYPD3) =    -0.15592199201159D+03

 The electronic state is 1-A.
 Alpha  occ. eigenvalues --  -10.62710 -10.62409 -10.61569 -10.61185  -0.92985
 Alpha  occ. eigenvalues --   -0.84683  -0.70699  -0.64535  -0.54488  -0.54299
 Alpha  occ. eigenvalues --   -0.46307  -0.46159  -0.41545  -0.37916  -0.27337
 Alpha virt. eigenvalues --    0.01388   0.06989   0.07526   0.08016   0.09494
 Alpha virt. eigenvalues --    0.11692   0.12441   0.15001   0.15901   0.16107
 Alpha virt. eigenvalues --    0.18821   0.20437   0.21851   0.22870   0.23786

 Mulliken charges:
               1
     1  C   -0.177497
     2  C   -0.028506
     3  C   -0.037340
     4  C   -0.177557
     5  H    0.077498
     6  H    0.069136
     7  H    0.057329
     8  H    0.063842
     9  H    0.073922
    10  H    0.079172
 Sum of Mulliken charges =   0.00000

 Dipole moment (field-independent basis, Debye):
    X=             -0.0803    Y=              0.0017    Z=              0.1657  Tot=              0.1841
 Quadrupole moment (field-independent basis, Debye-Ang):
   XX=            -23.5727   YY=            -22.9603   ZZ=            -29.2716
   XY=              0.3779   XZ=              0.2500   YZ=              0.0042

 1\1\GINC-NODE17\SP\RB2PLYPD3-FC\def2QZVP\C4H6\BOITTIER\26-Aug-2020\0\\
 #p B2PLYPD3/Def2QZVP\\butadiene\\0,1\C,0,-3.829402,0.24326,0.029769\C,
 0,-2.71915,-0.513863,0.025147\C,0,-1.397465,0.061338,0.001903\C,0,-0.2
 52365,-0.656087,0.055832\H,0,-4.791333,-0.248136,0.06109\H,0,-3.878218
 ,1.319613,0.007718\H,0,-2.857887,-1.602895,-0.019401\H,0,-1.375615,1.1
 1514,-0.097392\H,0,-0.234192,-1.68284,0.03841\H,0,0.707206,-0.142704,-
 0.030693\\Version=ES64L-G09RevD.01\State=1-A\HF=-155.6959917\MP2=-155.
 921992\RMSD=5.418e-09\PG=C01 [X(C4H6)]\\@

 Normal termination of Gaussian 09 at Wed Aug 26 08:54:23 2020.
