 Gaussian 09, Revision D.01,
 Gaussian 09:  ES64L-G09RevD.01 24-Apr-2013

 --------------------
 #p B2PLYPD3/Def2QZVP
 --------------------

 ---------
 butadiene
 ---------
 Symbolic Z-matrix:
 Charge =  0 Multiplicity = 1

                         Standard orientation:
 ---------------------------------------------------------------------
 Center     Atomic      Atomic             Coordinates (Angstroms)
 Number     Number       Type             X           Y           Z
 ---------------------------------------------------------------------
      1          6           0       -1.822069    0.116602    0.030097
      2          6           0       -0.594177   -0.422071   -0.029090
      3          6           0        0.583417    0.376269   -0.007003
      4          6           0        1.819667   -0.095583    0.006049
      5          1           0       -2.720247   -0.469165   -0.050309
      6          1           0       -1.915795    1.179686    0.044469
      7          1           0       -0.468137   -1.455996   -0.051625
      8          1           0        0.385519    1.423128   -0.017495
      9          1           0        2.095997   -1.121252    0.143553
     10          1           0        2.701639    0.592293   -0.068912
 ---------------------------------------------------------------------

 SCF Done:  E(RB2PLYPD3) =  -155.696161625     A.U. after   11 cycles
 E2(B2PLYPD3) =    -0.2254443423D+00 E(B2PLYPD3) =    -0.15592160596726D+03

 The electronic state is 1-A.
 Alpha  occ. eigenvalues --  -10.61882 -10.61761 -10.61574 -10.61347  -0.93755
 Alpha  occ. eigenvalues --   -0.84842  -0.70543  -0.65045  -0.55147  -0.53735
 Alpha  occ. eigenvalues --   -0.46988  -0.45724  -0.41353  -0.38399  -0.27460
 Alpha virt. eigenvalues --    0.01547   0.06966   0.07552   0.08170   0.09703
 Alpha virt. eigenvalues --    0.11774   0.12506   0.14965   0.15923   0.16046
 Alpha virt. eigenvalues --    0.18756   0.20515   0.21692   0.22827   0.23866

 Mulliken charges:
               1
     1  C   -0.176777
     2  C   -0.031287
     3  C   -0.023434
     4  C   -0.179386
     5  H    0.084908
     6  H    0.062031
     7  H    0.061580
     8  H    0.057635
     9  H    0.070674
    10  H    0.074055
 Sum of Mulliken charges =   0.00000

 Dipole moment (field-independent basis, Debye):
    X=             -0.0302    Y=             -0.0455    Z=             -0.0188  Tot=              0.0577
 Quadrupole moment (field-independent basis, Debye-Ang):
   XX=            -23.5108   YY=            -23.1860   ZZ=            -29.0921
   XY=             -0.3391   XZ=              0.2055   YZ=             -0.1048

 1\1\GINC-NODE35\SP\RB2PLYPD3-FC\def2QZVP\C4H6\BOITTIER\26-Aug-2020\0\\
 #p B2PLYPD3/Def2QZVP\\butadiene\\0,1\C,0,-3.818483,0.241797,0.043292\C
 ,0,-2.712495,-0.517755,0.007734\C,0,-1.406817,0.047722,0.006304\C,0,-0
 .279978,-0.645232,0.040629\H,0,-4.810222,-0.169015,-0.01995\H,0,-3.712
 638,1.303584,0.020003\H,0,-2.781186,-1.557213,0.021966\H,0,-1.406412,1
 .112093,-0.041662\H,0,-0.199025,-1.698928,0.215085\H,0,0.714415,-0.136
 61,-0.055044\\Version=ES64L-G09RevD.01\State=1-A\HF=-155.6961616\MP2=-
 155.921606\RMSD=6.282e-09\PG=C01 [X(C4H6)]\\@

 Normal termination of Gaussian 09 at Wed Aug 26 09:42:14 2020.
