 Gaussian 09, Revision D.01,
 Gaussian 09:  ES64L-G09RevD.01 24-Apr-2013

 --------------------
 #p B2PLYPD3/Def2QZVP
 --------------------

 ---------
 butadiene
 ---------
 Symbolic Z-matrix:
 Charge =  0 Multiplicity = 1

                         Standard orientation:
 ---------------------------------------------------------------------
 Center     Atomic      Atomic             Coordinates (Angstroms)
 Number     Number       Type             X           Y           Z
 ---------------------------------------------------------------------
      1          6           0        1.805854   -0.175032   -0.048470
      2          6           0        0.611552    0.452610   -0.008675
      3          6           0       -0.586628   -0.341466   -0.006673
      4          6           0       -1.810611    0.076637   -0.024980
      5          1           0        2.607968    0.482242    0.096345
      6          1           0        1.917727   -1.230172    0.046366
      7          1           0        0.541466    1.607233    0.246443
      8          1           0       -0.467403   -1.429148    0.121834
      9          1           0       -2.007786    1.089164   -0.135277
     10          1           0       -2.712977   -0.595814    0.157073
 ---------------------------------------------------------------------

 SCF Done:  E(RB2PLYPD3) =  -155.679014076     A.U. after   12 cycles
 E2(B2PLYPD3) =    -0.2262147338D+00 E(B2PLYPD3) =    -0.15590522880943D+03

 The electronic state is 1-A.
 Alpha  occ. eigenvalues --  -10.63696 -10.61617 -10.61222 -10.60655  -0.93536
 Alpha  occ. eigenvalues --   -0.85463  -0.69943  -0.63301  -0.55017  -0.53704
 Alpha  occ. eigenvalues --   -0.46290  -0.45372  -0.40757  -0.38032  -0.27895
 Alpha virt. eigenvalues --    0.01780   0.06808   0.07108   0.07931   0.09567
 Alpha virt. eigenvalues --    0.11793   0.12403   0.14861   0.15422   0.16259
 Alpha virt. eigenvalues --    0.18689   0.19620   0.21875   0.22898   0.24251

 Mulliken charges:
               1
     1  C   -0.172667
     2  C   -0.049998
     3  C   -0.000598
     4  C   -0.178402
     5  H    0.080270
     6  H    0.077331
     7  H    0.054845
     8  H    0.046588
     9  H    0.063961
    10  H    0.078669
 Sum of Mulliken charges =   0.00000

 Dipole moment (field-independent basis, Debye):
    X=              0.0437    Y=              0.0058    Z=              0.4593  Tot=              0.4614
 Quadrupole moment (field-independent basis, Debye-Ang):
   XX=            -24.0847   YY=            -23.0286   ZZ=            -29.0530
   XY=             -0.1386   XZ=              0.2876   YZ=             -0.0612

 1\1\GINC-NODE24\SP\RB2PLYPD3-FC\def2QZVP\C4H6\BOITTIER\26-Aug-2020\0\\
 #p B2PLYPD3/Def2QZVP\\butadiene\\0,1\C,0,-3.795603,0.276158,-0.016498\
 C,0,-2.731068,-0.551587,0.0425\C,0,-1.411232,0.017289,0.017835\C,0,-0.
 280766,-0.611433,0.011972\H,0,-4.700453,-0.223685,0.15015\H,0,-3.71825
 7,1.336887,0.044331\H,0,-2.864855,-1.691708,0.33469\H,0,-1.335138,1.11
 2397,0.111273\H,0,-0.266716,-1.645848,-0.065759\H,0,0.727585,-0.104092
 ,0.171445\\Version=ES64L-G09RevD.01\State=1-A\HF=-155.6790141\MP2=-155
 .9052288\RMSD=3.000e-09\PG=C01 [X(C4H6)]\\@

 Normal termination of Gaussian 09 at Wed Aug 26 12:23:35 2020.
