 Gaussian 09, Revision D.01,
 Gaussian 09:  ES64L-G09RevD.01 24-Apr-2013

 --------------------
 #p B2PLYPD3/Def2QZVP
 --------------------

 ---------
 butadiene
 ---------
 Symbolic Z-matrix:
 Charge =  0 Multiplicity = 1

                         Standard orientation:
 ---------------------------------------------------------------------
 Center     Atomic      Atomic             Coordinates (Angstroms)
 Number     Number       Type             X           Y           Z
 ---------------------------------------------------------------------
      1          6           0        1.844945   -0.091284    0.036742
      2          6           0        0.602518    0.367631   -0.048062
      3          6           0       -0.608264   -0.404679   -0.020471
      4          6           0       -1.844263    0.116981    0.007115
      5          1           0        2.730843    0.560000   -0.061681
      6          1           0        2.063862   -1.142381    0.173842
      7          1           0        0.443648    1.463699   -0.059235
      8          1           0       -0.458285   -1.459660   -0.115864
      9          1           0       -2.063157    1.196476    0.193647
     10          1           0       -2.686527   -0.550026    0.017342
 ---------------------------------------------------------------------

 SCF Done:  E(RB2PLYPD3) =  -155.696355317     A.U. after   11 cycles
 E2(B2PLYPD3) =    -0.2261134821D+00 E(B2PLYPD3) =    -0.15592246879895D+03

 The electronic state is 1-A.
 Alpha  occ. eigenvalues --  -10.62482 -10.62409 -10.62056 -10.61702  -0.93167
 Alpha  occ. eigenvalues --   -0.84849  -0.70481  -0.63756  -0.54726  -0.53548
 Alpha  occ. eigenvalues --   -0.46996  -0.45386  -0.40629  -0.38220  -0.27683
 Alpha virt. eigenvalues --    0.01354   0.06969   0.07394   0.08007   0.09747
 Alpha virt. eigenvalues --    0.11603   0.12282   0.14937   0.15557   0.16292
 Alpha virt. eigenvalues --    0.18857   0.19837   0.21903   0.22435   0.23544

 Mulliken charges:
               1
     1  C   -0.174820
     2  C   -0.020215
     3  C   -0.040773
     4  C   -0.171960
     5  H    0.085275
     6  H    0.062103
     7  H    0.048975
     8  H    0.059654
     9  H    0.068713
    10  H    0.083047
 Sum of Mulliken charges =   0.00000

 Dipole moment (field-independent basis, Debye):
    X=             -0.0089    Y=             -0.0488    Z=              0.1036  Tot=              0.1149
 Quadrupole moment (field-independent basis, Debye-Ang):
   XX=            -23.3934   YY=            -23.3010   ZZ=            -29.2079
   XY=             -0.2785   XZ=             -0.2460   YZ=              0.0758

 1\1\GINC-NODE15\SP\RB2PLYPD3-FC\def2QZVP\C4H6\BOITTIER\26-Aug-2020\0\\
 #p B2PLYPD3/Def2QZVP\\butadiene\\0,1\C,0,-3.849988,0.213266,0.052706\C
 ,0,-2.712979,-0.468489,-0.009252\C,0,-1.381088,0.069359,-0.006873\C,0,
 -0.261536,-0.668477,0.045886\H,0,-4.840546,-0.267988,-0.02386\H,0,-3.8
 72137,1.291207,0.147983\H,0,-2.757696,-1.5747,0.02281\H,0,-1.335502,1.
 129432,-0.143788\H,0,-0.243575,-1.76171,0.275097\H,0,0.688726,-0.16721
 7,0.033538\\Version=ES64L-G09RevD.01\State=1-A\HF=-155.6963553\MP2=-15
 5.9224688\RMSD=6.726e-09\PG=C01 [X(C4H6)]\\@

 Normal termination of Gaussian 09 at Wed Aug 26 11:08:17 2020.
