 Gaussian 09, Revision D.01,
 Gaussian 09:  ES64L-G09RevD.01 24-Apr-2013

 --------------------
 #p B2PLYPD3/Def2QZVP
 --------------------

 ---------
 butadiene
 ---------
 Symbolic Z-matrix:
 Charge =  0 Multiplicity = 1

                         Standard orientation:
 ---------------------------------------------------------------------
 Center     Atomic      Atomic             Coordinates (Angstroms)
 Number     Number       Type             X           Y           Z
 ---------------------------------------------------------------------
      1          6           0       -1.850097   -0.125022    0.008625
      2          6           0       -0.609760    0.419197   -0.017210
      3          6           0        0.607183   -0.376309   -0.043239
      4          6           0        1.870079    0.083886   -0.004864
      5          1           0       -2.700567    0.487844    0.047607
      6          1           0       -2.030131   -1.154199    0.014152
      7          1           0       -0.508667    1.496573    0.068544
      8          1           0        0.386640   -1.442308    0.053880
      9          1           0        2.052230    1.169814    0.006576
     10          1           0        2.696064   -0.568238    0.149371
 ---------------------------------------------------------------------

 SCF Done:  E(RB2PLYPD3) =  -155.696253085     A.U. after   11 cycles
 E2(B2PLYPD3) =    -0.2261689497D+00 E(B2PLYPD3) =    -0.15592242203454D+03

 The electronic state is 1-A.
 Alpha  occ. eigenvalues --  -10.62891 -10.62760 -10.61763 -10.61195  -0.92710
 Alpha  occ. eigenvalues --   -0.84779  -0.70938  -0.64088  -0.54899  -0.53822
 Alpha  occ. eigenvalues --   -0.46996  -0.46079  -0.41168  -0.37774  -0.27483
 Alpha virt. eigenvalues --    0.01228   0.07049   0.07452   0.08150   0.09500
 Alpha virt. eigenvalues --    0.11658   0.12469   0.14834   0.15837   0.16115
 Alpha virt. eigenvalues --    0.18907   0.20276   0.21764   0.23298   0.23508

 Mulliken charges:
               1
     1  C   -0.178569
     2  C   -0.031792
     3  C   -0.027764
     4  C   -0.177443
     5  H    0.085394
     6  H    0.068531
     7  H    0.054641
     8  H    0.051496
     9  H    0.064313
    10  H    0.091193
 Sum of Mulliken charges =   0.00000

 Dipole moment (field-independent basis, Debye):
    X=             -0.0936    Y=             -0.0072    Z=              0.2716  Tot=              0.2874
 Quadrupole moment (field-independent basis, Debye-Ang):
   XX=            -23.3257   YY=            -23.2017   ZZ=            -29.2790
   XY=              0.2862   XZ=              0.3119   YZ=             -0.0789

 1\1\GINC-NODE39\SP\RB2PLYPD3-FC\def2QZVP\C4H6\BOITTIER\26-Aug-2020\0\\
 #p B2PLYPD3/Def2QZVP\\butadiene\\0,1\C,0,-3.850201,0.245565,0.005296\C
 ,0,-2.729967,-0.514935,0.049959\C,0,-1.388066,0.045202,0.047821\C,0,-0
 .230733,-0.639075,0.025362\H,0,-4.798531,-0.202535,-0.011991\H,0,-3.83
 9286,1.289499,-0.036298\H,0,-2.827899,-1.594947,0.002035\H,0,-1.410859
 ,1.129563,-0.086592\H,0,-0.250043,-1.739742,0.051989\H,0,0.699418,-0.1
 54584,-0.151822\\Version=ES64L-G09RevD.01\State=1-A\HF=-155.6962531\MP
 2=-155.922422\RMSD=6.778e-09\PG=C01 [X(C4H6)]\\@

 Normal termination of Gaussian 09 at Wed Aug 26 09:58:41 2020.
