 Gaussian 09, Revision D.01,
 Gaussian 09:  ES64L-G09RevD.01 24-Apr-2013

 --------------------
 #p B2PLYPD3/Def2QZVP
 --------------------

 ---------
 butadiene
 ---------
 Symbolic Z-matrix:
 Charge =  0 Multiplicity = 1

                         Standard orientation:
 ---------------------------------------------------------------------
 Center     Atomic      Atomic             Coordinates (Angstroms)
 Number     Number       Type             X           Y           Z
 ---------------------------------------------------------------------
      1          6           0       -1.851398    0.074549    0.027554
      2          6           0       -0.595697   -0.368967   -0.086529
      3          6           0        0.622737    0.451920   -0.051813
      4          6           0        1.830648   -0.156309    0.050574
      5          1           0       -2.616613   -0.620127    0.293820
      6          1           0       -2.183411    1.106728    0.082889
      7          1           0       -0.334721   -1.413215   -0.196224
      8          1           0        0.522930    1.597133   -0.063599
      9          1           0        1.964893   -1.228440    0.132544
     10          1           0        2.609180    0.550758    0.111850
 ---------------------------------------------------------------------

 SCF Done:  E(RB2PLYPD3) =  -155.686575254     A.U. after   11 cycles
 E2(B2PLYPD3) =    -0.2269108349D+00 E(B2PLYPD3) =    -0.15591348608914D+03

 The electronic state is 1-A.
 Alpha  occ. eigenvalues --  -10.63519 -10.62714 -10.61619 -10.61335  -0.92573
 Alpha  occ. eigenvalues --   -0.84752  -0.70338  -0.63438  -0.54753  -0.53418
 Alpha  occ. eigenvalues --   -0.46561  -0.46060  -0.40898  -0.37360  -0.27435
 Alpha virt. eigenvalues --    0.01518   0.07017   0.07191   0.08051   0.09153
 Alpha virt. eigenvalues --    0.11553   0.12369   0.14888   0.15431   0.16163
 Alpha virt. eigenvalues --    0.18835   0.19788   0.21880   0.22877   0.23549

 Mulliken charges:
               1
     1  C   -0.172822
     2  C   -0.031940
     3  C   -0.037334
     4  C   -0.182453
     5  H    0.077982
     6  H    0.067297
     7  H    0.062495
     8  H    0.051944
     9  H    0.078737
    10  H    0.086095
 Sum of Mulliken charges =   0.00000

 Dipole moment (field-independent basis, Debye):
    X=              0.0729    Y=              0.0180    Z=              0.2460  Tot=              0.2572
 Quadrupole moment (field-independent basis, Debye-Ang):
   XX=            -24.1811   YY=            -22.8358   ZZ=            -29.2735
   XY=             -0.5508   XZ=             -0.4217   YZ=             -0.0935

 1\1\GINC-NODE35\SP\RB2PLYPD3-FC\def2QZVP\C4H6\BOITTIER\26-Aug-2020\0\\
 #p B2PLYPD3/Def2QZVP\\butadiene\\0,1\C,0,-3.858267,0.203855,0.05885\C,
 0,-2.707764,-0.469508,-0.038272\C,0,-1.357973,0.111606,-0.041508\C,0,-
 0.282822,-0.705433,0.08487\H,0,-4.736335,-0.324783,0.356449\H,0,-3.992
 582,1.281131,0.069993\H,0,-2.646028,-1.547741,-0.103066\H,0,-1.243828,
 1.253899,-0.102767\H,0,-0.348882,-1.779408,0.213011\H,0,0.613877,-0.15
 3259,0.113941\\Version=ES64L-G09RevD.01\State=1-A\HF=-155.6865753\MP2=
 -155.9134861\RMSD=8.657e-09\PG=C01 [X(C4H6)]\\@

 Normal termination of Gaussian 09 at Wed Aug 26 13:30:36 2020.
