 Gaussian 09, Revision D.01,
 Gaussian 09:  ES64L-G09RevD.01 24-Apr-2013

 --------------------
 #p B2PLYPD3/Def2QZVP
 --------------------

 ---------
 butadiene
 ---------
 Symbolic Z-matrix:
 Charge =  0 Multiplicity = 1

                         Standard orientation:
 ---------------------------------------------------------------------
 Center     Atomic      Atomic             Coordinates (Angstroms)
 Number     Number       Type             X           Y           Z
 ---------------------------------------------------------------------
      1          6           0       -1.831576   -0.118872   -0.011528
      2          6           0       -0.613064    0.414998    0.005145
      3          6           0        0.600059   -0.387508    0.004605
      4          6           0        1.841455    0.098234   -0.013097
      5          1           0       -2.702815    0.483690    0.033950
      6          1           0       -1.936345   -1.205043   -0.064255
      7          1           0       -0.493144    1.486479    0.042620
      8          1           0        0.437208   -1.440476    0.094106
      9          1           0        1.990102    1.173197   -0.019571
     10          1           0        2.723748   -0.538965    0.002398
 ---------------------------------------------------------------------

 SCF Done:  E(RB2PLYPD3) =  -155.700760279     A.U. after   11 cycles
 E2(B2PLYPD3) =    -0.2254291399D+00 E(B2PLYPD3) =    -0.15592618941907D+03

 The electronic state is 1-A.
 Alpha  occ. eigenvalues --  -10.62336 -10.62230 -10.61541 -10.61337  -0.93131
 Alpha  occ. eigenvalues --   -0.85029  -0.70114  -0.64279  -0.54803  -0.53898
 Alpha  occ. eigenvalues --   -0.46914  -0.45617  -0.41239  -0.38091  -0.27762
 Alpha virt. eigenvalues --    0.01841   0.07049   0.07434   0.08123   0.09610
 Alpha virt. eigenvalues --    0.11717   0.12496   0.14641   0.15756   0.16192
 Alpha virt. eigenvalues --    0.18753   0.20386   0.21555   0.23006   0.23954

 Mulliken charges:
               1
     1  C   -0.176648
     2  C   -0.030070
     3  C   -0.027945
     4  C   -0.178783
     5  H    0.089679
     6  H    0.063682
     7  H    0.053355
     8  H    0.055098
     9  H    0.063829
    10  H    0.087803
 Sum of Mulliken charges =   0.00000

 Dipole moment (field-independent basis, Debye):
    X=             -0.0377    Y=              0.0149    Z=              0.0871  Tot=              0.0960
 Quadrupole moment (field-independent basis, Debye-Ang):
   XX=            -23.4819   YY=            -23.1387   ZZ=            -29.2102
   XY=              0.0138   XZ=              0.0111   YZ=              0.0167

 1\1\GINC-NODE39\SP\RB2PLYPD3-FC\def2QZVP\C4H6\BOITTIER\26-Aug-2020\0\\
 #p B2PLYPD3/Def2QZVP\\butadiene\\0,1\C,0,-3.831979,0.231426,0.027641\C
 ,0,-2.729128,-0.512742,0.028426\C,0,-1.391684,0.058665,0.007884\C,0,-0
 .257563,-0.641299,0.04168\H,0,-4.797366,-0.206021,-0.001921\H,0,-3.739
 93,1.31982,0.048858\H,0,-2.803582,-1.588972,0.022057\H,0,-1.363233,1.1
 20758,-0.112209\H,0,-0.304227,-1.72485,0.079391\H,0,0.724701,-0.173523
 ,0.009315\\Version=ES64L-G09RevD.01\State=1-A\HF=-155.7007603\MP2=-155
 .9261894\RMSD=3.317e-09\PG=C01 [X(C4H6)]\\@

 Normal termination of Gaussian 09 at Wed Aug 26 08:51:18 2020.
