 Gaussian 09, Revision D.01,
 Gaussian 09:  ES64L-G09RevD.01 24-Apr-2013

 --------------------
 #p B2PLYPD3/Def2QZVP
 --------------------

 ---------
 butadiene
 ---------
 Symbolic Z-matrix:
 Charge =  0 Multiplicity = 1

                         Standard orientation:
 ---------------------------------------------------------------------
 Center     Atomic      Atomic             Coordinates (Angstroms)
 Number     Number       Type             X           Y           Z
 ---------------------------------------------------------------------
      1          6           0       -1.856203    0.099813    0.035701
      2          6           0       -0.610304   -0.370499   -0.053714
      3          6           0        0.646718    0.435319   -0.086259
      4          6           0        1.834752   -0.139611    0.025346
      5          1           0       -2.767758   -0.526019    0.209658
      6          1           0       -2.128921    1.133988    0.025336
      7          1           0       -0.562700   -1.449639   -0.112199
      8          1           0        0.585528    1.519018    0.037469
      9          1           0        1.900342   -1.263029    0.099328
     10          1           0        2.883735    0.435548    0.213958
 ---------------------------------------------------------------------

 SCF Done:  E(RB2PLYPD3) =  -155.681389282     A.U. after   11 cycles
 E2(B2PLYPD3) =    -0.2269222322D+00 E(B2PLYPD3) =    -0.15590831151405D+03

 The electronic state is 1-A.
 Alpha  occ. eigenvalues --  -10.63415 -10.63227 -10.63115 -10.61707  -0.92501
 Alpha  occ. eigenvalues --   -0.84891  -0.68753  -0.63971  -0.53864  -0.53327
 Alpha  occ. eigenvalues --   -0.46758  -0.43983  -0.40290  -0.37893  -0.28134
 Alpha virt. eigenvalues --    0.01939   0.06744   0.07403   0.07619   0.09125
 Alpha virt. eigenvalues --    0.11368   0.12473   0.13930   0.15489   0.16646
 Alpha virt. eigenvalues --    0.18917   0.19682   0.21302   0.22959   0.23698

 Mulliken charges:
               1
     1  C   -0.167691
     2  C   -0.037695
     3  C   -0.045603
     4  C   -0.148447
     5  H    0.074044
     6  H    0.061606
     7  H    0.061936
     8  H    0.069482
     9  H    0.059477
    10  H    0.072891
 Sum of Mulliken charges =   0.00000

 Dipole moment (field-independent basis, Debye):
    X=              0.0062    Y=              0.0194    Z=              0.3132  Tot=              0.3139
 Quadrupole moment (field-independent basis, Debye-Ang):
   XX=            -23.3230   YY=            -23.3943   ZZ=            -29.3843
   XY=             -0.0644   XZ=              0.2719   YZ=              0.0938

 1\1\GINC-NODE29\SP\RB2PLYPD3-FC\def2QZVP\C4H6\BOITTIER\26-Aug-2020\0\\
 #p B2PLYPD3/Def2QZVP\\butadiene\\0,1\C,0,-3.867769,0.193666,0.059724\C
 ,0,-2.718506,-0.481304,-0.011437\C,0,-1.344182,0.101031,-0.062664\C,0,
 -0.269265,-0.661464,0.069926\H,0,-4.871161,-0.265113,0.248365\H,0,-3.9
 63189,1.258179,0.01841\H,0,-2.852636,-1.554387,-0.038473\H,0,-1.222601
 ,1.182788,0.029404\H,0,-0.392929,-1.777332,0.176649\H,0,0.861552,-0.26
 5089,0.245673\\Version=ES64L-G09RevD.01\State=1-A\HF=-155.6813893\MP2=
 -155.9083115\RMSD=6.532e-09\PG=C01 [X(C4H6)]\\@

 Normal termination of Gaussian 09 at Wed Aug 26 12:32:32 2020.
