 Gaussian 09, Revision D.01,
 Gaussian 09:  ES64L-G09RevD.01 24-Apr-2013

 --------------------
 #p B2PLYPD3/Def2QZVP
 --------------------

 ---------
 butadiene
 ---------
 Symbolic Z-matrix:
 Charge =  0 Multiplicity = 1

                         Standard orientation:
 ---------------------------------------------------------------------
 Center     Atomic      Atomic             Coordinates (Angstroms)
 Number     Number       Type             X           Y           Z
 ---------------------------------------------------------------------
      1          6           0        1.848794    0.103233   -0.003558
      2          6           0        0.611935   -0.392788    0.014795
      3          6           0       -0.604744    0.418782   -0.008466
      4          6           0       -1.840067   -0.120991   -0.005215
      5          1           0        2.711730   -0.546481   -0.020178
      6          1           0        1.992895    1.164177   -0.063435
      7          1           0        0.421228   -1.474267    0.059568
      8          1           0       -0.506250    1.508528    0.089842
      9          1           0       -1.991323   -1.205628   -0.055823
     10          1           0       -2.723789    0.504259    0.004693
 ---------------------------------------------------------------------

 SCF Done:  E(RB2PLYPD3) =  -155.699695947     A.U. after   11 cycles
 E2(B2PLYPD3) =    -0.2261500404D+00 E(B2PLYPD3) =    -0.15592584598707D+03

 The electronic state is 1-A.
 Alpha  occ. eigenvalues --  -10.62919 -10.62714 -10.61898 -10.61380  -0.92731
 Alpha  occ. eigenvalues --   -0.84772  -0.69995  -0.63803  -0.54414  -0.53823
 Alpha  occ. eigenvalues --   -0.46551  -0.45668  -0.41120  -0.37902  -0.27665
 Alpha virt. eigenvalues --    0.01682   0.07041   0.07329   0.08031   0.09408
 Alpha virt. eigenvalues --    0.11684   0.12397   0.14648   0.15752   0.16057
 Alpha virt. eigenvalues --    0.18758   0.20332   0.21568   0.23017   0.23741

 Mulliken charges:
               1
     1  C   -0.177473
     2  C   -0.028018
     3  C   -0.032651
     4  C   -0.178346
     5  H    0.089182
     6  H    0.068699
     7  H    0.052161
     8  H    0.055313
     9  H    0.065078
    10  H    0.086055
 Sum of Mulliken charges =   0.00000

 Dipole moment (field-independent basis, Debye):
    X=             -0.0287    Y=              0.0063    Z=              0.0104  Tot=              0.0312
 Quadrupole moment (field-independent basis, Debye-Ang):
   XX=            -23.5374   YY=            -23.0840   ZZ=            -29.3531
   XY=              0.1298   XZ=             -0.1375   YZ=              0.0609

 1\1\GINC-NODE21\SP\RB2PLYPD3-FC\def2QZVP\C4H6\BOITTIER\26-Aug-2020\0\\
 #p B2PLYPD3/Def2QZVP\\butadiene\\0,1\C,0,-3.850843,0.217276,0.022592\C
 ,0,-2.723073,-0.492885,0.022157\C,0,-1.380496,0.087606,0.018815\C,0,-0
 .262001,-0.664789,0.034961\H,0,-4.816184,-0.266186,0.060581\H,0,-3.802
 072,1.288264,0.046224\H,0,-2.729596,-1.591915,0.014357\H,0,-1.282528,1
 .173415,-0.116587\H,0,-0.307398,-1.756642,0.122561\H,0,0.719438,-0.208
 883,0.004529\\Version=ES64L-G09RevD.01\State=1-A\HF=-155.6996959\MP2=-
 155.925846\RMSD=4.964e-09\PG=C01 [X(C4H6)]\\@

 Normal termination of Gaussian 09 at Wed Aug 26 09:16:59 2020.
