 Gaussian 09, Revision D.01,
 Gaussian 09:  ES64L-G09RevD.01 24-Apr-2013

 --------------------
 #p B2PLYPD3/Def2QZVP
 --------------------

 ---------
 butadiene
 ---------
 Symbolic Z-matrix:
 Charge =  0 Multiplicity = 1

                         Standard orientation:
 ---------------------------------------------------------------------
 Center     Atomic      Atomic             Coordinates (Angstroms)
 Number     Number       Type             X           Y           Z
 ---------------------------------------------------------------------
      1          6           0        1.821936    0.128773    0.034190
      2          6           0        0.606652   -0.430790   -0.023183
      3          6           0       -0.594666    0.385943   -0.030454
      4          6           0       -1.840850   -0.099265    0.022014
      5          1           0        2.693041   -0.492363    0.001693
      6          1           0        1.940124    1.239154    0.099896
      7          1           0        0.509821   -1.486861   -0.172094
      8          1           0       -0.457445    1.448904   -0.113431
      9          1           0       -1.941057   -1.159662    0.181307
     10          1           0       -2.702920    0.542858   -0.012771
 ---------------------------------------------------------------------

 SCF Done:  E(RB2PLYPD3) =  -155.698182540     A.U. after   11 cycles
 E2(B2PLYPD3) =    -0.2259053615D+00 E(B2PLYPD3) =    -0.15592408790193D+03

 The electronic state is 1-A.
 Alpha  occ. eigenvalues --  -10.62427 -10.62221 -10.61837 -10.61216  -0.93067
 Alpha  occ. eigenvalues --   -0.84835  -0.69859  -0.64253  -0.54417  -0.54142
 Alpha  occ. eigenvalues --   -0.46592  -0.45407  -0.41662  -0.37880  -0.27579
 Alpha virt. eigenvalues --    0.01773   0.07103   0.07417   0.08018   0.09383
 Alpha virt. eigenvalues --    0.11747   0.12398   0.14645   0.15655   0.16184
 Alpha virt. eigenvalues --    0.18663   0.20176   0.21355   0.22871   0.24120

 Mulliken charges:
               1
     1  C   -0.175734
     2  C   -0.041537
     3  C   -0.023765
     4  C   -0.185324
     5  H    0.086199
     6  H    0.066656
     7  H    0.062995
     8  H    0.054772
     9  H    0.065567
    10  H    0.090171
 Sum of Mulliken charges =   0.00000

 Dipole moment (field-independent basis, Debye):
    X=              0.0700    Y=             -0.0001    Z=             -0.0485  Tot=              0.0852
 Quadrupole moment (field-independent basis, Debye-Ang):
   XX=            -23.7897   YY=            -23.0117   ZZ=            -29.2220
   XY=             -0.1220   XZ=             -0.1668   YZ=             -0.0195

 1\1\GINC-NODE01\SP\RB2PLYPD3-FC\def2QZVP\C4H6\BOITTIER\26-Aug-2020\0\\
 #p B2PLYPD3/Def2QZVP\\butadiene\\0,1\C,0,-3.822175,0.237481,-0.012721\
 C,0,-2.726002,-0.528041,0.062765\C,0,-1.398162,0.06083,0.044195\C,0,-0
 .258917,-0.640546,0.007527\H,0,-4.789975,-0.216758,0.039418\H,0,-3.740
 609,1.348491,-0.113898\H,0,-2.818429,-1.579208,0.245365\H,0,-1.342972,
 1.133285,0.093136\H,0,-0.350488,-1.706272,-0.117781\H,0,0.70411,-0.161
 937,0.021963\\Version=ES64L-G09RevD.01\State=1-A\HF=-155.6981825\MP2=-
 155.9240879\RMSD=4.319e-09\PG=C01 [X(C4H6)]\\@

 Normal termination of Gaussian 09 at Wed Aug 26 09:25:56 2020.
