 Gaussian 09, Revision D.01,
 Gaussian 09:  ES64L-G09RevD.01 24-Apr-2013

 --------------------
 #p B2PLYPD3/Def2QZVP
 --------------------

 ---------
 butadiene
 ---------
 Symbolic Z-matrix:
 Charge =  0 Multiplicity = 1

                         Standard orientation:
 ---------------------------------------------------------------------
 Center     Atomic      Atomic             Coordinates (Angstroms)
 Number     Number       Type             X           Y           Z
 ---------------------------------------------------------------------
      1          6           0       -1.847342    0.117633   -0.022710
      2          6           0       -0.606235   -0.415885    0.007319
      3          6           0        0.612945    0.359880   -0.010242
      4          6           0        1.843006   -0.090093   -0.004170
      5          1           0       -2.722384   -0.502172    0.007371
      6          1           0       -2.051988    1.205256    0.013878
      7          1           0       -0.460351   -1.461412    0.150167
      8          1           0        0.460548    1.456404    0.051425
      9          1           0        2.098128   -1.117552   -0.123945
     10          1           0        2.661801    0.590265    0.079916
 ---------------------------------------------------------------------

 SCF Done:  E(RB2PLYPD3) =  -155.696792323     A.U. after   11 cycles
 E2(B2PLYPD3) =    -0.2255001087D+00 E(B2PLYPD3) =    -0.15592229243129D+03

 The electronic state is 1-A.
 Alpha  occ. eigenvalues --  -10.62615 -10.62174 -10.62103 -10.60797  -0.93133
 Alpha  occ. eigenvalues --   -0.85101  -0.70691  -0.63890  -0.54960  -0.53915
 Alpha  occ. eigenvalues --   -0.47257  -0.45587  -0.40706  -0.38065  -0.27777
 Alpha virt. eigenvalues --    0.01548   0.07009   0.07472   0.08073   0.09752
 Alpha virt. eigenvalues --    0.11613   0.12421   0.14863   0.15689   0.16247
 Alpha virt. eigenvalues --    0.18897   0.20222   0.21897   0.22543   0.23736

 Mulliken charges:
               1
     1  C   -0.171352
     2  C   -0.048472
     3  C   -0.011352
     4  C   -0.180166
     5  H    0.084231
     6  H    0.066768
     7  H    0.062353
     8  H    0.045999
     9  H    0.067381
    10  H    0.084609
 Sum of Mulliken charges =   0.00000

 Dipole moment (field-independent basis, Debye):
    X=             -0.0116    Y=             -0.0274    Z=              0.1502  Tot=              0.1531
 Quadrupole moment (field-independent basis, Debye-Ang):
   XX=            -23.2446   YY=            -23.2701   ZZ=            -29.1494
   XY=             -0.3410   XZ=             -0.1383   YZ=              0.1005

 1\1\GINC-NODE02\SP\RB2PLYPD3-FC\def2QZVP\C4H6\BOITTIER\26-Aug-2020\0\\
 #p B2PLYPD3/Def2QZVP\\butadiene\\0,1\C,0,-3.846195,0.241403,0.002321\C
 ,0,-2.723756,-0.509656,0.046244\C,0,-1.383148,0.028818,0.009725\C,0,-0
 .256358,-0.638706,0.027598\H,0,-4.819864,-0.206572,0.047585\H,0,-3.847
 915,1.348677,0.011516\H,0,-2.771336,-1.560349,0.215348\H,0,-1.331768,1
 .135883,0.043789\H,0,-0.194341,-1.698165,-0.066247\H,0,0.673592,-0.118
 088,0.094921\\Version=ES64L-G09RevD.01\State=1-A\HF=-155.6967923\MP2=-
 155.9222924\RMSD=7.280e-09\PG=C01 [X(C4H6)]\\@

 Normal termination of Gaussian 09 at Wed Aug 26 10:24:04 2020.
