 Gaussian 09, Revision D.01,
 Gaussian 09:  ES64L-G09RevD.01 24-Apr-2013

 --------------------
 #p B2PLYPD3/Def2QZVP
 --------------------

 ---------
 butadiene
 ---------
 Symbolic Z-matrix:
 Charge =  0 Multiplicity = 1

                         Standard orientation:
 ---------------------------------------------------------------------
 Center     Atomic      Atomic             Coordinates (Angstroms)
 Number     Number       Type             X           Y           Z
 ---------------------------------------------------------------------
      1          6           0       -1.848437    0.078347    0.026332
      2          6           0       -0.589893   -0.393416   -0.021838
      3          6           0        0.588065    0.435070   -0.017567
      4          6           0        1.820870   -0.111834    0.005931
      5          1           0       -2.723321   -0.544506   -0.034785
      6          1           0       -2.007838    1.170120    0.084204
      7          1           0       -0.346717   -1.423327   -0.044825
      8          1           0        0.471964    1.530791   -0.093550
      9          1           0        1.978592   -1.219841    0.066274
     10          1           0        2.803686    0.437757    0.065538
 ---------------------------------------------------------------------

 SCF Done:  E(RB2PLYPD3) =  -155.693967327     A.U. after   11 cycles
 E2(B2PLYPD3) =    -0.2269640369D+00 E(B2PLYPD3) =    -0.15592093136376D+03

 The electronic state is 1-A.
 Alpha  occ. eigenvalues --  -10.63038 -10.62721 -10.62408 -10.61876  -0.93128
 Alpha  occ. eigenvalues --   -0.84215  -0.70025  -0.64211  -0.54831  -0.52913
 Alpha  occ. eigenvalues --   -0.46931  -0.44743  -0.41123  -0.38186  -0.27391
 Alpha virt. eigenvalues --    0.01374   0.06988   0.07227   0.08060   0.09364
 Alpha virt. eigenvalues --    0.11579   0.12513   0.14395   0.15769   0.16300
 Alpha virt. eigenvalues --    0.18749   0.20190   0.21802   0.23005   0.23223

 Mulliken charges:
               1
     1  C   -0.176708
     2  C   -0.030808
     3  C   -0.025970
     4  C   -0.168603
     5  H    0.089856
     6  H    0.062346
     7  H    0.059547
     8  H    0.057611
     9  H    0.053731
    10  H    0.078999
 Sum of Mulliken charges =   0.00000

 Dipole moment (field-independent basis, Debye):
    X=              0.0601    Y=             -0.0195    Z=              0.0075  Tot=              0.0636
 Quadrupole moment (field-independent basis, Debye-Ang):
   XX=            -23.3349   YY=            -23.3180   ZZ=            -29.4126
   XY=             -0.3073   XZ=              0.2499   YZ=              0.0139

 1\1\GINC-NODE12\SP\RB2PLYPD3-FC\def2QZVP\C4H6\BOITTIER\26-Aug-2020\0\\
 #p B2PLYPD3/Def2QZVP\\butadiene\\0,1\C,0,-3.850064,0.207777,0.041708\C
 ,0,-2.702205,-0.49256,0.014121\C,0,-1.389969,0.100467,-0.004536\C,0,-0
 .281289,-0.666434,0.0419\H,0,-4.826226,-0.241992,-0.002098\H,0,-3.8021
 23,1.311402,0.062681\H,0,-2.656188,-1.54997,0.026286\H,0,-1.299076,1.1
 954,-0.117305\H,0,-0.333635,-1.781741,0.139608\H,0,0.787178,-0.308843,
 0.087049\\Version=ES64L-G09RevD.01\State=1-A\HF=-155.6939673\MP2=-155.
 9209314\RMSD=4.155e-09\PG=C01 [X(C4H6)]\\@

 Normal termination of Gaussian 09 at Wed Aug 26 08:48:00 2020.
