 Gaussian 09, Revision D.01,
 Gaussian 09:  ES64L-G09RevD.01 24-Apr-2013

 --------------------
 #p B2PLYPD3/Def2QZVP
 --------------------

 ---------
 butadiene
 ---------
 Symbolic Z-matrix:
 Charge =  0 Multiplicity = 1

                         Standard orientation:
 ---------------------------------------------------------------------
 Center     Atomic      Atomic             Coordinates (Angstroms)
 Number     Number       Type             X           Y           Z
 ---------------------------------------------------------------------
      1          6           0       -1.785530    0.111306    0.056853
      2          6           0       -0.600386   -0.420023   -0.083060
      3          6           0        0.562175    0.378915   -0.010958
      4          6           0        1.799616   -0.103077    0.004412
      5          1           0       -2.693578   -0.455546    0.008474
      6          1           0       -1.884062    1.207960    0.181142
      7          1           0       -0.520710   -1.454185   -0.132593
      8          1           0        0.501335    1.495150   -0.185892
      9          1           0        2.091388   -1.138208    0.312961
     10          1           0        2.650381    0.542097    0.012428
 ---------------------------------------------------------------------

 SCF Done:  E(RB2PLYPD3) =  -155.688230893     A.U. after   11 cycles
 E2(B2PLYPD3) =    -0.2256040578D+00 E(B2PLYPD3) =    -0.15591383495104D+03

 The electronic state is 1-A.
 Alpha  occ. eigenvalues --  -10.62497 -10.61285 -10.61240 -10.61119  -0.94148
 Alpha  occ. eigenvalues --   -0.85214  -0.70154  -0.64098  -0.55446  -0.53784
 Alpha  occ. eigenvalues --   -0.46571  -0.44561  -0.41086  -0.38786  -0.27719
 Alpha virt. eigenvalues --    0.01823   0.07115   0.07415   0.07850   0.09533
 Alpha virt. eigenvalues --    0.11613   0.12462   0.14975   0.15540   0.16656
 Alpha virt. eigenvalues --    0.18546   0.19587   0.22055   0.22465   0.24017

 Mulliken charges:
               1
     1  C   -0.157236
     2  C   -0.034806
     3  C   -0.029375
     4  C   -0.172998
     5  H    0.081703
     6  H    0.057490
     7  H    0.068964
     8  H    0.056703
     9  H    0.058557
    10  H    0.071000
 Sum of Mulliken charges =   0.00000

 Dipole moment (field-independent basis, Debye):
    X=             -0.1016    Y=             -0.0292    Z=              0.1183  Tot=              0.1586
 Quadrupole moment (field-independent basis, Debye-Ang):
   XX=            -23.6435   YY=            -23.2552   ZZ=            -28.9017
   XY=              0.0585   XZ=              0.2944   YZ=             -0.2281

 1\1\GINC-NODE04\SP\RB2PLYPD3-FC\def2QZVP\C4H6\BOITTIER\26-Aug-2020\0\\
 #p B2PLYPD3/Def2QZVP\\butadiene\\0,1\C,0,-3.782847,0.228461,0.069134\C
 ,0,-2.716088,-0.51755,-0.040156\C,0,-1.426187,0.056389,0.002241\C,0,-0
 .298498,-0.643757,0.046137\H,0,-4.779815,-0.163325,0.041369\H,0,-3.677
 588,1.329018,0.143302\H,0,-2.828168,-1.54989,-0.042567\H,0,-1.281142,1
 .155675,-0.22318\H,0,-0.201246,-1.699821,0.402649\H,0,0.656457,-0.1663
 62,0.029733\\Version=ES64L-G09RevD.01\State=1-A\HF=-155.6882309\MP2=-1
 55.913835\RMSD=6.001e-09\PG=C01 [X(C4H6)]\\@

 Normal termination of Gaussian 09 at Wed Aug 26 15:53:15 2020.
