 Gaussian 09, Revision D.01,
 Gaussian 09:  ES64L-G09RevD.01 24-Apr-2013

 --------------------
 #p B2PLYPD3/Def2QZVP
 --------------------

 ---------
 butadiene
 ---------
 Symbolic Z-matrix:
 Charge =  0 Multiplicity = 1

                         Standard orientation:
 ---------------------------------------------------------------------
 Center     Atomic      Atomic             Coordinates (Angstroms)
 Number     Number       Type             X           Y           Z
 ---------------------------------------------------------------------
      1          6           0       -1.834134    0.082894    0.065434
      2          6           0       -0.622704   -0.327226   -0.063253
      3          6           0        0.608616    0.377126   -0.068256
      4          6           0        1.843078   -0.137986    0.028893
      5          1           0       -2.765857   -0.581319    0.049294
      6          1           0       -1.997607    1.149422   -0.110226
      7          1           0       -0.512054   -1.437653    0.073420
      8          1           0        0.543356    1.540464    0.101967
      9          1           0        2.100313   -1.168154   -0.040115
     10          1           0        2.662717    0.528395    0.148757
 ---------------------------------------------------------------------

 SCF Done:  E(RB2PLYPD3) =  -155.679797258     A.U. after   11 cycles
 E2(B2PLYPD3) =    -0.2263573667D+00 E(B2PLYPD3) =    -0.15590615462430D+03

 The electronic state is 1-A.
 Alpha  occ. eigenvalues --  -10.63557 -10.61991 -10.61648 -10.61582  -0.93707
 Alpha  occ. eigenvalues --   -0.85728  -0.70735  -0.62548  -0.54683  -0.54179
 Alpha  occ. eigenvalues --   -0.47209  -0.44530  -0.39529  -0.38578  -0.28287
 Alpha virt. eigenvalues --    0.01386   0.06952   0.07159   0.07725   0.09987
 Alpha virt. eigenvalues --    0.11583   0.12414   0.14825   0.15237   0.16232
 Alpha virt. eigenvalues --    0.18915   0.18964   0.22019   0.23082   0.23983

 Mulliken charges:
               1
     1  C   -0.158113
     2  C   -0.009219
     3  C   -0.033094
     4  C   -0.173155
     5  H    0.082495
     6  H    0.053925
     7  H    0.039771
     8  H    0.037448
     9  H    0.073931
    10  H    0.086010
 Sum of Mulliken charges =   0.00000

 Dipole moment (field-independent basis, Debye):
    X=              0.1049    Y=             -0.0902    Z=              0.0752  Tot=              0.1575
 Quadrupole moment (field-independent basis, Debye-Ang):
   XX=            -23.0607   YY=            -23.7009   ZZ=            -29.0941
   XY=              0.0319   XZ=              0.4652   YZ=              0.0269

 1\1\GINC-NODE36\SP\RB2PLYPD3-FC\def2QZVP\C4H6\BOITTIER\26-Aug-2020\0\\
 #p B2PLYPD3/Def2QZVP\\butadiene\\0,1\C,0,-3.842892,0.190612,0.082088\C
 ,0,-2.72196,-0.429186,-0.025992\C,0,-1.386411,0.048418,-0.048109\C,0,-
 0.261048,-0.670969,0.073196\H,0,-4.876454,-0.300607,0.083356\H,0,-3.81
 7359,1.262628,-0.130496\H,0,-2.807202,-1.536499,0.148826\H,0,-1.247058
 ,1.21039,0.082245\H,0,-0.188035,-1.731997,0.040538\H,0,0.662592,-0.154
 459,0.174904\\Version=ES64L-G09RevD.01\State=1-A\HF=-155.6797973\MP2=-
 155.9061546\RMSD=9.549e-09\PG=C01 [X(C4H6)]\\@

 Normal termination of Gaussian 09 at Wed Aug 26 15:30:12 2020.
