 Gaussian 09, Revision D.01,
 Gaussian 09:  ES64L-G09RevD.01 24-Apr-2013

 --------------------
 #p B2PLYPD3/Def2QZVP
 --------------------

 ---------
 butadiene
 ---------
 Symbolic Z-matrix:
 Charge =  0 Multiplicity = 1

                         Standard orientation:
 ---------------------------------------------------------------------
 Center     Atomic      Atomic             Coordinates (Angstroms)
 Number     Number       Type             X           Y           Z
 ---------------------------------------------------------------------
      1          6           0       -1.830728   -0.128790    0.033886
      2          6           0       -0.592069    0.432770   -0.028815
      3          6           0        0.607517   -0.377330   -0.058103
      4          6           0        1.829322    0.086060    0.024890
      5          1           0       -2.698445    0.491512    0.050997
      6          1           0       -1.998975   -1.184891   -0.010426
      7          1           0       -0.419333    1.504905   -0.006393
      8          1           0        0.371410   -1.466226    0.014382
      9          1           0        1.951769    1.162019    0.011516
     10          1           0        2.709320   -0.583575    0.108783
 ---------------------------------------------------------------------

 SCF Done:  E(RB2PLYPD3) =  -155.695630813     A.U. after   11 cycles
 E2(B2PLYPD3) =    -0.2261678016D+00 E(B2PLYPD3) =    -0.15592179861509D+03

 The electronic state is 1-A.
 Alpha  occ. eigenvalues --  -10.62934 -10.62195 -10.61715 -10.61434  -0.93209
 Alpha  occ. eigenvalues --   -0.84807  -0.70274  -0.63822  -0.54529  -0.53676
 Alpha  occ. eigenvalues --   -0.46904  -0.45731  -0.40702  -0.38283  -0.27632
 Alpha virt. eigenvalues --    0.01668   0.07037   0.07252   0.08118   0.09511
 Alpha virt. eigenvalues --    0.11782   0.12403   0.14779   0.15644   0.16012
 Alpha virt. eigenvalues --    0.18655   0.20255   0.21586   0.23411   0.23698

 Mulliken charges:
               1
     1  C   -0.180244
     2  C   -0.039550
     3  C   -0.007781
     4  C   -0.179287
     5  H    0.085051
     6  H    0.071137
     7  H    0.052965
     8  H    0.044600
     9  H    0.062848
    10  H    0.090262
 Sum of Mulliken charges =   0.00000

 Dipole moment (field-independent basis, Debye):
    X=             -0.0333    Y=              0.0095    Z=              0.0880  Tot=              0.0946
 Quadrupole moment (field-independent basis, Debye-Ang):
   XX=            -23.6281   YY=            -23.1454   ZZ=            -29.2831
   XY=              0.2938   XZ=              0.2486   YZ=             -0.0615

 1\1\GINC-NODE31\SP\RB2PLYPD3-FC\def2QZVP\C4H6\BOITTIER\26-Aug-2020\0\\
 #p B2PLYPD3/Def2QZVP\\butadiene\\0,1\C,0,-3.828878,0.250055,-0.017349\
 C,0,-2.715053,-0.528392,0.06615\C,0,-1.386167,0.046228,0.06567\C,0,-0.
 271728,-0.637975,-0.000048\H,0,-4.796443,-0.199149,-0.011665\H,0,-3.79
 8598,1.31995,-0.012032\H,0,-2.74374,-1.61407,0.0833\H,0,-1.417295,1.15
 6653,-0.046947\H,0,-0.350302,-1.716804,0.053009\H,0,0.716351,-0.146258
 ,-0.108486\\Version=ES64L-G09RevD.01\State=1-A\HF=-155.6956308\MP2=-15
 5.9217986\RMSD=6.630e-09\PG=C01 [X(C4H6)]\\@

 Normal termination of Gaussian 09 at Wed Aug 26 08:55:38 2020.
