 Gaussian 09, Revision D.01,
 Gaussian 09:  ES64L-G09RevD.01 24-Apr-2013

 --------------------
 #p B2PLYPD3/Def2QZVP
 --------------------

 ---------
 butadiene
 ---------
 Symbolic Z-matrix:
 Charge =  0 Multiplicity = 1

                         Standard orientation:
 ---------------------------------------------------------------------
 Center     Atomic      Atomic             Coordinates (Angstroms)
 Number     Number       Type             X           Y           Z
 ---------------------------------------------------------------------
      1          6           0        1.838602    0.092716    0.008154
      2          6           0        0.595442   -0.386169   -0.008570
      3          6           0       -0.592385    0.416332   -0.005552
      4          6           0       -1.827809   -0.115877   -0.003287
      5          1           0        2.683374   -0.553654    0.023737
      6          1           0        2.027327    1.169619   -0.075397
      7          1           0        0.429690   -1.455936    0.029409
      8          1           0       -0.477040    1.483002    0.079798
      9          1           0       -2.009316   -1.184001   -0.008318
     10          1           0       -2.737130    0.498958    0.006302
 ---------------------------------------------------------------------

 SCF Done:  E(RB2PLYPD3) =  -155.699882624     A.U. after   11 cycles
 E2(B2PLYPD3) =    -0.2259011588D+00 E(B2PLYPD3) =    -0.15592578378298D+03

 The electronic state is 1-A.
 Alpha  occ. eigenvalues --  -10.62470 -10.62244 -10.61882 -10.61373  -0.93266
 Alpha  occ. eigenvalues --   -0.84726  -0.70391  -0.64224  -0.54825  -0.53784
 Alpha  occ. eigenvalues --   -0.46760  -0.45369  -0.41356  -0.38277  -0.27481
 Alpha virt. eigenvalues --    0.01529   0.07033   0.07409   0.08074   0.09607
 Alpha virt. eigenvalues --    0.11682   0.12457   0.14762   0.15815   0.16185
 Alpha virt. eigenvalues --    0.18763   0.20404   0.21767   0.22893   0.23689

 Mulliken charges:
               1
     1  C   -0.178704
     2  C   -0.025799
     3  C   -0.031389
     4  C   -0.174956
     5  H    0.087488
     6  H    0.064283
     7  H    0.053553
     8  H    0.059716
     9  H    0.064933
    10  H    0.080877
 Sum of Mulliken charges =   0.00000

 Dipole moment (field-independent basis, Debye):
    X=             -0.0341    Y=             -0.0179    Z=              0.0363  Tot=              0.0529
 Quadrupole moment (field-independent basis, Debye-Ang):
   XX=            -23.4441   YY=            -23.1420   ZZ=            -29.2538
   XY=              0.2150   XZ=             -0.1168   YZ=             -0.0330

 1\1\GINC-NODE32\SP\RB2PLYPD3-FC\def2QZVP\C4H6\BOITTIER\26-Aug-2020\0\\
 #p B2PLYPD3/Def2QZVP\\butadiene\\0,1\C,0,-3.840765,0.214192,0.011253\C
 ,0,-2.707169,-0.485129,0.042328\C,0,-1.391755,0.084113,0.017781\C,0,-0
 .275678,-0.666695,0.03136\H,0,-4.790301,-0.265449,0.013104\H,0,-3.8273
 05,1.309318,0.064501\H,0,-2.741692,-1.567748,0.034417\H,0,-1.308804,1.
 150983,-0.097463\H,0,-0.294225,-1.749416,0.066408\H,0,0.731373,-0.2306
 37,0.005279\\Version=ES64L-G09RevD.01\State=1-A\HF=-155.6998826\MP2=-1
 55.9257838\RMSD=5.089e-09\PG=C01 [X(C4H6)]\\@

 Normal termination of Gaussian 09 at Wed Aug 26 21:15:39 2020.
