 Gaussian 09, Revision D.01,
 Gaussian 09:  ES64L-G09RevD.01 24-Apr-2013

 --------------------
 #p B2PLYPD3/Def2QZVP
 --------------------

 ---------
 butadiene
 ---------
 Symbolic Z-matrix:
 Charge =  0 Multiplicity = 1

                         Standard orientation:
 ---------------------------------------------------------------------
 Center     Atomic      Atomic             Coordinates (Angstroms)
 Number     Number       Type             X           Y           Z
 ---------------------------------------------------------------------
      1          6           0        1.841643    0.112475    0.020489
      2          6           0        0.613096   -0.396951   -0.025239
      3          6           0       -0.604827    0.382978   -0.039050
      4          6           0       -1.841421   -0.110305    0.008709
      5          1           0        2.712555   -0.513028    0.039671
      6          1           0        1.984990    1.181791    0.035591
      7          1           0        0.448890   -1.474663   -0.017184
      8          1           0       -0.494027    1.463512    0.006463
      9          1           0       -2.022531   -1.145153    0.068374
     10          1           0       -2.680820    0.558362    0.077630
 ---------------------------------------------------------------------

 SCF Done:  E(RB2PLYPD3) =  -155.700606471     A.U. after   11 cycles
 E2(B2PLYPD3) =    -0.2253177551D+00 E(B2PLYPD3) =    -0.15592592422598D+03

 The electronic state is 1-A.
 Alpha  occ. eigenvalues --  -10.62458 -10.62287 -10.61410 -10.61051  -0.93156
 Alpha  occ. eigenvalues --   -0.85187  -0.70527  -0.64084  -0.54722  -0.54283
 Alpha  occ. eigenvalues --   -0.46829  -0.45966  -0.41008  -0.38234  -0.27757
 Alpha virt. eigenvalues --    0.01693   0.07007   0.07481   0.08084   0.09799
 Alpha virt. eigenvalues --    0.11732   0.12454   0.14865   0.15849   0.16091
 Alpha virt. eigenvalues --    0.18804   0.20509   0.21698   0.22800   0.23953

 Mulliken charges:
               1
     1  C   -0.175401
     2  C   -0.032210
     3  C   -0.019972
     4  C   -0.180059
     5  H    0.089224
     6  H    0.066799
     7  H    0.050510
     8  H    0.048838
     9  H    0.067021
    10  H    0.085250
 Sum of Mulliken charges =   0.00000

 Dipole moment (field-independent basis, Debye):
    X=              0.0114    Y=             -0.0067    Z=              0.1520  Tot=              0.1526
 Quadrupole moment (field-independent basis, Debye-Ang):
   XX=            -23.4368   YY=            -23.1437   ZZ=            -29.1724
   XY=              0.1295   XZ=             -0.2134   YZ=              0.0255

 1\1\GINC-NODE22\SP\RB2PLYPD3-FC\def2QZVP\C4H6\BOITTIER\26-Aug-2020\0\\
 #p B2PLYPD3/Def2QZVP\\butadiene\\0,1\C,0,-3.842582,0.226355,-0.003606\
 C,0,-2.725093,-0.493541,0.058839\C,0,-1.38697,0.055199,0.047462\C,0,-0
 .259201,-0.653261,0.015946\H,0,-4.811659,-0.232992,-0.002567\H,0,-3.79
 189,1.302996,-0.053487\H,0,-2.756902,-1.582922,0.085851\H,0,-1.30242,1
 .136056,-0.033174\H,0,-0.266986,-1.705182,-0.010016\H,0,0.686115,-0.14
 8639,-0.074557\\Version=ES64L-G09RevD.01\State=1-A\HF=-155.7006065\MP2
 =-155.9259242\RMSD=2.843e-09\PG=C01 [X(C4H6)]\\@

 Normal termination of Gaussian 09 at Wed Aug 26 16:35:50 2020.
