 Gaussian 09, Revision D.01,
 Gaussian 09:  ES64L-G09RevD.01 24-Apr-2013

 --------------------
 #p B2PLYPD3/Def2QZVP
 --------------------

 ---------
 butadiene
 ---------
 Symbolic Z-matrix:
 Charge =  0 Multiplicity = 1

                         Standard orientation:
 ---------------------------------------------------------------------
 Center     Atomic      Atomic             Coordinates (Angstroms)
 Number     Number       Type             X           Y           Z
 ---------------------------------------------------------------------
      1          6           0       -1.846676   -0.110881    0.009460
      2          6           0       -0.614655    0.402301   -0.012501
      3          6           0        0.605035   -0.412074   -0.031150
      4          6           0        1.852777    0.111663    0.021265
      5          1           0       -2.672974    0.542491   -0.018431
      6          1           0       -2.019652   -1.183852    0.118602
      7          1           0       -0.489895    1.483020   -0.042493
      8          1           0        0.463484   -1.464784   -0.045984
      9          1           0        2.000130    1.190691    0.073403
     10          1           0        2.740018   -0.513622   -0.007537
 ---------------------------------------------------------------------

 SCF Done:  E(RB2PLYPD3) =  -155.699429167     A.U. after   11 cycles
 E2(B2PLYPD3) =    -0.2259650864D+00 E(B2PLYPD3) =    -0.15592539425345D+03

 The electronic state is 1-A.
 Alpha  occ. eigenvalues --  -10.62690 -10.62594 -10.61946 -10.61287  -0.92657
 Alpha  occ. eigenvalues --   -0.84741  -0.70135  -0.64220  -0.54520  -0.53884
 Alpha  occ. eigenvalues --   -0.46599  -0.45875  -0.41376  -0.37771  -0.27567
 Alpha virt. eigenvalues --    0.01607   0.07017   0.07436   0.08114   0.09406
 Alpha virt. eigenvalues --    0.11682   0.12370   0.14694   0.15943   0.16059
 Alpha virt. eigenvalues --    0.18832   0.20553   0.21409   0.22830   0.23888

 Mulliken charges:
               1
     1  C   -0.179435
     2  C   -0.028454
     3  C   -0.040297
     4  C   -0.175412
     5  H    0.087753
     6  H    0.067791
     7  H    0.054264
     8  H    0.060988
     9  H    0.066256
    10  H    0.086545
 Sum of Mulliken charges =   0.00000

 Dipole moment (field-independent basis, Debye):
    X=             -0.0126    Y=              0.0020    Z=              0.0464  Tot=              0.0481
 Quadrupole moment (field-independent basis, Debye-Ang):
   XX=            -23.5571   YY=            -23.0064   ZZ=            -29.3327
   XY=              0.1116   XZ=             -0.0559   YZ=             -0.0663

 1\1\GINC-NODE24\SP\RB2PLYPD3-FC\def2QZVP\C4H6\BOITTIER\26-Aug-2020\0\\
 #p B2PLYPD3/Def2QZVP\\butadiene\\0,1\C,0,-3.848725,0.224123,0.006148\C
 ,0,-2.72871,-0.5008,0.048189\C,0,-1.38263,0.081636,0.042536\C,0,-0.249
 314,-0.658963,0.010633\H,0,-4.778742,-0.269061,0.053877\H,0,-3.826762,
 1.306478,-0.139195\H,0,-2.799785,-1.584756,0.11457\H,0,-1.332936,1.142
 559,0.021851\H,0,-0.298159,-1.748045,-0.005072\H,0,0.735823,-0.202442,
 0.020649\\Version=ES64L-G09RevD.01\State=1-A\HF=-155.6994292\MP2=-155.
 9253943\RMSD=6.016e-09\PG=C01 [X(C4H6)]\\@

 Normal termination of Gaussian 09 at Wed Aug 26 21:32:25 2020.
