 Gaussian 09, Revision D.01,
 Gaussian 09:  ES64L-G09RevD.01 24-Apr-2013

 --------------------
 #p B2PLYPD3/Def2QZVP
 --------------------

 ---------
 butadiene
 ---------
 Symbolic Z-matrix:
 Charge =  0 Multiplicity = 1

                         Standard orientation:
 ---------------------------------------------------------------------
 Center     Atomic      Atomic             Coordinates (Angstroms)
 Number     Number       Type             X           Y           Z
 ---------------------------------------------------------------------
      1          6           0       -1.845656    0.102455   -0.008594
      2          6           0       -0.607343   -0.386241    0.014953
      3          6           0        0.611933    0.417871    0.031516
      4          6           0        1.846727   -0.126823   -0.023726
      5          1           0       -2.709285   -0.574425   -0.034202
      6          1           0       -2.043669    1.171793   -0.015688
      7          1           0       -0.473443   -1.465022   -0.018920
      8          1           0        0.480141    1.484025   -0.017982
      9          1           0        2.017637   -1.194569    0.034956
     10          1           0        2.694654    0.534624   -0.033055
 ---------------------------------------------------------------------

 SCF Done:  E(RB2PLYPD3) =  -155.699966407     A.U. after   11 cycles
 E2(B2PLYPD3) =    -0.2260016519D+00 E(B2PLYPD3) =    -0.15592596805939D+03

 The electronic state is 1-A.
 Alpha  occ. eigenvalues --  -10.62751 -10.62451 -10.61755 -10.61624  -0.92754
 Alpha  occ. eigenvalues --   -0.84774  -0.70044  -0.64090  -0.54260  -0.53948
 Alpha  occ. eigenvalues --   -0.46488  -0.45888  -0.41110  -0.37937  -0.27630
 Alpha virt. eigenvalues --    0.01637   0.06982   0.07424   0.08047   0.09481
 Alpha virt. eigenvalues --    0.11704   0.12300   0.14772   0.15854   0.15993
 Alpha virt. eigenvalues --    0.18789   0.20379   0.21495   0.22933   0.23900

 Mulliken charges:
               1
     1  C   -0.177706
     2  C   -0.024434
     3  C   -0.041185
     4  C   -0.176703
     5  H    0.084128
     6  H    0.065733
     7  H    0.053347
     8  H    0.059511
     9  H    0.072795
    10  H    0.084516
 Sum of Mulliken charges =   0.00000

 Dipole moment (field-independent basis, Debye):
    X=              0.0234    Y=              0.0086    Z=             -0.0396  Tot=              0.0468
 Quadrupole moment (field-independent basis, Debye-Ang):
   XX=            -23.6492   YY=            -22.9699   ZZ=            -29.3468
   XY=             -0.1872   XZ=              0.1013   YZ=             -0.0704

 1\1\GINC-NODE29\SP\RB2PLYPD3-FC\def2QZVP\C4H6\BOITTIER\26-Aug-2020\0\\
 #p B2PLYPD3/Def2QZVP\\butadiene\\0,1\C,0,-3.850377,0.216092,0.005978\C
 ,0,-2.719785,-0.485843,0.048938\C,0,-1.375965,0.086533,0.042614\C,0,-0
 .259129,-0.672402,0.008647\H,0,-4.821521,-0.2953,0.000096\H,0,-3.85331
 9,1.302793,-0.03661\H,0,-2.781737,-1.571663,0.050711\H,0,-1.314466,1.1
 56837,-0.042067\H,0,-0.282403,-1.750991,0.102669\H,0,0.69369,-0.174508
 ,-0.019928\\Version=ES64L-G09RevD.01\State=1-A\HF=-155.6999664\MP2=-15
 5.9259681\RMSD=5.922e-09\PG=C01 [X(C4H6)]\\@

 Normal termination of Gaussian 09 at Wed Aug 26 21:24:15 2020.
