 Gaussian 09, Revision D.01,
 Gaussian 09:  ES64L-G09RevD.01 24-Apr-2013

 --------------------
 #p B2PLYPD3/Def2QZVP
 --------------------

 ---------
 butadiene
 ---------
 Symbolic Z-matrix:
 Charge =  0 Multiplicity = 1

                         Standard orientation:
 ---------------------------------------------------------------------
 Center     Atomic      Atomic             Coordinates (Angstroms)
 Number     Number       Type             X           Y           Z
 ---------------------------------------------------------------------
      1          6           0        1.867275    0.063242   -0.050337
      2          6           0        0.589794   -0.334174    0.094509
      3          6           0       -0.625476    0.433013    0.053608
      4          6           0       -1.830510   -0.162884   -0.073272
      5          1           0        2.683328   -0.605200   -0.071254
      6          1           0        2.047298    1.078169   -0.112013
      7          1           0        0.396113   -1.344181    0.010851
      8          1           0       -0.407194    1.473900    0.052888
      9          1           0       -2.051152   -1.186249   -0.015880
     10          1           0       -2.674893    0.588380   -0.011637
 ---------------------------------------------------------------------

 SCF Done:  E(RB2PLYPD3) =  -155.683198237     A.U. after   11 cycles
 E2(B2PLYPD3) =    -0.2262030351D+00 E(B2PLYPD3) =    -0.15590940127208D+03

 The electronic state is 1-A.
 Alpha  occ. eigenvalues --  -10.62666 -10.62291 -10.61397 -10.60805  -0.93337
 Alpha  occ. eigenvalues --   -0.84846  -0.71261  -0.65156  -0.55059  -0.53857
 Alpha  occ. eigenvalues --   -0.48712  -0.44987  -0.40766  -0.37962  -0.27456
 Alpha virt. eigenvalues --    0.01022   0.06914   0.07656   0.08214   0.09647
 Alpha virt. eigenvalues --    0.11885   0.12352   0.15178   0.15507   0.15962
 Alpha virt. eigenvalues --    0.18858   0.19996   0.21909   0.23012   0.23874

 Mulliken charges:
               1
     1  C   -0.188997
     2  C   -0.013790
     3  C   -0.042025
     4  C   -0.175589
     5  H    0.092246
     6  H    0.058376
     7  H    0.051473
     8  H    0.059281
     9  H    0.085808
    10  H    0.073216
 Sum of Mulliken charges =   0.00000

 Dipole moment (field-independent basis, Debye):
    X=             -0.0186    Y=             -0.0261    Z=             -0.0282  Tot=              0.0427
 Quadrupole moment (field-independent basis, Debye-Ang):
   XX=            -23.7085   YY=            -23.0933   ZZ=            -29.1707
   XY=              0.4608   XZ=             -0.4682   YZ=              0.0328

 1\1\GINC-NODE20\SP\RB2PLYPD3-FC\def2QZVP\C4H6\BOITTIER\26-Aug-2020\0\\
 #p B2PLYPD3/Def2QZVP\\butadiene\\0,1\C,0,-3.875797,0.194017,0.07827\C,
 0,-2.694797,-0.438072,-0.050492\C,0,-1.358788,0.093154,-0.047558\C,0,-
 0.282662,-0.708185,0.104452\H,0,-4.800614,-0.311008,0.131733\H,0,-3.86
 5411,1.226469,0.093196\H,0,-2.689334,-1.461642,0.079505\H,0,-1.381868,
 1.155389,-0.094652\H,0,-0.254631,-1.756212,0.094118\H,0,0.684808,-0.12
 8901,0.006421\\Version=ES64L-G09RevD.01\State=1-A\HF=-155.6831982\MP2=
 -155.9094013\RMSD=8.186e-09\PG=C01 [X(C4H6)]\\@

 Normal termination of Gaussian 09 at Wed Aug 26 16:07:50 2020.
