 Gaussian 09, Revision D.01,
 Gaussian 09:  ES64L-G09RevD.01 24-Apr-2013

 --------------------
 #p B2PLYPD3/Def2QZVP
 --------------------

 ---------
 butadiene
 ---------
 Symbolic Z-matrix:
 Charge =  0 Multiplicity = 1

                         Standard orientation:
 ---------------------------------------------------------------------
 Center     Atomic      Atomic             Coordinates (Angstroms)
 Number     Number       Type             X           Y           Z
 ---------------------------------------------------------------------
      1          6           0       -1.840955   -0.116369    0.012930
      2          6           0       -0.619682    0.370363   -0.045201
      3          6           0        0.616351   -0.401813   -0.001941
      4          6           0        1.838848    0.117981    0.027696
      5          1           0       -2.674694    0.587639    0.043594
      6          1           0       -2.102218   -1.126215    0.173462
      7          1           0       -0.513157    1.485709   -0.113126
      8          1           0        0.566596   -1.508891   -0.172401
      9          1           0        1.980507    1.205711    0.127422
     10          1           0        2.775593   -0.464933   -0.019852
 ---------------------------------------------------------------------

 SCF Done:  E(RB2PLYPD3) =  -155.695063832     A.U. after   11 cycles
 E2(B2PLYPD3) =    -0.2257472383D+00 E(B2PLYPD3) =    -0.15592081107067D+03

 The electronic state is 1-A.
 Alpha  occ. eigenvalues --  -10.62898 -10.62824 -10.61927 -10.61074  -0.92931
 Alpha  occ. eigenvalues --   -0.85305  -0.69921  -0.63308  -0.54469  -0.54105
 Alpha  occ. eigenvalues --   -0.46847  -0.44826  -0.40402  -0.38120  -0.28124
 Alpha virt. eigenvalues --    0.01878   0.06985   0.07380   0.07767   0.09653
 Alpha virt. eigenvalues --    0.11497   0.12423   0.14738   0.15598   0.16359
 Alpha virt. eigenvalues --    0.18848   0.20075   0.21721   0.22405   0.23606

 Mulliken charges:
               1
     1  C   -0.167710
     2  C   -0.030409
     3  C   -0.033385
     4  C   -0.169125
     5  H    0.077458
     6  H    0.072742
     7  H    0.050452
     8  H    0.056392
     9  H    0.058771
    10  H    0.084815
 Sum of Mulliken charges =   0.00000

 Dipole moment (field-independent basis, Debye):
    X=              0.0184    Y=             -0.0028    Z=              0.0255  Tot=              0.0316
 Quadrupole moment (field-independent basis, Debye-Ang):
   XX=            -23.2738   YY=            -23.3091   ZZ=            -29.1896
   XY=              0.1089   XZ=             -0.4189   YZ=              0.0853

 1\1\GINC-NODE19\SP\RB2PLYPD3-FC\def2QZVP\C4H6\BOITTIER\26-Aug-2020\0\\
 #p B2PLYPD3/Def2QZVP\\butadiene\\0,1\C,0,-3.844703,0.216422,0.000988\C
 ,0,-2.726814,-0.474028,0.07445\C,0,-1.375233,0.070391,0.022076\C,0,-0.
 261774,-0.654581,0.008437\H,0,-4.788167,-0.332327,-0.019946\H,0,-3.926
 078,1.252896,-0.180446\H,0,-2.816048,-1.589315,0.16461\H,0,-1.23185,1.
 172439,0.170686\H,0,-0.311382,-1.752147,-0.06939\H,0,0.762035,-0.24263
 1,0.049106\\Version=ES64L-G09RevD.01\State=1-A\HF=-155.6950638\MP2=-15
 5.9208111\RMSD=3.091e-09\PG=C01 [X(C4H6)]\\@

 Normal termination of Gaussian 09 at Wed Aug 26 08:56:22 2020.
