 Gaussian 09, Revision D.01,
 Gaussian 09:  ES64L-G09RevD.01 24-Apr-2013

 --------------------
 #p B2PLYPD3/Def2QZVP
 --------------------

 ---------
 butadiene
 ---------
 Symbolic Z-matrix:
 Charge =  0 Multiplicity = 1

                         Standard orientation:
 ---------------------------------------------------------------------
 Center     Atomic      Atomic             Coordinates (Angstroms)
 Number     Number       Type             X           Y           Z
 ---------------------------------------------------------------------
      1          6           0       -1.852252    0.099762    0.010754
      2          6           0       -0.600893   -0.381091   -0.025135
      3          6           0        0.612489    0.406257   -0.006078
      4          6           0        1.838721   -0.121981    0.009725
      5          1           0       -2.703447   -0.572193    0.036546
      6          1           0       -2.044918    1.172670   -0.018778
      7          1           0       -0.421306   -1.460291    0.038234
      8          1           0        0.493578    1.493802    0.009232
      9          1           0        1.986068   -1.183181   -0.025334
     10          1           0        2.701640    0.531512    0.024506
 ---------------------------------------------------------------------

 SCF Done:  E(RB2PLYPD3) =  -155.700435206     A.U. after   11 cycles
 E2(B2PLYPD3) =    -0.2259726602D+00 E(B2PLYPD3) =    -0.15592640786635D+03

 The electronic state is 1-A.
 Alpha  occ. eigenvalues --  -10.62636 -10.62511 -10.61778 -10.61489  -0.92992
 Alpha  occ. eigenvalues --   -0.84858  -0.70298  -0.63826  -0.54444  -0.53939
 Alpha  occ. eigenvalues --   -0.46603  -0.45845  -0.40982  -0.38156  -0.27639
 Alpha virt. eigenvalues --    0.01566   0.07000   0.07377   0.08034   0.09679
 Alpha virt. eigenvalues --    0.11712   0.12321   0.14801   0.15746   0.16050
 Alpha virt. eigenvalues --    0.18766   0.20397   0.21502   0.22932   0.23820

 Mulliken charges:
               1
     1  C   -0.180161
     2  C   -0.027995
     3  C   -0.025370
     4  C   -0.178741
     5  H    0.088417
     6  H    0.067740
     7  H    0.049827
     8  H    0.050452
     9  H    0.068752
    10  H    0.087079
 Sum of Mulliken charges =   0.00000

 Dipole moment (field-independent basis, Debye):
    X=              0.0350    Y=              0.0087    Z=              0.0309  Tot=              0.0475
 Quadrupole moment (field-independent basis, Debye-Ang):
   XX=            -23.5370   YY=            -23.1008   ZZ=            -29.3105
   XY=             -0.1602   XZ=             -0.0777   YZ=             -0.0463

 1\1\GINC-NODE12\SP\RB2PLYPD3-FC\def2QZVP\C4H6\BOITTIER\26-Aug-2020\0\\
 #p B2PLYPD3/Def2QZVP\\butadiene\\0,1\C,0,-3.855778,0.217747,0.031132\C
 ,0,-2.71199,-0.482131,0.013105\C,0,-1.376315,0.073309,0.007227\C,0,-0.
 265548,-0.666885,0.042426\H,0,-4.814173,-0.288182,0.078423\H,0,-3.8517
 02,1.306216,-0.034774\H,0,-2.729904,-1.573294,0.113023\H,0,-1.296839,1
 .164341,-0.014258\H,0,-0.312394,-1.737815,0.043323\H,0,0.701239,-0.179
 868,0.036322\\Version=ES64L-G09RevD.01\State=1-A\HF=-155.7004352\MP2=-
 155.9264079\RMSD=3.368e-09\PG=C01 [X(C4H6)]\\@

 Normal termination of Gaussian 09 at Wed Aug 26 10:30:42 2020.
