 Gaussian 09, Revision D.01,
 Gaussian 09:  ES64L-G09RevD.01 24-Apr-2013

 --------------------
 #p B2PLYPD3/Def2QZVP
 --------------------

 ---------
 butadiene
 ---------
 Symbolic Z-matrix:
 Charge =  0 Multiplicity = 1

                         Standard orientation:
 ---------------------------------------------------------------------
 Center     Atomic      Atomic             Coordinates (Angstroms)
 Number     Number       Type             X           Y           Z
 ---------------------------------------------------------------------
      1          6           0       -1.819743   -0.138364    0.006756
      2          6           0       -0.606484    0.434562    0.015371
      3          6           0        0.601813   -0.387802   -0.017044
      4          6           0        1.827099    0.094375   -0.009835
      5          1           0       -2.736602    0.447532   -0.018066
      6          1           0       -1.880000   -1.177054   -0.113119
      7          1           0       -0.567850    1.535886    0.038229
      8          1           0        0.423729   -1.473836    0.130524
      9          1           0        2.011040    1.154652   -0.038909
     10          1           0        2.733574   -0.503816    0.029852
 ---------------------------------------------------------------------

 SCF Done:  E(RB2PLYPD3) =  -155.696732178     A.U. after   11 cycles
 E2(B2PLYPD3) =    -0.2257039590D+00 E(B2PLYPD3) =    -0.15592243613678D+03

 The electronic state is 1-A.
 Alpha  occ. eigenvalues --  -10.62807 -10.62680 -10.61193 -10.61153  -0.93052
 Alpha  occ. eigenvalues --   -0.85095  -0.69799  -0.64042  -0.54780  -0.53933
 Alpha  occ. eigenvalues --   -0.46502  -0.45385  -0.41124  -0.38119  -0.27808
 Alpha virt. eigenvalues --    0.01994   0.07105   0.07360   0.07982   0.09298
 Alpha virt. eigenvalues --    0.11683   0.12621   0.14604   0.15562   0.16451
 Alpha virt. eigenvalues --    0.18704   0.20036   0.21789   0.23278   0.23757

 Mulliken charges:
               1
     1  C   -0.174756
     2  C   -0.032347
     3  C   -0.029622
     4  C   -0.171706
     5  H    0.083270
     6  H    0.065835
     7  H    0.056293
     8  H    0.056402
     9  H    0.063427
    10  H    0.083203
 Sum of Mulliken charges =   0.00000

 Dipole moment (field-independent basis, Debye):
    X=              0.0039    Y=              0.0438    Z=              0.0118  Tot=              0.0455
 Quadrupole moment (field-independent basis, Debye-Ang):
   XX=            -23.4171   YY=            -23.1718   ZZ=            -29.2070
   XY=              0.0559   XZ=              0.3532   YZ=             -0.0593

 1\1\GINC-NODE02\SP\RB2PLYPD3-FC\def2QZVP\C4H6\BOITTIER\26-Aug-2020\0\\
 #p B2PLYPD3/Def2QZVP\\butadiene\\0,1\C,0,-3.818976,0.242491,0.013788\C
 ,0,-2.726083,-0.535845,0.02354\C,0,-1.391332,0.060595,0.027164\C,0,-0.
 270562,-0.630551,0.035246\H,0,-4.824721,-0.170958,0.059141\H,0,-3.6939
 97,1.278866,0.098552\H,0,-2.882751,-1.626798,0.037872\H,0,-1.375774,1.
 155516,-0.156865\H,0,-0.276609,-1.705093,0.099974\H,0,0.727033,-0.2036
 63,-0.02537\\Version=ES64L-G09RevD.01\State=1-A\HF=-155.6967322\MP2=-1
 55.9224361\RMSD=5.804e-09\PG=C01 [X(C4H6)]\\@

 Normal termination of Gaussian 09 at Wed Aug 26 09:02:05 2020.
