 Gaussian 09, Revision D.01,
 Gaussian 09:  ES64L-G09RevD.01 24-Apr-2013

 --------------------
 #p B2PLYPD3/Def2QZVP
 --------------------

 ---------
 butadiene
 ---------
 Symbolic Z-matrix:
 Charge =  0 Multiplicity = 1

                         Standard orientation:
 ---------------------------------------------------------------------
 Center     Atomic      Atomic             Coordinates (Angstroms)
 Number     Number       Type             X           Y           Z
 ---------------------------------------------------------------------
      1          6           0       -1.849179   -0.117281   -0.044812
      2          6           0       -0.616544    0.392039    0.037146
      3          6           0        0.605134   -0.400265    0.022666
      4          6           0        1.847702    0.104256   -0.043028
      5          1           0       -2.672640    0.542934   -0.030090
      6          1           0       -2.038543   -1.160244   -0.039078
      7          1           0       -0.520570    1.469257    0.191890
      8          1           0        0.550494   -1.453383    0.112910
      9          1           0        1.997598    1.199032   -0.129473
     10          1           0        2.760978   -0.470090    0.062017
 ---------------------------------------------------------------------

 SCF Done:  E(RB2PLYPD3) =  -155.697070200     A.U. after   11 cycles
 E2(B2PLYPD3) =    -0.2257101299D+00 E(B2PLYPD3) =    -0.15592278033041D+03

 The electronic state is 1-A.
 Alpha  occ. eigenvalues --  -10.62727 -10.62394 -10.61851 -10.61046  -0.92849
 Alpha  occ. eigenvalues --   -0.85026  -0.70280  -0.64239  -0.54637  -0.54367
 Alpha  occ. eigenvalues --   -0.46802  -0.45479  -0.41455  -0.37641  -0.27695
 Alpha virt. eigenvalues --    0.01573   0.07057   0.07573   0.07953   0.09594
 Alpha virt. eigenvalues --    0.11594   0.12488   0.14622   0.15749   0.16478
 Alpha virt. eigenvalues --    0.18972   0.20175   0.21680   0.22357   0.23874

 Mulliken charges:
               1
     1  C   -0.175627
     2  C   -0.036879
     3  C   -0.035919
     4  C   -0.170412
     5  H    0.085235
     6  H    0.072155
     7  H    0.059125
     8  H    0.060749
     9  H    0.056051
    10  H    0.085523
 Sum of Mulliken charges =   0.00000

 Dipole moment (field-independent basis, Debye):
    X=             -0.0266    Y=             -0.0306    Z=              0.1977  Tot=              0.2018
 Quadrupole moment (field-independent basis, Debye-Ang):
   XX=            -23.2976   YY=            -23.1892   ZZ=            -29.2046
   XY=              0.0007   XZ=              0.0921   YZ=             -0.0668

 1\1\GINC-NODE09\SP\RB2PLYPD3-FC\def2QZVP\C4H6\BOITTIER\26-Aug-2020\0\\
 #p B2PLYPD3/Def2QZVP\\butadiene\\0,1\C,0,-3.850385,0.225173,0.059057\C
 ,0,-2.727132,-0.495777,-0.004564\C,0,-1.384921,0.068874,-0.014032\C,0,
 -0.25041,-0.644353,0.06978\H,0,-4.777342,-0.279713,0.064571\H,0,-3.853
 053,1.284451,0.019225\H,0,-2.823118,-1.577461,-0.124149\H,0,-1.253548,
 1.111681,-0.138465\H,0,-0.295374,-1.745053,0.191904\H,0,0.749311,-0.24
 3629,-0.052524\\Version=ES64L-G09RevD.01\State=1-A\HF=-155.6970702\MP2
 =-155.9227803\RMSD=6.355e-09\PG=C01 [X(C4H6)]\\@

 Normal termination of Gaussian 09 at Wed Aug 26 09:13:50 2020.
