 Gaussian 09, Revision D.01,
 Gaussian 09:  ES64L-G09RevD.01 24-Apr-2013

 --------------------
 #p B2PLYPD3/Def2QZVP
 --------------------

 ---------
 butadiene
 ---------
 Symbolic Z-matrix:
 Charge =  0 Multiplicity = 1

                         Standard orientation:
 ---------------------------------------------------------------------
 Center     Atomic      Atomic             Coordinates (Angstroms)
 Number     Number       Type             X           Y           Z
 ---------------------------------------------------------------------
      1          6           0        1.840048    0.126111   -0.048740
      2          6           0        0.608777   -0.402729    0.056610
      3          6           0       -0.602667    0.313331    0.064266
      4          6           0       -1.843577   -0.093072   -0.088166
      5          1           0        2.839612   -0.407563   -0.056962
      6          1           0        2.004965    1.229328   -0.111645
      7          1           0        0.481097   -1.540025    0.056368
      8          1           0       -0.588524    1.440989    0.227255
      9          1           0       -2.123578   -1.082762    0.061690
     10          1           0       -2.629060    0.698192   -0.080521
 ---------------------------------------------------------------------

 SCF Done:  E(RB2PLYPD3) =  -155.679590485     A.U. after   11 cycles
 E2(B2PLYPD3) =    -0.2271380692D+00 E(B2PLYPD3) =    -0.15590672855383D+03

 The electronic state is 1-A.
 Alpha  occ. eigenvalues --  -10.63484 -10.63086 -10.62410 -10.61066  -0.93554
 Alpha  occ. eigenvalues --   -0.85145  -0.70656  -0.62896  -0.54718  -0.53813
 Alpha  occ. eigenvalues --   -0.46922  -0.44409  -0.40491  -0.37843  -0.27786
 Alpha virt. eigenvalues --    0.01025   0.06794   0.07217   0.07589   0.10071
 Alpha virt. eigenvalues --    0.11467   0.12404   0.14533   0.15625   0.16493
 Alpha virt. eigenvalues --    0.18844   0.19982   0.21276   0.22180   0.23862

 Mulliken charges:
               1
     1  C   -0.153390
     2  C   -0.041371
     3  C   -0.003830
     4  C   -0.170956
     5  H    0.083975
     6  H    0.060968
     7  H    0.046535
     8  H    0.035863
     9  H    0.068559
    10  H    0.073646
 Sum of Mulliken charges =   0.00000

 Dipole moment (field-independent basis, Debye):
    X=              0.1089    Y=              0.0173    Z=              0.1783  Tot=              0.2097
 Quadrupole moment (field-independent basis, Debye-Ang):
   XX=            -23.1582   YY=            -23.6018   ZZ=            -29.2513
   XY=              0.1020   XZ=             -0.4644   YZ=             -0.0709

 1\1\GINC-NODE09\SP\RB2PLYPD3-FC\def2QZVP\C4H6\BOITTIER\26-Aug-2020\0\\
 #p B2PLYPD3/Def2QZVP\\butadiene\\0,1\C,0,-3.83919,0.239985,0.072821\C,
 0,-2.721146,-0.499709,-0.025309\C,0,-1.402445,-0.008959,-0.049566\C,0,
 -0.251839,-0.625107,0.10767\H,0,-4.91716,-0.108657,0.093645\H,0,-3.806
 538,1.35596,0.114971\H,0,-2.796101,-1.641486,-0.003583\H,0,-1.218368,1
 .100295,-0.234094\H,0,-0.151683,-1.65127,-0.023864\H,0,0.660856,0.0148
 31,0.082997\\Version=ES64L-G09RevD.01\State=1-A\HF=-155.6795905\MP2=-1
 55.9067286\RMSD=8.744e-09\PG=C01 [X(C4H6)]\\@

 Normal termination of Gaussian 09 at Wed Aug 26 12:49:33 2020.
