 Gaussian 09, Revision D.01,
 Gaussian 09:  ES64L-G09RevD.01 24-Apr-2013

 --------------------
 #p B2PLYPD3/Def2QZVP
 --------------------

 ---------
 butadiene
 ---------
 Symbolic Z-matrix:
 Charge =  0 Multiplicity = 1

                         Standard orientation:
 ---------------------------------------------------------------------
 Center     Atomic      Atomic             Coordinates (Angstroms)
 Number     Number       Type             X           Y           Z
 ---------------------------------------------------------------------
      1          6           0        1.843416   -0.113164   -0.000015
      2          6           0        0.613679    0.407412   -0.018456
      3          6           0       -0.608480   -0.393716   -0.005469
      4          6           0       -1.845069    0.108298    0.015813
      5          1           0        2.739809    0.487222    0.056231
      6          1           0        1.953665   -1.221257    0.074357
      7          1           0        0.525404    1.504887   -0.058550
      8          1           0       -0.487524   -1.463882   -0.066401
      9          1           0       -2.037067    1.175830    0.058036
     10          1           0       -2.715562   -0.535783   -0.014910
 ---------------------------------------------------------------------

 SCF Done:  E(RB2PLYPD3) =  -155.699734612     A.U. after   11 cycles
 E2(B2PLYPD3) =    -0.2259396010D+00 E(B2PLYPD3) =    -0.15592567421276D+03

 The electronic state is 1-A.
 Alpha  occ. eigenvalues --  -10.62803 -10.62615 -10.61854 -10.61582  -0.92811
 Alpha  occ. eigenvalues --   -0.84914  -0.69869  -0.63817  -0.54590  -0.53773
 Alpha  occ. eigenvalues --   -0.46780  -0.45084  -0.41084  -0.38037  -0.27790
 Alpha virt. eigenvalues --    0.01755   0.07013   0.07377   0.07978   0.09543
 Alpha virt. eigenvalues --    0.11624   0.12426   0.14526   0.15875   0.16181
 Alpha virt. eigenvalues --    0.18821   0.20446   0.21417   0.22701   0.23754

 Mulliken charges:
               1
     1  C   -0.170269
     2  C   -0.031396
     3  C   -0.033073
     4  C   -0.173987
     5  H    0.088775
     6  H    0.057749
     7  H    0.053112
     8  H    0.057342
     9  H    0.067133
    10  H    0.084615
 Sum of Mulliken charges =   0.00000

 Dipole moment (field-independent basis, Debye):
    X=             -0.0106    Y=              0.0235    Z=              0.0329  Tot=              0.0418
 Quadrupole moment (field-independent basis, Debye-Ang):
   XX=            -23.4205   YY=            -23.1488   ZZ=            -29.3241
   XY=              0.0334   XZ=              0.2620   YZ=              0.0413

 1\1\GINC-NODE02\SP\RB2PLYPD3-FC\def2QZVP\C4H6\BOITTIER\26-Aug-2020\0\\
 #p B2PLYPD3/Def2QZVP\\butadiene\\0,1\C,0,-3.845917,0.222959,0.022248\C
 ,0,-2.727625,-0.507114,0.019211\C,0,-1.383094,0.065386,0.007901\C,0,-0
 .25456,-0.646463,0.04401\H,0,-4.833964,-0.207591,0.096669\H,0,-3.75823
 9,1.334795,0.063334\H,0,-2.834867,-1.603608,0.012072\H,0,-1.313399,1.1
 37808,-0.085114\H,0,-0.253969,-1.729404,0.118233\H,0,0.715855,-0.16759
 4,-0.006206\\Version=ES64L-G09RevD.01\State=1-A\HF=-155.6997346\MP2=-1
 55.9256742\RMSD=3.615e-09\PG=C01 [X(C4H6)]\\@

 Normal termination of Gaussian 09 at Wed Aug 26 21:53:36 2020.
