 Gaussian 09, Revision D.01,
 Gaussian 09:  ES64L-G09RevD.01 24-Apr-2013

 --------------------
 #p B2PLYPD3/Def2QZVP
 --------------------

 ---------
 butadiene
 ---------
 Symbolic Z-matrix:
 Charge =  0 Multiplicity = 1

                         Standard orientation:
 ---------------------------------------------------------------------
 Center     Atomic      Atomic             Coordinates (Angstroms)
 Number     Number       Type             X           Y           Z
 ---------------------------------------------------------------------
      1          6           0       -1.839111   -0.112274    0.018183
      2          6           0       -0.599865    0.412857   -0.039783
      3          6           0        0.604303   -0.382785   -0.018400
      4          6           0        1.833754    0.098776    0.009308
      5          1           0       -2.758089    0.466246    0.061678
      6          1           0       -1.955615   -1.209871    0.011552
      7          1           0       -0.471613    1.482497    0.018493
      8          1           0        0.486259   -1.465590   -0.000994
      9          1           0        2.010313    1.184505    0.041010
     10          1           0        2.694254   -0.557232    0.052416
 ---------------------------------------------------------------------

 SCF Done:  E(RB2PLYPD3) =  -155.699659663     A.U. after   11 cycles
 E2(B2PLYPD3) =    -0.2259232263D+00 E(B2PLYPD3) =    -0.15592558288887D+03

 The electronic state is 1-A.
 Alpha  occ. eigenvalues --  -10.62651 -10.62234 -10.62059 -10.61451  -0.93177
 Alpha  occ. eigenvalues --   -0.84864  -0.70041  -0.63962  -0.54700  -0.53760
 Alpha  occ. eigenvalues --   -0.46805  -0.45062  -0.41143  -0.38302  -0.27685
 Alpha virt. eigenvalues --    0.01672   0.07011   0.07369   0.08022   0.09678
 Alpha virt. eigenvalues --    0.11645   0.12462   0.14563   0.15810   0.16245
 Alpha virt. eigenvalues --    0.18773   0.20345   0.21588   0.22696   0.23891

 Mulliken charges:
               1
     1  C   -0.171860
     2  C   -0.035592
     3  C   -0.019899
     4  C   -0.175184
     5  H    0.087743
     6  H    0.060252
     7  H    0.056345
     8  H    0.049864
     9  H    0.061718
    10  H    0.086614
 Sum of Mulliken charges =   0.00000

 Dipole moment (field-independent basis, Debye):
    X=             -0.0170    Y=             -0.0020    Z=              0.1286  Tot=              0.1297
 Quadrupole moment (field-independent basis, Debye-Ang):
   XX=            -23.4045   YY=            -23.2041   ZZ=            -29.2841
   XY=             -0.0031   XZ=             -0.0017   YZ=              0.0715

 1\1\GINC-NODE37\SP\RB2PLYPD3-FC\def2QZVP\C4H6\BOITTIER\26-Aug-2020\0\\
 #p B2PLYPD3/Def2QZVP\\butadiene\\0,1\C,0,-3.840609,0.22744,-0.002851\C
 ,0,-2.715972,-0.510573,0.0705\C,0,-1.388317,0.054477,0.03081\C,0,-0.26
 5727,-0.641102,0.017388\H,0,-4.848843,-0.177095,-0.033087\H,0,-3.75760
 6,1.327887,-0.024385\H,0,-2.782541,-1.586954,0.039712\H,0,-1.309563,1.
 140046,-0.014378\H,0,-0.287596,-1.741326,0.013655\H,0,0.698674,-0.1520
 38,-0.041021\\Version=ES64L-G09RevD.01\State=1-A\HF=-155.6996597\MP2=-
 155.9255829\RMSD=5.660e-09\PG=C01 [X(C4H6)]\\@

 Normal termination of Gaussian 09 at Wed Aug 26 21:28:49 2020.
