 Gaussian 09, Revision D.01,
 Gaussian 09:  ES64L-G09RevD.01 24-Apr-2013

 --------------------
 #p B2PLYPD3/Def2QZVP
 --------------------

 ---------
 butadiene
 ---------
 Symbolic Z-matrix:
 Charge =  0 Multiplicity = 1

                         Standard orientation:
 ---------------------------------------------------------------------
 Center     Atomic      Atomic             Coordinates (Angstroms)
 Number     Number       Type             X           Y           Z
 ---------------------------------------------------------------------
      1          6           0        1.852154   -0.096774    0.022570
      2          6           0        0.627847    0.391741   -0.033266
      3          6           0       -0.607723   -0.399465   -0.022749
      4          6           0       -1.860104    0.106448    0.003925
      5          1           0        2.759685    0.504326    0.044649
      6          1           0        1.961937   -1.182115    0.031727
      7          1           0        0.439033    1.484159   -0.067173
      8          1           0       -0.444243   -1.476983    0.018612
      9          1           0       -2.088302    1.192304    0.148390
     10          1           0       -2.701157   -0.533392    0.000915
 ---------------------------------------------------------------------

 SCF Done:  E(RB2PLYPD3) =  -155.696579603     A.U. after   11 cycles
 E2(B2PLYPD3) =    -0.2261257195D+00 E(B2PLYPD3) =    -0.15592270532216D+03

 The electronic state is 1-A.
 Alpha  occ. eigenvalues --  -10.63083 -10.62664 -10.62040 -10.61631  -0.92716
 Alpha  occ. eigenvalues --   -0.84910  -0.70258  -0.63524  -0.54936  -0.53210
 Alpha  occ. eigenvalues --   -0.47372  -0.45327  -0.40445  -0.37951  -0.27865
 Alpha virt. eigenvalues --    0.01577   0.06996   0.07291   0.08099   0.09582
 Alpha virt. eigenvalues --    0.11590   0.12409   0.14586   0.15758   0.16155
 Alpha virt. eigenvalues --    0.18869   0.20477   0.21644   0.22561   0.23608

 Mulliken charges:
               1
     1  C   -0.171086
     2  C   -0.019663
     3  C   -0.038623
     4  C   -0.174838
     5  H    0.092120
     6  H    0.059439
     7  H    0.047773
     8  H    0.051408
     9  H    0.065553
    10  H    0.087916
 Sum of Mulliken charges =   0.00000

 Dipole moment (field-independent basis, Debye):
    X=              0.0110    Y=             -0.0178    Z=              0.1302  Tot=              0.1318
 Quadrupole moment (field-independent basis, Debye-Ang):
   XX=            -23.1870   YY=            -23.3538   ZZ=            -29.3265
   XY=             -0.1886   XZ=             -0.1616   YZ=              0.0819

 1\1\GINC-NODE05\SP\RB2PLYPD3-FC\def2QZVP\C4H6\BOITTIER\26-Aug-2020\0\\
 #p B2PLYPD3/Def2QZVP\\butadiene\\0,1\C,0,-3.854812,0.215965,0.040795\C
 ,0,-2.739168,-0.487439,0.00538\C,0,-1.380874,0.067233,-0.005907\C,0,-0
 .240555,-0.655618,0.041815\H,0,-4.856017,-0.210074,0.079531\H,0,-3.766
 506,1.302966,0.013749\H,0,-2.751088,-1.596505,0.008198\H,0,-1.346712,1
 .157319,-0.000695\H,0,-0.212102,-1.759453,0.222828\H,0,0.702321,-0.178
 848,0.020627\\Version=ES64L-G09RevD.01\State=1-A\HF=-155.6965796\MP2=-
 155.9227053\RMSD=5.559e-09\PG=C01 [X(C4H6)]\\@

 Normal termination of Gaussian 09 at Wed Aug 26 11:11:32 2020.
