 Gaussian 09, Revision D.01,
 Gaussian 09:  ES64L-G09RevD.01 24-Apr-2013

 --------------------
 #p B2PLYPD3/Def2QZVP
 --------------------

 ---------
 butadiene
 ---------
 Symbolic Z-matrix:
 Charge =  0 Multiplicity = 1

                         Standard orientation:
 ---------------------------------------------------------------------
 Center     Atomic      Atomic             Coordinates (Angstroms)
 Number     Number       Type             X           Y           Z
 ---------------------------------------------------------------------
      1          6           0       -1.816816    0.105462    0.056011
      2          6           0       -0.605495   -0.391492   -0.106800
      3          6           0        0.584647    0.374435   -0.071487
      4          6           0        1.800928   -0.103402    0.016106
      5          1           0       -2.667653   -0.533036    0.245054
      6          1           0       -1.822447    1.224250   -0.029216
      7          1           0       -0.351239   -1.443118   -0.033080
      8          1           0        0.516608    1.464436    0.081889
      9          1           0        1.977771   -1.145331    0.186828
     10          1           0        2.567376    0.522775    0.185540
 ---------------------------------------------------------------------

 SCF Done:  E(RB2PLYPD3) =  -155.683047609     A.U. after   11 cycles
 E2(B2PLYPD3) =    -0.2255034325D+00 E(B2PLYPD3) =    -0.15590855104143D+03

 The electronic state is 1-A.
 Alpha  occ. eigenvalues --  -10.61948 -10.61791 -10.61698 -10.59887  -0.94253
 Alpha  occ. eigenvalues --   -0.85790  -0.70832  -0.63795  -0.55574  -0.53970
 Alpha  occ. eigenvalues --   -0.47143  -0.45403  -0.40954  -0.38687  -0.27854
 Alpha virt. eigenvalues --    0.01762   0.07129   0.07330   0.08150   0.09730
 Alpha virt. eigenvalues --    0.11917   0.12549   0.14645   0.15619   0.16266
 Alpha virt. eigenvalues --    0.18563   0.19620   0.21775   0.22910   0.25121

 Mulliken charges:
               1
     1  C   -0.180287
     2  C   -0.021528
     3  C   -0.005782
     4  C   -0.172955
     5  H    0.097656
     6  H    0.068500
     7  H    0.045753
     8  H    0.034838
     9  H    0.052979
    10  H    0.080826
 Sum of Mulliken charges =   0.00000

 Dipole moment (field-independent basis, Debye):
    X=             -0.0076    Y=             -0.0286    Z=              0.4785  Tot=              0.4794
 Quadrupole moment (field-independent basis, Debye-Ang):
   XX=            -23.9379   YY=            -23.3484   ZZ=            -28.8221
   XY=              0.2128   XZ=              0.2650   YZ=             -0.1924

 1\1\GINC-NODE12\SP\RB2PLYPD3-FC\def2QZVP\C4H6\BOITTIER\26-Aug-2020\0\\
 #p B2PLYPD3/Def2QZVP\\butadiene\\0,1\C,0,-3.813763,0.225994,0.080353\C
 ,0,-2.714836,-0.49109,-0.057199\C,0,-1.404113,0.0439,-0.046353\C,0,-0.
 296145,-0.645461,0.065579\H,0,-4.766958,-0.237351,0.290283\H,0,-3.6139
 03,1.32253,-0.048663\H,0,-2.657994,-1.567798,0.05885\H,0,-1.270266,1.1
 33023,0.063885\H,0,-0.313362,-1.694602,0.277812\H,0,0.572769,-0.1646,0
 .213935\\Version=ES64L-G09RevD.01\State=1-A\HF=-155.6830476\MP2=-155.9
 08551\RMSD=8.579e-09\PG=C01 [X(C4H6)]\\@

 Normal termination of Gaussian 09 at Wed Aug 26 12:48:13 2020.
