 Gaussian 09, Revision D.01,
 Gaussian 09:  ES64L-G09RevD.01 24-Apr-2013

 --------------------
 #p B2PLYPD3/Def2QZVP
 --------------------

 ---------
 butadiene
 ---------
 Symbolic Z-matrix:
 Charge =  0 Multiplicity = 1

                         Standard orientation:
 ---------------------------------------------------------------------
 Center     Atomic      Atomic             Coordinates (Angstroms)
 Number     Number       Type             X           Y           Z
 ---------------------------------------------------------------------
      1          6           0        1.805820   -0.145645   -0.097055
      2          6           0        0.614155    0.428887    0.105423
      3          6           0       -0.581991   -0.375724    0.042776
      4          6           0       -1.831384    0.084103   -0.052764
      5          1           0        2.607462    0.578414   -0.143282
      6          1           0        2.001834   -1.246184    0.054339
      7          1           0        0.487779    1.554189    0.124593
      8          1           0       -0.519072   -1.499103    0.191242
      9          1           0       -1.956998    1.170884   -0.059390
     10          1           0       -2.660615   -0.507930   -0.157781
 ---------------------------------------------------------------------

 SCF Done:  E(RB2PLYPD3) =  -155.683873860     A.U. after   12 cycles
 E2(B2PLYPD3) =    -0.2270013462D+00 E(B2PLYPD3) =    -0.15591087520570D+03

 The electronic state is 1-A.
 Alpha  occ. eigenvalues --  -10.63239 -10.62652 -10.62135 -10.60664  -0.93105
 Alpha  occ. eigenvalues --   -0.85010  -0.70007  -0.62870  -0.54616  -0.53866
 Alpha  occ. eigenvalues --   -0.46801  -0.44330  -0.41465  -0.37700  -0.27549
 Alpha virt. eigenvalues --    0.01653   0.06875   0.07109   0.07985   0.09294
 Alpha virt. eigenvalues --    0.11602   0.12301   0.14648   0.15653   0.16394
 Alpha virt. eigenvalues --    0.18586   0.19619   0.21295   0.22891   0.24203

 Mulliken charges:
               1
     1  C   -0.161674
     2  C   -0.044799
     3  C   -0.008708
     4  C   -0.186569
     5  H    0.075739
     6  H    0.081220
     7  H    0.053849
     8  H    0.044524
     9  H    0.052700
    10  H    0.093718
 Sum of Mulliken charges =   0.00000

 Dipole moment (field-independent basis, Debye):
    X=              0.0529    Y=              0.0124    Z=              0.1161  Tot=              0.1282
 Quadrupole moment (field-independent basis, Debye-Ang):
   XX=            -24.0601   YY=            -22.9209   ZZ=            -29.2803
   XY=              0.0690   XZ=              0.2414   YZ=             -0.2215

 1\1\GINC-NODE19\SP\RB2PLYPD3-FC\def2QZVP\C4H6\BOITTIER\26-Aug-2020\0\\
 #p B2PLYPD3/Def2QZVP\\butadiene\\0,1\C,0,-3.801289,0.251105,-0.072224\
 C,0,-2.731944,-0.525398,0.139186\C,0,-1.410582,0.049085,0.061339\C,0,-
 0.264986,-0.63011,-0.027287\H,0,-4.720535,-0.317172,-0.105011\H,0,-3.7
 9502,1.371371,0.060042\H,0,-2.810479,-1.654544,0.177957\H,0,-1.269294,
 1.167757,0.190153\H,0,-0.337429,-1.721676,-0.014983\H,0,0.656974,-0.19
 9232,-0.143433\\Version=ES64L-G09RevD.01\State=1-A\HF=-155.6838739\MP2
 =-155.9108752\RMSD=3.343e-09\PG=C01 [X(C4H6)]\\@

 Normal termination of Gaussian 09 at Wed Aug 26 12:01:46 2020.
