 Gaussian 09, Revision D.01,
 Gaussian 09:  ES64L-G09RevD.01 24-Apr-2013

 --------------------
 #p B2PLYPD3/Def2QZVP
 --------------------

 ---------
 butadiene
 ---------
 Symbolic Z-matrix:
 Charge =  0 Multiplicity = 1

                         Standard orientation:
 ---------------------------------------------------------------------
 Center     Atomic      Atomic             Coordinates (Angstroms)
 Number     Number       Type             X           Y           Z
 ---------------------------------------------------------------------
      1          6           0        1.849014    0.113033    0.008118
      2          6           0        0.619393   -0.406192   -0.014562
      3          6           0       -0.613636    0.391809   -0.019338
      4          6           0       -1.849144   -0.111984    0.018541
      5          1           0        2.732291   -0.496623    0.041449
      6          1           0        1.949452    1.225122   -0.007085
      7          1           0        0.504465   -1.497343   -0.008206
      8          1           0       -0.497130    1.476000    0.023193
      9          1           0       -2.029302   -1.168057   -0.001674
     10          1           0       -2.693542    0.540905   -0.004234
 ---------------------------------------------------------------------

 SCF Done:  E(RB2PLYPD3) =  -155.699840165     A.U. after   11 cycles
 E2(B2PLYPD3) =    -0.2257881501D+00 E(B2PLYPD3) =    -0.15592562831465D+03

 The electronic state is 1-A.
 Alpha  occ. eigenvalues --  -10.62782 -10.62703 -10.61833 -10.61249  -0.92703
 Alpha  occ. eigenvalues --   -0.85048  -0.69963  -0.63737  -0.54643  -0.53884
 Alpha  occ. eigenvalues --   -0.46762  -0.45433  -0.41021  -0.37958  -0.27841
 Alpha virt. eigenvalues --    0.01800   0.07014   0.07374   0.08038   0.09568
 Alpha virt. eigenvalues --    0.11660   0.12402   0.14566   0.15817   0.16166
 Alpha virt. eigenvalues --    0.18802   0.20308   0.21527   0.22845   0.23962

 Mulliken charges:
               1
     1  C   -0.173185
     2  C   -0.032506
     3  C   -0.028850
     4  C   -0.176566
     5  H    0.092143
     6  H    0.060880
     7  H    0.051262
     8  H    0.052152
     9  H    0.068022
    10  H    0.086648
 Sum of Mulliken charges =   0.00000

 Dipole moment (field-independent basis, Debye):
    X=             -0.0065    Y=             -0.0285    Z=              0.0144  Tot=              0.0326
 Quadrupole moment (field-independent basis, Debye-Ang):
   XX=            -23.4541   YY=            -23.0997   ZZ=            -29.3244
   XY=             -0.0441   XZ=              0.1181   YZ=              0.0045

 1\1\GINC-NODE13\SP\RB2PLYPD3-FC\def2QZVP\C4H6\BOITTIER\26-Aug-2020\0\\
 #p B2PLYPD3/Def2QZVP\\butadiene\\0,1\C,0,-3.851507,0.222395,0.007403\C
 ,0,-2.732319,-0.504058,0.049375\C,0,-1.378147,0.064384,0.032663\C,0,-0
 .250624,-0.649795,0.013642\H,0,-4.828336,-0.223133,-0.009344\H,0,-3.75
 4735,1.334741,-0.012108\H,0,-2.811119,-1.598079,0.077118\H,0,-1.302265
 ,1.150321,-0.043732\H,0,-0.258965,-1.719952,0.067028\H,0,0.695506,-0.1
 55218,0.018397\\Version=ES64L-G09RevD.01\State=1-A\HF=-155.6998402\MP2
 =-155.9256283\RMSD=4.401e-09\PG=C01 [X(C4H6)]\\@

 Normal termination of Gaussian 09 at Wed Aug 26 20:47:53 2020.
