 Gaussian 09, Revision D.01,
 Gaussian 09:  ES64L-G09RevD.01 24-Apr-2013

 --------------------
 #p B2PLYPD3/Def2QZVP
 --------------------

 ---------
 butadiene
 ---------
 Symbolic Z-matrix:
 Charge =  0 Multiplicity = 1

                         Standard orientation:
 ---------------------------------------------------------------------
 Center     Atomic      Atomic             Coordinates (Angstroms)
 Number     Number       Type             X           Y           Z
 ---------------------------------------------------------------------
      1          6           0        1.827398    0.112990   -0.020270
      2          6           0        0.596196   -0.402035    0.003119
      3          6           0       -0.603227    0.405709    0.016208
      4          6           0       -1.829487   -0.114146   -0.011760
      5          1           0        2.661644   -0.542108    0.051842
      6          1           0        2.034284    1.176092   -0.025230
      7          1           0        0.481660   -1.464672    0.058114
      8          1           0       -0.487999    1.493357    0.021414
      9          1           0       -1.932624   -1.211198   -0.057683
     10          1           0       -2.702248    0.533423    0.027759
 ---------------------------------------------------------------------

 SCF Done:  E(RB2PLYPD3) =  -155.699900934     A.U. after   11 cycles
 E2(B2PLYPD3) =    -0.2256661171D+00 E(B2PLYPD3) =    -0.15592556705093D+03

 The electronic state is 1-A.
 Alpha  occ. eigenvalues --  -10.62349 -10.62240 -10.61638 -10.61204  -0.93178
 Alpha  occ. eigenvalues --   -0.84966  -0.69975  -0.64076  -0.54528  -0.54073
 Alpha  occ. eigenvalues --   -0.46450  -0.45539  -0.41426  -0.38201  -0.27622
 Alpha virt. eigenvalues --    0.01835   0.07041   0.07365   0.08043   0.09604
 Alpha virt. eigenvalues --    0.11761   0.12352   0.14753   0.15823   0.16109
 Alpha virt. eigenvalues --    0.18675   0.20487   0.21402   0.22809   0.24199

 Mulliken charges:
               1
     1  C   -0.177005
     2  C   -0.031819
     3  C   -0.026730
     4  C   -0.177712
     5  H    0.082361
     6  H    0.068143
     7  H    0.056821
     8  H    0.053051
     9  H    0.064137
    10  H    0.088754
 Sum of Mulliken charges =   0.00000

 Dipole moment (field-independent basis, Debye):
    X=              0.0232    Y=              0.0170    Z=              0.0831  Tot=              0.0879
 Quadrupole moment (field-independent basis, Debye-Ang):
   XX=            -23.7812   YY=            -22.9329   ZZ=            -29.2497
   XY=              0.0207   XZ=              0.1641   YZ=             -0.0291

 1\1\GINC-NODE09\SP\RB2PLYPD3-FC\def2QZVP\C4H6\BOITTIER\26-Aug-2020\0\\
 #p B2PLYPD3/Def2QZVP\\butadiene\\0,1\C,0,-3.830273,0.225841,0.034682\C
 ,0,-2.712114,-0.503093,0.029042\C,0,-1.386771,0.074588,-0.002422\C,0,-
 0.274244,-0.6568,0.043393\H,0,-4.769071,-0.269896,-0.022079\H,0,-3.842
 142,1.308553,0.010063\H,0,-2.791095,-1.570071,0.003353\H,0,-1.30408,1.
 164638,-0.037595\H,0,-0.370444,-1.752804,0.119487\H,0,0.700865,-0.1784
 59,-0.011114\\Version=ES64L-G09RevD.01\State=1-A\HF=-155.6999009\MP2=-
 155.9255671\RMSD=4.519e-09\PG=C01 [X(C4H6)]\\@

 Normal termination of Gaussian 09 at Wed Aug 26 19:56:30 2020.
