 Gaussian 09, Revision D.01,
 Gaussian 09:  ES64L-G09RevD.01 24-Apr-2013

 --------------------
 #p B2PLYPD3/Def2QZVP
 --------------------

 ---------
 butadiene
 ---------
 Symbolic Z-matrix:
 Charge =  0 Multiplicity = 1

                         Standard orientation:
 ---------------------------------------------------------------------
 Center     Atomic      Atomic             Coordinates (Angstroms)
 Number     Number       Type             X           Y           Z
 ---------------------------------------------------------------------
      1          6           0        1.821051   -0.109406   -0.015671
      2          6           0        0.588194    0.397408    0.008381
      3          6           0       -0.600174   -0.376395    0.038137
      4          6           0       -1.820505    0.105668   -0.045187
      5          1           0        2.752344    0.467080   -0.061764
      6          1           0        1.964959   -1.176728   -0.021710
      7          1           0        0.490196    1.495250    0.087882
      8          1           0       -0.456446   -1.454726    0.067062
      9          1           0       -2.013037    1.113502    0.037281
     10          1           0       -2.669407   -0.548021   -0.022714
 ---------------------------------------------------------------------

 SCF Done:  E(RB2PLYPD3) =  -155.696464324     A.U. after   11 cycles
 E2(B2PLYPD3) =    -0.2252108712D+00 E(B2PLYPD3) =    -0.15592167519501D+03

 The electronic state is 1-A.
 Alpha  occ. eigenvalues --  -10.62383 -10.61941 -10.61578 -10.60465  -0.93784
 Alpha  occ. eigenvalues --   -0.85295  -0.70743  -0.64173  -0.54983  -0.54477
 Alpha  occ. eigenvalues --   -0.46898  -0.45430  -0.41196  -0.38523  -0.27713
 Alpha virt. eigenvalues --    0.01683   0.07030   0.07466   0.08009   0.09930
 Alpha virt. eigenvalues --    0.11698   0.12646   0.14887   0.15749   0.16427
 Alpha virt. eigenvalues --    0.18719   0.20149   0.22272   0.22701   0.23788

 Mulliken charges:
               1
     1  C   -0.174156
     2  C   -0.022866
     3  C   -0.023441
     4  C   -0.170875
     5  H    0.084749
     6  H    0.058593
     7  H    0.049653
     8  H    0.050198
     9  H    0.068530
    10  H    0.079615
 Sum of Mulliken charges =   0.00000

 Dipole moment (field-independent basis, Debye):
    X=              0.0109    Y=             -0.0031    Z=              0.1148  Tot=              0.1154
 Quadrupole moment (field-independent basis, Debye-Ang):
   XX=            -23.2597   YY=            -23.2968   ZZ=            -29.0514
   XY=             -0.1624   XZ=             -0.2267   YZ=              0.0934

 1\1\GINC-NODE01\SP\RB2PLYPD3-FC\def2QZVP\C4H6\BOITTIER\26-Aug-2020\0\\
 #p B2PLYPD3/Def2QZVP\\butadiene\\0,1\C,0,-3.823984,0.224628,-0.000305\
 C,0,-2.70368,-0.496444,0.048164\C,0,-1.394394,0.049107,0.052527\C,0,-0
 .282255,-0.649537,-0.007306\H,0,-4.844674,-0.174388,-0.027641\H,0,-3.7
 71563,1.299278,-0.048266\H,0,-2.806556,-1.589889,0.170535\H,0,-1.33968
 2,1.135899,0.039078\H,0,-0.275806,-1.671604,0.114909\H,0,0.671368,-0.1
 60609,-0.006885\\Version=ES64L-G09RevD.01\State=1-A\HF=-155.6964643\MP
 2=-155.9216752\RMSD=4.052e-09\PG=C01 [X(C4H6)]\\@

 Normal termination of Gaussian 09 at Wed Aug 26 09:26:41 2020.
