 Gaussian 09, Revision D.01,
 Gaussian 09:  ES64L-G09RevD.01 24-Apr-2013

 --------------------
 #p B2PLYPD3/Def2QZVP
 --------------------

 ---------
 butadiene
 ---------
 Symbolic Z-matrix:
 Charge =  0 Multiplicity = 1

                         Standard orientation:
 ---------------------------------------------------------------------
 Center     Atomic      Atomic             Coordinates (Angstroms)
 Number     Number       Type             X           Y           Z
 ---------------------------------------------------------------------
      1          6           0       -1.830206    0.106723    0.001279
      2          6           0       -0.598705   -0.414996   -0.002424
      3          6           0        0.598767    0.393614   -0.014493
      4          6           0        1.835404   -0.099471    0.001451
      5          1           0       -2.751472   -0.482146   -0.012470
      6          1           0       -2.008862    1.192954    0.068004
      7          1           0       -0.443019   -1.470212   -0.043216
      8          1           0        0.450589    1.470958    0.002519
      9          1           0        2.011416   -1.169381    0.095958
     10          1           0        2.709787    0.542609   -0.025675
 ---------------------------------------------------------------------

 SCF Done:  E(RB2PLYPD3) =  -155.699975126     A.U. after   11 cycles
 E2(B2PLYPD3) =    -0.2258212607D+00 E(B2PLYPD3) =    -0.15592579638658D+03

 The electronic state is 1-A.
 Alpha  occ. eigenvalues --  -10.62442 -10.62355 -10.61958 -10.61517  -0.93178
 Alpha  occ. eigenvalues --   -0.84750  -0.70137  -0.64248  -0.54784  -0.53609
 Alpha  occ. eigenvalues --   -0.46982  -0.45173  -0.41095  -0.38241  -0.27632
 Alpha virt. eigenvalues --    0.01682   0.07000   0.07370   0.08097   0.09570
 Alpha virt. eigenvalues --    0.11657   0.12470   0.14675   0.15798   0.16253
 Alpha virt. eigenvalues --    0.18783   0.20424   0.21776   0.22840   0.23578

 Mulliken charges:
               1
     1  C   -0.169259
     2  C   -0.035644
     3  C   -0.023422
     4  C   -0.177973
     5  H    0.082088
     6  H    0.060958
     7  H    0.059894
     8  H    0.054122
     9  H    0.063479
    10  H    0.085756
 Sum of Mulliken charges =   0.00000

 Dipole moment (field-independent basis, Debye):
    X=             -0.0247    Y=             -0.0004    Z=              0.0699  Tot=              0.0741
 Quadrupole moment (field-independent basis, Debye-Ang):
   XX=            -23.3692   YY=            -23.2071   ZZ=            -29.2611
   XY=             -0.2383   XZ=              0.0529   YZ=              0.0189

 1\1\GINC-NODE14\SP\RB2PLYPD3-FC\def2QZVP\C4H6\BOITTIER\26-Aug-2020\0\\
 #p B2PLYPD3/Def2QZVP\\butadiene\\0,1\C,0,-3.831817,0.227567,0.020437\C
 ,0,-2.717113,-0.511394,0.033459\C,0,-1.391526,0.062881,0.002425\C,0,-0
 .266461,-0.648362,0.034332\H,0,-4.845606,-0.182211,0.020397\H,0,-3.807
 732,1.329521,0.057657\H,0,-2.758009,-1.57796,0.021281\H,0,-1.33925,1.1
 49176,-0.009744\H,0,-0.289708,-1.729484,0.157843\H,0,0.710906,-0.17877
 8,-0.008018\\Version=ES64L-G09RevD.01\State=1-A\HF=-155.6999751\MP2=-1
 55.9257964\RMSD=3.505e-09\PG=C01 [X(C4H6)]\\@

 Normal termination of Gaussian 09 at Wed Aug 26 19:15:38 2020.
