 Gaussian 09, Revision D.01,
 Gaussian 09:  ES64L-G09RevD.01 24-Apr-2013

 --------------------
 #p B2PLYPD3/Def2QZVP
 --------------------

 ---------
 butadiene
 ---------
 Symbolic Z-matrix:
 Charge =  0 Multiplicity = 1

                         Standard orientation:
 ---------------------------------------------------------------------
 Center     Atomic      Atomic             Coordinates (Angstroms)
 Number     Number       Type             X           Y           Z
 ---------------------------------------------------------------------
      1          6           0        1.823054   -0.147993    0.060000
      2          6           0        0.578602    0.444506   -0.073160
      3          6           0       -0.558312   -0.360703   -0.062025
      4          6           0       -1.820278    0.058825    0.041467
      5          1           0        2.738257    0.499324    0.237405
      6          1           0        1.936099   -1.171064   -0.116893
      7          1           0        0.424749    1.516599   -0.132795
      8          1           0       -0.388098   -1.332001   -0.000177
      9          1           0       -2.118597    1.089352    0.101049
     10          1           0       -2.730804   -0.570017    0.113717
 ---------------------------------------------------------------------

 SCF Done:  E(RB2PLYPD3) =  -155.678407813     A.U. after   12 cycles
 E2(B2PLYPD3) =    -0.2270852539D+00 E(B2PLYPD3) =    -0.15590549306708D+03

 The electronic state is 1-A.
 Alpha  occ. eigenvalues --  -10.62880 -10.62543 -10.61560 -10.60948  -0.94068
 Alpha  occ. eigenvalues --   -0.84059  -0.70916  -0.65754  -0.54783  -0.54038
 Alpha  occ. eigenvalues --   -0.46350  -0.45853  -0.41851  -0.38379  -0.26638
 Alpha virt. eigenvalues --    0.00694   0.06932   0.07608   0.08107   0.09464
 Alpha virt. eigenvalues --    0.11662   0.12586   0.14764   0.15826   0.16359
 Alpha virt. eigenvalues --    0.18577   0.20010   0.21972   0.22712   0.24214

 Mulliken charges:
               1
     1  C   -0.193063
     2  C   -0.032876
     3  C   -0.022628
     4  C   -0.176140
     5  H    0.080008
     6  H    0.082932
     7  H    0.064657
     8  H    0.069122
     9  H    0.055278
    10  H    0.072712
 Sum of Mulliken charges =   0.00000

 Dipole moment (field-independent basis, Debye):
    X=              0.0043    Y=              0.0055    Z=              0.0672  Tot=              0.0676
 Quadrupole moment (field-independent basis, Debye-Ang):
   XX=            -23.5554   YY=            -23.2714   ZZ=            -29.1511
   XY=             -0.4029   XZ=             -0.1349   YZ=              0.1876

 1\1\GINC-NODE40\SP\RB2PLYPD3-FC\def2QZVP\C4H6\BOITTIER\26-Aug-2020\0\\
 #p B2PLYPD3/Def2QZVP\\butadiene\\0,1\C,0,-3.810599,0.277743,0.078363\C
 ,0,-2.702165,-0.544403,-0.035209\C,0,-1.432556,0.029287,-0.040895\C,0,
 -0.273586,-0.620322,0.077712\H,0,-4.83217,-0.178387,0.269224\H,0,-3.72
 6758,1.298662,-0.125203\H,0,-2.755657,-1.627343,-0.066687\H,0,-1.41434
 2,1.016492,-0.004665\H,0,-0.177153,-1.686924,0.164837\H,0,0.740253,-0.
 174956,0.136881\\Version=ES64L-G09RevD.01\State=1-A\HF=-155.6784078\MP
 2=-155.9054931\RMSD=3.972e-09\PG=C01 [X(C4H6)]\\@

 Normal termination of Gaussian 09 at Wed Aug 26 15:02:14 2020.
