 Gaussian 09, Revision D.01,
 Gaussian 09:  ES64L-G09RevD.01 24-Apr-2013

 --------------------
 #p B2PLYPD3/Def2QZVP
 --------------------

 ---------
 butadiene
 ---------
 Symbolic Z-matrix:
 Charge =  0 Multiplicity = 1

                         Standard orientation:
 ---------------------------------------------------------------------
 Center     Atomic      Atomic             Coordinates (Angstroms)
 Number     Number       Type             X           Y           Z
 ---------------------------------------------------------------------
      1          6           0       -1.854561   -0.129638   -0.030878
      2          6           0       -0.607494    0.439152   -0.008378
      3          6           0        0.614334   -0.392362    0.016106
      4          6           0        1.855507    0.093150   -0.013460
      5          1           0       -2.706422    0.482900    0.071570
      6          1           0       -2.012394   -1.219294   -0.025172
      7          1           0       -0.479561    1.536446    0.149348
      8          1           0        0.446848   -1.468463    0.087945
      9          1           0        1.996734    1.165569   -0.091542
     10          1           0        2.708077   -0.558970    0.027515
 ---------------------------------------------------------------------

 SCF Done:  E(RB2PLYPD3) =  -155.695612718     A.U. after   11 cycles
 E2(B2PLYPD3) =    -0.2267359545D+00 E(B2PLYPD3) =    -0.15592234867241D+03

 The electronic state is 1-A.
 Alpha  occ. eigenvalues --  -10.63680 -10.62687 -10.62051 -10.61386  -0.92291
 Alpha  occ. eigenvalues --   -0.84530  -0.70022  -0.63657  -0.54419  -0.53601
 Alpha  occ. eigenvalues --   -0.46491  -0.45801  -0.41240  -0.37443  -0.27545
 Alpha virt. eigenvalues --    0.01490   0.07088   0.07246   0.08029   0.09160
 Alpha virt. eigenvalues --    0.11640   0.12374   0.14598   0.15684   0.16120
 Alpha virt. eigenvalues --    0.18844   0.20201   0.21449   0.23132   0.23729

 Mulliken charges:
               1
     1  C   -0.178458
     2  C   -0.044365
     3  C   -0.024744
     4  C   -0.178571
     5  H    0.087478
     6  H    0.068796
     7  H    0.058806
     8  H    0.054191
     9  H    0.066269
    10  H    0.090599
 Sum of Mulliken charges =   0.00000

 Dipole moment (field-independent basis, Debye):
    X=             -0.0243    Y=             -0.0217    Z=              0.2059  Tot=              0.2084
 Quadrupole moment (field-independent basis, Debye-Ang):
   XX=            -23.6152   YY=            -23.0085   ZZ=            -29.4364
   XY=              0.1807   XZ=             -0.3332   YZ=              0.0480

 1\1\GINC-NODE26\SP\RB2PLYPD3-FC\def2QZVP\C4H6\BOITTIER\26-Aug-2020\0\\
 #p B2PLYPD3/Def2QZVP\\butadiene\\0,1\C,0,-3.853648,0.247403,0.039578\C
 ,0,-2.729229,-0.536738,0.036107\C,0,-1.377766,0.060669,-0.003029\C,0,-
 0.244163,-0.639247,0.043529\H,0,-4.801799,-0.204282,-0.051833\H,0,-3.8
 12911,1.34721,0.007067\H,0,-2.800763,-1.642661,-0.094711\H,0,-1.348967
 ,1.147272,-0.10137\H,0,-0.29813,-1.717355,0.147909\H,0,0.711796,-0.152
 259,-0.009387\\Version=ES64L-G09RevD.01\State=1-A\HF=-155.6956127\MP2=
 -155.9223487\RMSD=7.417e-09\PG=C01 [X(C4H6)]\\@

 Normal termination of Gaussian 09 at Wed Aug 26 09:17:54 2020.
