 Gaussian 09, Revision D.01,
 Gaussian 09:  ES64L-G09RevD.01 24-Apr-2013

 --------------------
 #p B2PLYPD3/Def2QZVP
 --------------------

 ---------
 butadiene
 ---------
 Symbolic Z-matrix:
 Charge =  0 Multiplicity = 1

                         Standard orientation:
 ---------------------------------------------------------------------
 Center     Atomic      Atomic             Coordinates (Angstroms)
 Number     Number       Type             X           Y           Z
 ---------------------------------------------------------------------
      1          6           0       -1.834924    0.102701    0.018137
      2          6           0       -0.597955   -0.394070   -0.038453
      3          6           0        0.595604    0.414013   -0.018497
      4          6           0        1.829963   -0.118730    0.029920
      5          1           0       -2.692089   -0.564859    0.091256
      6          1           0       -2.014534    1.156468    0.013670
      7          1           0       -0.416857   -1.451797   -0.017146
      8          1           0        0.466114    1.502565   -0.061071
      9          1           0        1.998389   -1.198432   -0.030957
     10          1           0        2.702842    0.532567    0.057603
 ---------------------------------------------------------------------

 SCF Done:  E(RB2PLYPD3) =  -155.699778024     A.U. after   11 cycles
 E2(B2PLYPD3) =    -0.2260338145D+00 E(B2PLYPD3) =    -0.15592581183828D+03

 The electronic state is 1-A.
 Alpha  occ. eigenvalues --  -10.62646 -10.62218 -10.61853 -10.61413  -0.93146
 Alpha  occ. eigenvalues --   -0.84684  -0.70177  -0.64149  -0.54349  -0.53954
 Alpha  occ. eigenvalues --   -0.46422  -0.45854  -0.41303  -0.38159  -0.27473
 Alpha virt. eigenvalues --    0.01615   0.07007   0.07353   0.08069   0.09534
 Alpha virt. eigenvalues --    0.11750   0.12356   0.14817   0.15754   0.16099
 Alpha virt. eigenvalues --    0.18700   0.20436   0.21532   0.23067   0.23836

 Mulliken charges:
               1
     1  C   -0.179050
     2  C   -0.026228
     3  C   -0.029646
     4  C   -0.180060
     5  H    0.084570
     6  H    0.069459
     7  H    0.056037
     8  H    0.053339
     9  H    0.067369
    10  H    0.084209
 Sum of Mulliken charges =   0.00000

 Dipole moment (field-independent basis, Debye):
    X=              0.0073    Y=              0.0075    Z=              0.0045  Tot=              0.0114
 Quadrupole moment (field-independent basis, Debye-Ang):
   XX=            -23.7110   YY=            -23.0062   ZZ=            -29.2958
   XY=             -0.2378   XZ=             -0.2384   YZ=             -0.0335

 1\1\GINC-NODE40\SP\RB2PLYPD3-FC\def2QZVP\C4H6\BOITTIER\26-Aug-2020\0\\
 #p B2PLYPD3/Def2QZVP\\butadiene\\0,1\C,0,-3.836218,0.22301,0.040371\C,
 0,-2.711772,-0.493995,0.000356\C,0,-1.390103,0.081437,-0.006556\C,0,-0
 .274184,-0.666996,0.059574\H,0,-4.80086,-0.273081,0.135639\H,0,-3.8194
 46,1.291121,0.000856\H,0,-2.727707,-1.56572,0.056834\H,0,-1.317912,1.1
 73276,-0.085313\H,0,-0.307107,-1.760671,0.034644\H,0,0.703534,-0.18647
 3,0.065594\\Version=ES64L-G09RevD.01\State=1-A\HF=-155.699778\MP2=-155
 .9258118\RMSD=3.879e-09\PG=C01 [X(C4H6)]\\@

 Normal termination of Gaussian 09 at Wed Aug 26 20:29:26 2020.
