 Gaussian 09, Revision D.01,
 Gaussian 09:  ES64L-G09RevD.01 24-Apr-2013

 --------------------
 #p B2PLYPD3/Def2QZVP
 --------------------

 ---------
 butadiene
 ---------
 Symbolic Z-matrix:
 Charge =  0 Multiplicity = 1

                         Standard orientation:
 ---------------------------------------------------------------------
 Center     Atomic      Atomic             Coordinates (Angstroms)
 Number     Number       Type             X           Y           Z
 ---------------------------------------------------------------------
      1          6           0        1.820972    0.088801   -0.003917
      2          6           0        0.573292   -0.380562   -0.059600
      3          6           0       -0.569728    0.425537   -0.031300
      4          6           0       -1.824828   -0.114449    0.049600
      5          1           0        2.595766   -0.659332    0.073548
      6          1           0        2.210101    1.134128    0.308549
      7          1           0        0.339800   -1.443333   -0.171435
      8          1           0       -0.443038    1.565080   -0.099942
      9          1           0       -1.889544   -1.165092    0.299914
     10          1           0       -2.811332    0.452584   -0.139335
 ---------------------------------------------------------------------

 SCF Done:  E(RB2PLYPD3) =  -155.676385698     A.U. after   11 cycles
 E2(B2PLYPD3) =    -0.2285288864D+00 E(B2PLYPD3) =    -0.15590491458434D+03

 The electronic state is 1-A.
 Alpha  occ. eigenvalues --  -10.63156 -10.62795 -10.62552 -10.62249  -0.93669
 Alpha  occ. eigenvalues --   -0.84047  -0.70208  -0.63190  -0.54279  -0.53024
 Alpha  occ. eigenvalues --   -0.46326  -0.44392  -0.40998  -0.38392  -0.26945
 Alpha virt. eigenvalues --    0.00597   0.07005   0.07078   0.07693   0.09349
 Alpha virt. eigenvalues --    0.11371   0.12293   0.15086   0.15625   0.16040
 Alpha virt. eigenvalues --    0.18657   0.19632   0.21618   0.22268   0.23386

 Mulliken charges:
               1
     1  C   -0.165493
     2  C   -0.033684
     3  C   -0.020742
     4  C   -0.185776
     5  H    0.071104
     6  H    0.068532
     7  H    0.059726
     8  H    0.055371
     9  H    0.064193
    10  H    0.086768
 Sum of Mulliken charges =   0.00000

 Dipole moment (field-independent basis, Debye):
    X=             -0.0251    Y=             -0.0668    Z=              0.1996  Tot=              0.2119
 Quadrupole moment (field-independent basis, Debye-Ang):
   XX=            -23.8601   YY=            -23.3990   ZZ=            -29.2694
   XY=              0.4089   XZ=              0.8411   YZ=             -0.0731

 1\1\GINC-NODE28\SP\RB2PLYPD3-FC\def2QZVP\C4H6\BOITTIER\26-Aug-2020\0\\
 #p B2PLYPD3/Def2QZVP\\butadiene\\0,1\C,0,-3.822107,0.220858,0.00542\C,
 0,-2.688429,-0.47824,0.083802\C,0,-1.411465,0.091975,0.047615\C,0,-0.2
 83445,-0.681194,-0.008832\H,0,-4.726069,-0.36593,-0.061983\H,0,-4.0011
 73,1.313504,-0.334911\H,0,-2.664477,-1.562997,0.222496\H,0,-1.316703,1
 .235943,0.08857\H,0,-0.421027,-1.7305,-0.234053\H,0,0.792855,-0.310051
 ,0.176217\\Version=ES64L-G09RevD.01\State=1-A\HF=-155.6763857\MP2=-155
 .9049146\RMSD=9.747e-09\PG=C01 [X(C4H6)]\\@

 Normal termination of Gaussian 09 at Wed Aug 26 13:39:42 2020.
