 Gaussian 09, Revision D.01,
 Gaussian 09:  ES64L-G09RevD.01 24-Apr-2013

 --------------------
 #p B2PLYPD3/Def2QZVP
 --------------------

 ---------
 butadiene
 ---------
 Symbolic Z-matrix:
 Charge =  0 Multiplicity = 1

                         Standard orientation:
 ---------------------------------------------------------------------
 Center     Atomic      Atomic             Coordinates (Angstroms)
 Number     Number       Type             X           Y           Z
 ---------------------------------------------------------------------
      1          6           0       -1.799381   -0.132193   -0.059788
      2          6           0       -0.579654    0.434402    0.008521
      3          6           0        0.576800   -0.346416    0.069788
      4          6           0        1.850196    0.070122   -0.035578
      5          1           0       -2.766584    0.457449    0.152658
      6          1           0       -1.979630   -1.163928   -0.087263
      7          1           0       -0.523082    1.502252    0.102476
      8          1           0        0.282981   -1.421089    0.028563
      9          1           0        2.084236    1.084445   -0.148431
     10          1           0        2.614310   -0.614621    0.054338
 ---------------------------------------------------------------------

 SCF Done:  E(RB2PLYPD3) =  -155.684562172     A.U. after   11 cycles
 E2(B2PLYPD3) =    -0.2266305803D+00 E(B2PLYPD3) =    -0.15591119275228D+03

 The electronic state is 1-A.
 Alpha  occ. eigenvalues --  -10.62393 -10.62191 -10.62063 -10.60789  -0.93899
 Alpha  occ. eigenvalues --   -0.84744  -0.71253  -0.64460  -0.55101  -0.54105
 Alpha  occ. eigenvalues --   -0.47273  -0.44976  -0.41402  -0.38441  -0.27135
 Alpha virt. eigenvalues --    0.00804   0.07018   0.07501   0.08000   0.09762
 Alpha virt. eigenvalues --    0.11757   0.12523   0.15076   0.15540   0.16170
 Alpha virt. eigenvalues --    0.18913   0.20065   0.21797   0.22842   0.23540

 Mulliken charges:
               1
     1  C   -0.171947
     2  C   -0.017961
     3  C   -0.027715
     4  C   -0.184754
     5  H    0.067203
     6  H    0.064241
     7  H    0.060863
     8  H    0.045870
     9  H    0.072003
    10  H    0.092196
 Sum of Mulliken charges =   0.00000

 Dipole moment (field-independent basis, Debye):
    X=             -0.0328    Y=             -0.0001    Z=              0.1330  Tot=              0.1370
 Quadrupole moment (field-independent basis, Debye-Ang):
   XX=            -23.5496   YY=            -23.2954   ZZ=            -29.1133
   XY=              0.5561   XZ=             -0.5505   YZ=              0.0925

 1\1\GINC-NODE13\SP\RB2PLYPD3-FC\def2QZVP\C4H6\BOITTIER\26-Aug-2020\0\\
 #p B2PLYPD3/Def2QZVP\\butadiene\\0,1\C,0,-3.798244,0.26107,0.067488\C,
 0,-2.708428,-0.52829,0.016095\C,0,-1.424251,0.017119,-0.048961\C,0,-0.
 253856,-0.632367,0.07141\H,0,-4.859176,-0.137093,-0.142707\H,0,-3.7788
 92,1.308559,0.078199\H,0,-2.855811,-1.588765,-0.061394\H,0,-1.50827,1.
 128587,-0.025928\H,0,-0.217631,-1.670743,0.201115\H,0,0.626981,-0.1070
 69,-0.023543\\Version=ES64L-G09RevD.01\State=1-A\HF=-155.6845622\MP2=-
 155.9111928\RMSD=7.024e-09\PG=C01 [X(C4H6)]\\@

 Normal termination of Gaussian 09 at Wed Aug 26 12:18:49 2020.
