 Gaussian 09, Revision D.01,
 Gaussian 09:  ES64L-G09RevD.01 24-Apr-2013

 --------------------
 #p B2PLYPD3/Def2QZVP
 --------------------

 ---------
 butadiene
 ---------
 Symbolic Z-matrix:
 Charge =  0 Multiplicity = 1

                         Standard orientation:
 ---------------------------------------------------------------------
 Center     Atomic      Atomic             Coordinates (Angstroms)
 Number     Number       Type             X           Y           Z
 ---------------------------------------------------------------------
      1          6           0        1.819075   -0.091908   -0.024425
      2          6           0        0.568552    0.360470    0.015430
      3          6           0       -0.596004   -0.413555    0.068401
      4          6           0       -1.827974    0.107475   -0.071057
      5          1           0        2.714065    0.493201   -0.063795
      6          1           0        1.970877   -1.128838   -0.267289
      7          1           0        0.530002    1.518731    0.322473
      8          1           0       -0.421041   -1.409258    0.251712
      9          1           0       -1.884561    1.218744   -0.188319
     10          1           0       -2.691242   -0.467472    0.015116
 ---------------------------------------------------------------------

 SCF Done:  E(RB2PLYPD3) =  -155.679566322     A.U. after   12 cycles
 E2(B2PLYPD3) =    -0.2267454255D+00 E(B2PLYPD3) =    -0.15590631174739D+03

 The electronic state is 1-A.
 Alpha  occ. eigenvalues --  -10.62943 -10.61881 -10.61763 -10.61136  -0.93953
 Alpha  occ. eigenvalues --   -0.84943  -0.71207  -0.63543  -0.55825  -0.53447
 Alpha  occ. eigenvalues --   -0.47354  -0.45118  -0.41039  -0.37621  -0.27595
 Alpha virt. eigenvalues --    0.01163   0.07034   0.07353   0.07799   0.09564
 Alpha virt. eigenvalues --    0.11595   0.12505   0.14697   0.15335   0.16406
 Alpha virt. eigenvalues --    0.18662   0.19286   0.21778   0.22469   0.23832

 Mulliken charges:
               1
     1  C   -0.177549
     2  C   -0.012802
     3  C   -0.047621
     4  C   -0.166527
     5  H    0.085776
     6  H    0.051935
     7  H    0.043137
     8  H    0.063218
     9  H    0.067107
    10  H    0.093327
 Sum of Mulliken charges =   0.00000

 Dipole moment (field-independent basis, Debye):
    X=             -0.0217    Y=             -0.1202    Z=              0.1046  Tot=              0.1608
 Quadrupole moment (field-independent basis, Debye-Ang):
   XX=            -23.2939   YY=            -23.6560   ZZ=            -28.9632
   XY=              0.1454   XZ=             -0.3449   YZ=              0.0804

 1\1\GINC-NODE08\SP\RB2PLYPD3-FC\def2QZVP\C4H6\BOITTIER\26-Aug-2020\0\\
 #p B2PLYPD3/Def2QZVP\\butadiene\\0,1\C,0,-3.829189,0.203194,-0.009075\
 C,0,-2.682239,-0.467811,0.056492\C,0,-1.395699,0.082027,0.081058\C,0,-
 0.280129,-0.660893,-0.029596\H,0,-4.816141,-0.209737,-0.027044\H,0,-3.
 789795,1.238724,-0.297825\H,0,-2.854931,-1.599006,0.414132\H,0,-1.3851
 89,1.10001,0.219765\H,0,-0.427915,-1.76786,-0.097821\H,0,0.673935,-0.2
 50093,0.035424\\Version=ES64L-G09RevD.01\State=1-A\HF=-155.6795663\MP2
 =-155.9063117\RMSD=4.359e-09\PG=C01 [X(C4H6)]\\@

 Normal termination of Gaussian 09 at Wed Aug 26 12:09:46 2020.
