 Gaussian 09, Revision D.01,
 Gaussian 09:  ES64L-G09RevD.01 24-Apr-2013

 --------------------
 #p B2PLYPD3/Def2QZVP
 --------------------

 ---------
 butadiene
 ---------
 Symbolic Z-matrix:
 Charge =  0 Multiplicity = 1

                         Standard orientation:
 ---------------------------------------------------------------------
 Center     Atomic      Atomic             Coordinates (Angstroms)
 Number     Number       Type             X           Y           Z
 ---------------------------------------------------------------------
      1          6           0       -1.848283   -0.135620   -0.044008
      2          6           0       -0.631614    0.405632    0.045442
      3          6           0        0.619301   -0.370243    0.008907
      4          6           0        1.855633    0.091596   -0.020204
      5          1           0       -2.721215    0.530203   -0.003797
      6          1           0       -1.957915   -1.195313   -0.108771
      7          1           0       -0.505520    1.472957    0.153418
      8          1           0        0.474705   -1.418385    0.196503
      9          1           0        1.984591    1.187867   -0.165995
     10          1           0        2.755136   -0.525514   -0.012180
 ---------------------------------------------------------------------

 SCF Done:  E(RB2PLYPD3) =  -155.696754279     A.U. after   11 cycles
 E2(B2PLYPD3) =    -0.2256170553D+00 E(B2PLYPD3) =    -0.15592237133413D+03

 The electronic state is 1-A.
 Alpha  occ. eigenvalues --  -10.62644 -10.62220 -10.61748 -10.61702  -0.92868
 Alpha  occ. eigenvalues --   -0.85214  -0.69852  -0.63955  -0.54409  -0.53921
 Alpha  occ. eigenvalues --   -0.47287  -0.45445  -0.40614  -0.37658  -0.28162
 Alpha virt. eigenvalues --    0.01876   0.07035   0.07512   0.07950   0.09578
 Alpha virt. eigenvalues --    0.11655   0.12336   0.14590   0.15516   0.16089
 Alpha virt. eigenvalues --    0.18782   0.19917   0.21422   0.22638   0.23887

 Mulliken charges:
               1
     1  C   -0.175076
     2  C   -0.042121
     3  C   -0.023582
     4  C   -0.177772
     5  H    0.088586
     6  H    0.073290
     7  H    0.055028
     8  H    0.054188
     9  H    0.056681
    10  H    0.090779
 Sum of Mulliken charges =   0.00000

 Dipole moment (field-independent basis, Debye):
    X=             -0.0269    Y=             -0.0160    Z=              0.0803  Tot=              0.0862
 Quadrupole moment (field-independent basis, Debye-Ang):
   XX=            -23.4199   YY=            -23.3153   ZZ=            -29.1825
   XY=             -0.0867   XZ=             -0.0787   YZ=             -0.1014

 1\1\GINC-NODE12\SP\RB2PLYPD3-FC\def2QZVP\C4H6\BOITTIER\26-Aug-2020\0\\
 #p B2PLYPD3/Def2QZVP\\butadiene\\0,1\C,0,-3.84812,0.239274,0.05609\C,0
 ,-2.74405,-0.50767,-0.009806\C,0,-1.377428,0.040337,0.001994\C,0,-0.23
 9818,-0.627517,0.051725\H,0,-4.823416,-0.266105,0.037712\H,0,-3.772115
 ,1.303574,0.081617\H,0,-2.805313,-1.583919,-0.078188\H,0,-1.338722,1.0
 90086,-0.224348\H,0,-0.302414,-1.723453,0.238008\H,0,0.753035,-0.17645
 5,0.023767\\Version=ES64L-G09RevD.01\State=1-A\HF=-155.6967543\MP2=-15
 5.9223713\RMSD=6.910e-09\PG=C01 [X(C4H6)]\\@

 Normal termination of Gaussian 09 at Wed Aug 26 21:53:03 2020.
