 Gaussian 09, Revision D.01,
 Gaussian 09:  ES64L-G09RevD.01 24-Apr-2013

 --------------------
 #p B2PLYPD3/Def2QZVP
 --------------------

 ---------
 butadiene
 ---------
 Symbolic Z-matrix:
 Charge =  0 Multiplicity = 1

                         Standard orientation:
 ---------------------------------------------------------------------
 Center     Atomic      Atomic             Coordinates (Angstroms)
 Number     Number       Type             X           Y           Z
 ---------------------------------------------------------------------
      1          6           0        1.841266   -0.114529    0.027219
      2          6           0        0.604382    0.404454   -0.033647
      3          6           0       -0.602147   -0.382414   -0.008524
      4          6           0       -1.848277    0.100407    0.013266
      5          1           0        2.743315    0.509841   -0.035069
      6          1           0        2.005389   -1.189910    0.063612
      7          1           0        0.503767    1.491428   -0.022204
      8          1           0       -0.446911   -1.449294   -0.056246
      9          1           0       -2.081588    1.157504    0.088145
     10          1           0       -2.695315   -0.567075   -0.028124
 ---------------------------------------------------------------------

 SCF Done:  E(RB2PLYPD3) =  -155.700030470     A.U. after   11 cycles
 E2(B2PLYPD3) =    -0.2260258643D+00 E(B2PLYPD3) =    -0.15592605633396D+03

 The electronic state is 1-A.
 Alpha  occ. eigenvalues --  -10.62626 -10.62444 -10.61935 -10.61593  -0.93034
 Alpha  occ. eigenvalues --   -0.84757  -0.70359  -0.64020  -0.54536  -0.53894
 Alpha  occ. eigenvalues --   -0.46684  -0.45498  -0.41101  -0.38164  -0.27571
 Alpha virt. eigenvalues --    0.01443   0.06975   0.07448   0.08002   0.09710
 Alpha virt. eigenvalues --    0.11627   0.12376   0.14779   0.15768   0.16220
 Alpha virt. eigenvalues --    0.18876   0.20343   0.21749   0.22519   0.23666

 Mulliken charges:
               1
     1  C   -0.172503
     2  C   -0.030514
     3  C   -0.030188
     4  C   -0.176912
     5  H    0.084043
     6  H    0.062851
     7  H    0.054999
     8  H    0.055554
     9  H    0.068367
    10  H    0.084304
 Sum of Mulliken charges =   0.00000

 Dipole moment (field-independent basis, Debye):
    X=              0.0103    Y=              0.0004    Z=             -0.0148  Tot=              0.0180
 Quadrupole moment (field-independent basis, Debye-Ang):
   XX=            -23.3616   YY=            -23.1768   ZZ=            -29.2972
   XY=             -0.2145   XZ=             -0.0544   YZ=              0.0832

 1\1\GINC-NODE06\SP\RB2PLYPD3-FC\def2QZVP\C4H6\BOITTIER\26-Aug-2020\0\\
 #p B2PLYPD3/Def2QZVP\\butadiene\\0,1\C,0,-3.842367,0.23297,0.043132\C,
 0,-2.72027,-0.503413,0.003538\C,0,-1.391024,0.052114,0.004228\C,0,-0.2
 52962,-0.647529,0.046\H,0,-4.84287,-0.219333,0.000397\H,0,-3.808731,1.
 320891,0.041556\H,0,-2.818279,-1.589552,0.053165\H,0,-1.350512,1.12714
 3,-0.081093\H,0,-0.214814,-1.726151,0.158316\H,0,0.700856,-0.14649,-0.
 016523\\Version=ES64L-G09RevD.01\State=1-A\HF=-155.7000305\MP2=-155.92
 60563\RMSD=3.873e-09\PG=C01 [X(C4H6)]\\@

 Normal termination of Gaussian 09 at Wed Aug 26 21:24:15 2020.
