 Gaussian 09, Revision D.01,
 Gaussian 09:  ES64L-G09RevD.01 24-Apr-2013

 --------------------
 #p B2PLYPD3/Def2QZVP
 --------------------

 ---------
 butadiene
 ---------
 Symbolic Z-matrix:
 Charge =  0 Multiplicity = 1

                         Standard orientation:
 ---------------------------------------------------------------------
 Center     Atomic      Atomic             Coordinates (Angstroms)
 Number     Number       Type             X           Y           Z
 ---------------------------------------------------------------------
      1          6           0        1.844027    0.110449   -0.001480
      2          6           0        0.611049   -0.407014   -0.015462
      3          6           0       -0.614639    0.393797    0.004626
      4          6           0       -1.842525   -0.109081    0.010897
      5          1           0        2.732064   -0.476625   -0.011594
      6          1           0        1.960340    1.197639    0.078105
      7          1           0        0.513287   -1.492128   -0.007147
      8          1           0       -0.465911    1.481035   -0.035566
      9          1           0       -2.025800   -1.182401    0.051755
     10          1           0       -2.701452    0.543571   -0.067037
 ---------------------------------------------------------------------

 SCF Done:  E(RB2PLYPD3) =  -155.700392185     A.U. after   11 cycles
 E2(B2PLYPD3) =    -0.2256656121D+00 E(B2PLYPD3) =    -0.15592605779742D+03

 The electronic state is 1-A.
 Alpha  occ. eigenvalues --  -10.62701 -10.62635 -10.61512 -10.61495  -0.92832
 Alpha  occ. eigenvalues --   -0.85049  -0.69994  -0.63803  -0.54738  -0.53821
 Alpha  occ. eigenvalues --   -0.46929  -0.45299  -0.40993  -0.38030  -0.27836
 Alpha virt. eigenvalues --    0.01829   0.07026   0.07370   0.08051   0.09579
 Alpha virt. eigenvalues --    0.11653   0.12436   0.14610   0.15856   0.16182
 Alpha virt. eigenvalues --    0.18828   0.20514   0.21453   0.22820   0.23784

 Mulliken charges:
               1
     1  C   -0.173945
     2  C   -0.030563
     3  C   -0.029878
     4  C   -0.174428
     5  H    0.089781
     6  H    0.059141
     7  H    0.052591
     8  H    0.052785
     9  H    0.068079
    10  H    0.086436
 Sum of Mulliken charges =   0.00000

 Dipole moment (field-independent basis, Debye):
    X=              0.0060    Y=             -0.0238    Z=              0.0042  Tot=              0.0249
 Quadrupole moment (field-independent basis, Debye-Ang):
   XX=            -23.4011   YY=            -23.1491   ZZ=            -29.2779
   XY=              0.0397   XZ=              0.2455   YZ=             -0.0527

 1\1\GINC-NODE29\SP\RB2PLYPD3-FC\def2QZVP\C4H6\BOITTIER\26-Aug-2020\0\\
 #p B2PLYPD3/Def2QZVP\\butadiene\\0,1\C,0,-3.847241,0.22251,0.016809\C,
 0,-2.725845,-0.505263,0.048669\C,0,-1.377366,0.064199,0.012166\C,0,-0.
 258411,-0.648853,0.023382\H,0,-4.825467,-0.196952,0.038996\H,0,-3.7685
 65,1.310599,-0.091437\H,0,-2.822502,-1.590319,0.068924\H,0,-1.330451,1
 .161236,0.023538\H,0,-0.268857,-1.738355,0.011106\H,0,0.70292,-0.15739
 8,0.087403\\Version=ES64L-G09RevD.01\State=1-A\HF=-155.7003922\MP2=-15
 5.9260578\RMSD=3.554e-09\PG=C01 [X(C4H6)]\\@

 Normal termination of Gaussian 09 at Wed Aug 26 21:51:20 2020.
