 Gaussian 09, Revision D.01,
 Gaussian 09:  ES64L-G09RevD.01 24-Apr-2013

 --------------------
 #p B2PLYPD3/Def2QZVP
 --------------------

 ---------
 butadiene
 ---------
 Symbolic Z-matrix:
 Charge =  0 Multiplicity = 1

                         Standard orientation:
 ---------------------------------------------------------------------
 Center     Atomic      Atomic             Coordinates (Angstroms)
 Number     Number       Type             X           Y           Z
 ---------------------------------------------------------------------
      1          6           0        1.843261    0.089831   -0.030900
      2          6           0        0.601648   -0.383753    0.021851
      3          6           0       -0.610945    0.418848    0.022173
      4          6           0       -1.843661   -0.119490   -0.019122
      5          1           0        2.719497   -0.525318    0.046945
      6          1           0        2.061148    1.148211   -0.058225
      7          1           0        0.472994   -1.442459    0.039959
      8          1           0       -0.454137    1.489840    0.069352
      9          1           0       -1.994557   -1.202403   -0.043692
     10          1           0       -2.746761    0.499517   -0.018352
 ---------------------------------------------------------------------

 SCF Done:  E(RB2PLYPD3) =  -155.700040598     A.U. after   11 cycles
 E2(B2PLYPD3) =    -0.2257661115D+00 E(B2PLYPD3) =    -0.15592580670957D+03

 The electronic state is 1-A.
 Alpha  occ. eigenvalues --  -10.62813 -10.62230 -10.62087 -10.61271  -0.92941
 Alpha  occ. eigenvalues --   -0.84789  -0.70288  -0.64333  -0.54758  -0.53706
 Alpha  occ. eigenvalues --   -0.47046  -0.45419  -0.41044  -0.38052  -0.27675
 Alpha virt. eigenvalues --    0.01600   0.06987   0.07450   0.08106   0.09602
 Alpha virt. eigenvalues --    0.11627   0.12491   0.14685   0.15843   0.16231
 Alpha virt. eigenvalues --    0.18903   0.20382   0.21842   0.22639   0.23634

 Mulliken charges:
               1
     1  C   -0.172580
     2  C   -0.025527
     3  C   -0.039258
     4  C   -0.172453
     5  H    0.083042
     6  H    0.058240
     7  H    0.056544
     8  H    0.059206
     9  H    0.067458
    10  H    0.085328
 Sum of Mulliken charges =   0.00000

 Dipole moment (field-independent basis, Debye):
    X=             -0.0101    Y=             -0.0002    Z=              0.0637  Tot=              0.0645
 Quadrupole moment (field-independent basis, Debye-Ang):
   XX=            -23.2704   YY=            -23.2057   ZZ=            -29.2759
   XY=              0.2543   XZ=              0.1624   YZ=             -0.0138

 1\1\GINC-NODE38\SP\RB2PLYPD3-FC\def2QZVP\C4H6\BOITTIER\26-Aug-2020\0\\
 #p B2PLYPD3/Def2QZVP\\butadiene\\0,1\C,0,-3.849734,0.208672,0.04622\C,
 0,-2.71489,-0.483883,0.012093\C,0,-1.376735,0.084812,-0.009736\C,0,-0.
 262141,-0.666821,0.05214\H,0,-4.823303,-0.239302,-0.014941\H,0,-3.8717
 64,1.289348,0.039685\H,0,-2.780645,-1.54839,0.027582\H,0,-1.336614,1.1
 64457,-0.090949\H,0,-0.310302,-1.757819,0.111111\H,0,0.738331,-0.2224,
 0.034686\\Version=ES64L-G09RevD.01\State=1-A\HF=-155.7000406\MP2=-155.
 9258067\RMSD=5.884e-09\PG=C01 [X(C4H6)]\\@

 Normal termination of Gaussian 09 at Wed Aug 26 21:18:08 2020.
