 Gaussian 09, Revision D.01,
 Gaussian 09:  ES64L-G09RevD.01 24-Apr-2013

 --------------------
 #p B2PLYPD3/Def2QZVP
 --------------------

 ---------
 butadiene
 ---------
 Symbolic Z-matrix:
 Charge =  0 Multiplicity = 1

                         Standard orientation:
 ---------------------------------------------------------------------
 Center     Atomic      Atomic             Coordinates (Angstroms)
 Number     Number       Type             X           Y           Z
 ---------------------------------------------------------------------
      1          6           0       -1.844788    0.112556   -0.009867
      2          6           0       -0.613753   -0.407585   -0.003043
      3          6           0        0.601160    0.379271    0.002902
      4          6           0        1.844294   -0.101906    0.002886
      5          1           0       -2.741768   -0.485563    0.052085
      6          1           0       -1.965126    1.212388   -0.055016
      7          1           0       -0.487462   -1.466085    0.034577
      8          1           0        0.507621    1.451639    0.075210
      9          1           0        2.054088   -1.138762   -0.037115
     10          1           0        2.711172    0.532364   -0.027006
 ---------------------------------------------------------------------

 SCF Done:  E(RB2PLYPD3) =  -155.699925001     A.U. after   11 cycles
 E2(B2PLYPD3) =    -0.2254792971D+00 E(B2PLYPD3) =    -0.15592540429825D+03

 The electronic state is 1-A.
 Alpha  occ. eigenvalues --  -10.62411 -10.62331 -10.61870 -10.61101  -0.93090
 Alpha  occ. eigenvalues --   -0.85028  -0.70399  -0.64352  -0.54921  -0.53990
 Alpha  occ. eigenvalues --   -0.46960  -0.45414  -0.41226  -0.38149  -0.27706
 Alpha virt. eigenvalues --    0.01623   0.07001   0.07539   0.08066   0.09719
 Alpha virt. eigenvalues --    0.11641   0.12527   0.14681   0.15829   0.16300
 Alpha virt. eigenvalues --    0.18862   0.20278   0.21839   0.22693   0.23851

 Mulliken charges:
               1
     1  C   -0.170702
     2  C   -0.038903
     3  C   -0.023959
     4  C   -0.176127
     5  H    0.088910
     6  H    0.062267
     7  H    0.058383
     8  H    0.054169
     9  H    0.063018
    10  H    0.082944
 Sum of Mulliken charges =   0.00000

 Dipole moment (field-independent basis, Debye):
    X=             -0.0006    Y=             -0.0352    Z=              0.0358  Tot=              0.0502
 Quadrupole moment (field-independent basis, Debye-Ang):
   XX=            -23.2293   YY=            -23.2306   ZZ=            -29.2058
   XY=             -0.0516   XZ=             -0.2059   YZ=             -0.0283

 1\1\GINC-NODE38\SP\RB2PLYPD3-FC\def2QZVP\C4H6\BOITTIER\26-Aug-2020\0\\
 #p B2PLYPD3/Def2QZVP\\butadiene\\0,1\C,0,-3.845207,0.226474,0.012079\C
 ,0,-2.726805,-0.504751,0.035059\C,0,-1.390908,0.052258,0.017429\C,0,-0
 .25368,-0.643013,0.032391\H,0,-4.834235,-0.199676,0.091929\H,0,-3.7674
 68,1.328259,-0.066513\H,0,-2.791345,-1.567177,0.104872\H,0,-1.2911,1.1
 25765,0.057082\H,0,-0.232596,-1.701394,0.023984\H,0,0.712351,-0.174973
 ,-0.01652\\Version=ES64L-G09RevD.01\State=1-A\HF=-155.699925\MP2=-155.
 9254043\RMSD=3.035e-09\PG=C01 [X(C4H6)]\\@

 Normal termination of Gaussian 09 at Wed Aug 26 21:38:37 2020.
