 Gaussian 09, Revision D.01,
 Gaussian 09:  ES64L-G09RevD.01 24-Apr-2013

 --------------------
 #p B2PLYPD3/Def2QZVP
 --------------------

 ---------
 butadiene
 ---------
 Symbolic Z-matrix:
 Charge =  0 Multiplicity = 1

                         Standard orientation:
 ---------------------------------------------------------------------
 Center     Atomic      Atomic             Coordinates (Angstroms)
 Number     Number       Type             X           Y           Z
 ---------------------------------------------------------------------
      1          6           0       -1.850016    0.107070    0.002250
      2          6           0       -0.617461   -0.372284   -0.020554
      3          6           0        0.611419    0.409779   -0.015287
      4          6           0        1.843517   -0.139409    0.028244
      5          1           0       -2.654884   -0.573943    0.019751
      6          1           0       -2.063184    1.138358    0.131285
      7          1           0       -0.471346   -1.458571   -0.093115
      8          1           0        0.570848    1.492960   -0.056986
      9          1           0        1.990529   -1.172213    0.111913
     10          1           0        2.703281    0.542475   -0.080764
 ---------------------------------------------------------------------

 SCF Done:  E(RB2PLYPD3) =  -155.697428894     A.U. after   11 cycles
 E2(B2PLYPD3) =    -0.2255225638D+00 E(B2PLYPD3) =    -0.15592295145759D+03

 The electronic state is 1-A.
 Alpha  occ. eigenvalues --  -10.62632 -10.62474 -10.61526 -10.60765  -0.92880
 Alpha  occ. eigenvalues --   -0.85208  -0.70327  -0.64095  -0.54809  -0.54171
 Alpha  occ. eigenvalues --   -0.46414  -0.46122  -0.41206  -0.37959  -0.27703
 Alpha virt. eigenvalues --    0.01645   0.06998   0.07544   0.07971   0.09664
 Alpha virt. eigenvalues --    0.11736   0.12331   0.14975   0.15799   0.16127
 Alpha virt. eigenvalues --    0.18828   0.20177   0.21638   0.22696   0.24062

 Mulliken charges:
               1
     1  C   -0.176258
     2  C   -0.029334
     3  C   -0.032810
     4  C   -0.181008
     5  H    0.085036
     6  H    0.071029
     7  H    0.051159
     8  H    0.055874
     9  H    0.073588
    10  H    0.082724
 Sum of Mulliken charges =   0.00000

 Dipole moment (field-independent basis, Debye):
    X=             -0.0024    Y=             -0.0023    Z=              0.0266  Tot=              0.0268
 Quadrupole moment (field-independent basis, Debye-Ang):
   XX=            -23.6807   YY=            -22.9643   ZZ=            -29.1902
   XY=             -0.0837   XZ=             -0.3551   YZ=             -0.0184

 1\1\GINC-NODE22\SP\RB2PLYPD3-FC\def2QZVP\C4H6\BOITTIER\26-Aug-2020\0\\
 #p B2PLYPD3/Def2QZVP\\butadiene\\0,1\C,0,-3.853481,0.214255,0.026022\C
 ,0,-2.724127,-0.474193,0.016401\C,0,-1.377246,0.080157,-0.003718\C,0,-
 0.260142,-0.67495,0.055101\H,0,-4.765065,-0.314298,0.0653\H,0,-3.88185
 3,1.27033,0.123727\H,0,-2.771034,-1.570949,-0.023094\H,0,-1.227721,1.1
 51941,-0.078461\H,0,-0.295775,-1.714564,0.170127\H,0,0.705042,-0.15789
 7,-0.075734\\Version=ES64L-G09RevD.01\State=1-A\HF=-155.6974289\MP2=-1
 55.9229515\RMSD=6.553e-09\PG=C01 [X(C4H6)]\\@

 Normal termination of Gaussian 09 at Wed Aug 26 09:21:19 2020.
