 Gaussian 09, Revision D.01,
 Gaussian 09:  ES64L-G09RevD.01 24-Apr-2013

 --------------------
 #p B2PLYPD3/Def2QZVP
 --------------------

 ---------
 butadiene
 ---------
 Symbolic Z-matrix:
 Charge =  0 Multiplicity = 1

                         Standard orientation:
 ---------------------------------------------------------------------
 Center     Atomic      Atomic             Coordinates (Angstroms)
 Number     Number       Type             X           Y           Z
 ---------------------------------------------------------------------
      1          6           0       -1.861671    0.072094   -0.008879
      2          6           0       -0.615632   -0.345724   -0.057523
      3          6           0        0.599224    0.406551   -0.038850
      4          6           0        1.857896   -0.125902    0.042822
      5          1           0       -2.778793   -0.550116    0.171257
      6          1           0       -2.043201    1.152704    0.189176
      7          1           0       -0.441343   -1.357693   -0.092299
      8          1           0        0.650275    1.521935   -0.004279
      9          1           0        1.985837   -1.220936    0.169413
     10          1           0        2.748315    0.411993   -0.058687
 ---------------------------------------------------------------------

 SCF Done:  E(RB2PLYPD3) =  -155.683640766     A.U. after   11 cycles
 E2(B2PLYPD3) =    -0.2268180467D+00 E(B2PLYPD3) =    -0.15591045881275D+03

 The electronic state is 1-A.
 Alpha  occ. eigenvalues --  -10.63361 -10.62145 -10.62140 -10.61888  -0.93333
 Alpha  occ. eigenvalues --   -0.84917  -0.70788  -0.64143  -0.55048  -0.53783
 Alpha  occ. eigenvalues --   -0.47678  -0.44144  -0.40711  -0.38313  -0.27595
 Alpha virt. eigenvalues --    0.00829   0.06930   0.07546   0.07928   0.09833
 Alpha virt. eigenvalues --    0.11494   0.12572   0.14353   0.15767   0.16771
 Alpha virt. eigenvalues --    0.19154   0.19383   0.21896   0.22486   0.23062

 Mulliken charges:
               1
     1  C   -0.153130
     2  C   -0.031274
     3  C   -0.029673
     4  C   -0.176273
     5  H    0.079681
     6  H    0.053345
     7  H    0.063800
     8  H    0.048756
     9  H    0.052348
    10  H    0.092419
 Sum of Mulliken charges =   0.00000

 Dipole moment (field-independent basis, Debye):
    X=              0.1145    Y=             -0.0527    Z=              0.2685  Tot=              0.2966
 Quadrupole moment (field-independent basis, Debye-Ang):
   XX=            -22.9891   YY=            -23.6764   ZZ=            -29.1882
   XY=              0.2559   XZ=             -0.7384   YZ=             -0.0194

 1\1\GINC-NODE06\SP\RB2PLYPD3-FC\def2QZVP\C4H6\BOITTIER\26-Aug-2020\0\\
 #p B2PLYPD3/Def2QZVP\\butadiene\\0,1\C,0,-3.869995,0.182702,0.027796\C
 ,0,-2.717214,-0.449046,-0.011483\C,0,-1.389036,0.078144,-0.023923\C,0,
 -0.242619,-0.664256,0.070956\H,0,-4.880225,-0.262222,0.233184\H,0,-3.8
 56982,1.284398,0.189018\H,0,-2.723646,-1.476482,-0.011875\H,0,-1.14262
 3,1.167706,-0.028252\H,0,-0.30762,-1.759879,0.234904\H,0,0.727321,-0.2
 94966,-0.052819\\Version=ES64L-G09RevD.01\State=1-A\HF=-155.6836408\MP
 2=-155.9104588\RMSD=7.941e-09\PG=C01 [X(C4H6)]\\@

 Normal termination of Gaussian 09 at Wed Aug 26 15:54:59 2020.
