 Gaussian 09, Revision D.01,
 Gaussian 09:  ES64L-G09RevD.01 24-Apr-2013

 --------------------
 #p B2PLYPD3/Def2QZVP
 --------------------

 ---------
 butadiene
 ---------
 Symbolic Z-matrix:
 Charge =  0 Multiplicity = 1

                         Standard orientation:
 ---------------------------------------------------------------------
 Center     Atomic      Atomic             Coordinates (Angstroms)
 Number     Number       Type             X           Y           Z
 ---------------------------------------------------------------------
      1          6           0       -1.851752   -0.109190    0.041718
      2          6           0       -0.605645    0.404100   -0.039311
      3          6           0        0.615034   -0.419502   -0.058827
      4          6           0        1.843419    0.108993    0.019372
      5          1           0       -2.702532    0.524429    0.056933
      6          1           0       -2.104110   -1.143276   -0.022424
      7          1           0       -0.474338    1.486677   -0.025736
      8          1           0        0.498001   -1.463199    0.055350
      9          1           0        2.024920    1.172879    0.061685
     10          1           0        2.751729   -0.483916    0.096478
 ---------------------------------------------------------------------

 SCF Done:  E(RB2PLYPD3) =  -155.697326294     A.U. after   11 cycles
 E2(B2PLYPD3) =    -0.2258835003D+00 E(B2PLYPD3) =    -0.15592320979462D+03

 The electronic state is 1-A.
 Alpha  occ. eigenvalues --  -10.63086 -10.62545 -10.61682 -10.61296  -0.92556
 Alpha  occ. eigenvalues --   -0.84731  -0.70387  -0.64588  -0.54737  -0.53834
 Alpha  occ. eigenvalues --   -0.46871  -0.45662  -0.41197  -0.37736  -0.27600
 Alpha virt. eigenvalues --    0.01582   0.07017   0.07526   0.08149   0.09174
 Alpha virt. eigenvalues --    0.11590   0.12600   0.14719   0.15716   0.16413
 Alpha virt. eigenvalues --    0.18981   0.20193   0.22041   0.23209   0.23520

 Mulliken charges:
               1
     1  C   -0.173510
     2  C   -0.040274
     3  C   -0.037962
     4  C   -0.167345
     5  H    0.079581
     6  H    0.068065
     7  H    0.060052
     8  H    0.068734
     9  H    0.062813
    10  H    0.079845
 Sum of Mulliken charges =   0.00000

 Dipole moment (field-independent basis, Debye):
    X=              0.0246    Y=             -0.0060    Z=              0.1288  Tot=              0.1313
 Quadrupole moment (field-independent basis, Debye-Ang):
   XX=            -23.1986   YY=            -23.1395   ZZ=            -29.2898
   XY=              0.3839   XZ=              0.3728   YZ=             -0.0309

 1\1\GINC-NODE07\SP\RB2PLYPD3-FC\def2QZVP\C4H6\BOITTIER\26-Aug-2020\0\\
 #p B2PLYPD3/Def2QZVP\\butadiene\\0,1\C,0,-3.854376,0.224376,-0.022595\
 C,0,-2.721123,-0.503236,0.072981\C,0,-1.371531,0.086092,0.0657\C,0,-0.
 259514,-0.658079,0.002613\H,0,-4.805791,-0.244998,-0.017286\H,0,-3.915
 144,1.288515,0.009759\H,0,-2.78784,-1.591608,0.092799\H,0,-1.298654,1.
 129795,-0.08062\H,0,-0.273677,-1.73803,-0.006925\H,0,0.740507,-0.24192
 9,-0.093772\\Version=ES64L-G09RevD.01\State=1-A\HF=-155.6973263\MP2=-1
 55.9232098\RMSD=5.681e-09\PG=C01 [X(C4H6)]\\@

 Normal termination of Gaussian 09 at Wed Aug 26 09:17:14 2020.
