 Gaussian 09, Revision D.01,
 Gaussian 09:  ES64L-G09RevD.01 24-Apr-2013

 --------------------
 #p B2PLYPD3/Def2QZVP
 --------------------

 ---------
 butadiene
 ---------
 Symbolic Z-matrix:
 Charge =  0 Multiplicity = 1

                         Standard orientation:
 ---------------------------------------------------------------------
 Center     Atomic      Atomic             Coordinates (Angstroms)
 Number     Number       Type             X           Y           Z
 ---------------------------------------------------------------------
      1          6           0        1.834783    0.122375    0.025084
      2          6           0        0.608047   -0.426677   -0.037945
      3          6           0       -0.601922    0.396039   -0.012385
      4          6           0       -1.848905   -0.101713    0.009209
      5          1           0        2.709479   -0.520183   -0.001068
      6          1           0        1.984483    1.218225    0.069663
      7          1           0        0.496584   -1.486519   -0.023865
      8          1           0       -0.415843    1.467089   -0.059197
      9          1           0       -2.007977   -1.168742    0.102074
     10          1           0       -2.718741    0.549985    0.008616
 ---------------------------------------------------------------------

 SCF Done:  E(RB2PLYPD3) =  -155.699303002     A.U. after   11 cycles
 E2(B2PLYPD3) =    -0.2262416495D+00 E(B2PLYPD3) =    -0.15592554465197D+03

 The electronic state is 1-A.
 Alpha  occ. eigenvalues --  -10.62706 -10.62542 -10.61993 -10.61641  -0.92739
 Alpha  occ. eigenvalues --   -0.84585  -0.69858  -0.64248  -0.54272  -0.53722
 Alpha  occ. eigenvalues --   -0.46523  -0.45721  -0.41283  -0.37865  -0.27542
 Alpha virt. eigenvalues --    0.01652   0.07002   0.07361   0.08088   0.09334
 Alpha virt. eigenvalues --    0.11709   0.12333   0.14660   0.15738   0.16155
 Alpha virt. eigenvalues --    0.18739   0.20293   0.21553   0.22943   0.23796

 Mulliken charges:
               1
     1  C   -0.174490
     2  C   -0.037500
     3  C   -0.028694
     4  C   -0.180234
     5  H    0.084310
     6  H    0.066526
     7  H    0.060668
     8  H    0.055362
     9  H    0.067333
    10  H    0.086719
 Sum of Mulliken charges =   0.00000

 Dipole moment (field-independent basis, Debye):
    X=              0.0445    Y=             -0.0232    Z=              0.0582  Tot=              0.0769
 Quadrupole moment (field-independent basis, Debye-Ang):
   XX=            -23.6974   YY=            -22.9803   ZZ=            -29.3758
   XY=              0.1513   XZ=             -0.0711   YZ=             -0.0869

 1\1\GINC-NODE13\SP\RB2PLYPD3-FC\def2QZVP\C4H6\BOITTIER\26-Aug-2020\0\\
 #p B2PLYPD3/Def2QZVP\\butadiene\\0,1\C,0,-3.835202,0.237352,-0.006502\
 C,0,-2.727684,-0.52273,0.070892\C,0,-1.389049,0.066884,0.026703\C,0,-0
 .252634,-0.648435,0.018284\H,0,-4.811526,-0.235711,0.034264\H,0,-3.784
 544,1.340831,-0.077577\H,0,-2.809641,-1.585292,0.082422\H,0,-1.378341,
 1.154733,0.047555\H,0,-0.289335,-1.728546,-0.04873\H,0,0.720652,-0.164
 869,0.00403\\Version=ES64L-G09RevD.01\State=1-A\HF=-155.699303\MP2=-15
 5.9255447\RMSD=4.475e-09\PG=C01 [X(C4H6)]\\@

 Normal termination of Gaussian 09 at Wed Aug 26 19:16:49 2020.
