 Gaussian 09, Revision D.01,
 Gaussian 09:  ES64L-G09RevD.01 24-Apr-2013

 --------------------
 #p B2PLYPD3/Def2QZVP
 --------------------

 ---------
 butadiene
 ---------
 Symbolic Z-matrix:
 Charge =  0 Multiplicity = 1

                         Standard orientation:
 ---------------------------------------------------------------------
 Center     Atomic      Atomic             Coordinates (Angstroms)
 Number     Number       Type             X           Y           Z
 ---------------------------------------------------------------------
      1          6           0       -1.844814   -0.121856    0.053539
      2          6           0       -0.603506    0.396157   -0.105634
      3          6           0        0.618596   -0.378653   -0.072338
      4          6           0        1.838725    0.119152    0.032682
      5          1           0       -2.656468    0.521117    0.205149
      6          1           0       -1.957104   -1.195791    0.100753
      7          1           0       -0.631342    1.469527   -0.118616
      8          1           0        0.483670   -1.444998    0.007060
      9          1           0        2.095583    1.198970    0.287327
     10          1           0        2.611660   -0.637626    0.068838
 ---------------------------------------------------------------------

 SCF Done:  E(RB2PLYPD3) =  -155.688780504     A.U. after   11 cycles
 E2(B2PLYPD3) =    -0.2262907281D+00 E(B2PLYPD3) =    -0.15591507123224D+03

 The electronic state is 1-A.
 Alpha  occ. eigenvalues --  -10.62439 -10.62319 -10.61901 -10.61266  -0.93063
 Alpha  occ. eigenvalues --   -0.85205  -0.70087  -0.63839  -0.54628  -0.54078
 Alpha  occ. eigenvalues --   -0.46862  -0.44873  -0.41493  -0.37911  -0.27537
 Alpha virt. eigenvalues --    0.01447   0.06987   0.07437   0.07933   0.09551
 Alpha virt. eigenvalues --    0.11623   0.12284   0.14783   0.15744   0.16412
 Alpha virt. eigenvalues --    0.18813   0.20124   0.21011   0.22839   0.23908

 Mulliken charges:
               1
     1  C   -0.179973
     2  C   -0.025832
     3  C   -0.041041
     4  C   -0.167171
     5  H    0.087706
     6  H    0.062092
     7  H    0.053481
     8  H    0.057042
     9  H    0.077183
    10  H    0.076513
 Sum of Mulliken charges =   0.00000

 Dipole moment (field-independent basis, Debye):
    X=             -0.0397    Y=             -0.0012    Z=              0.3966  Tot=              0.3986
 Quadrupole moment (field-independent basis, Debye-Ang):
   XX=            -24.0663   YY=            -22.9478   ZZ=            -29.1506
   XY=             -0.2010   XZ=              0.0492   YZ=              0.2004

 1\1\GINC-NODE26\SP\RB2PLYPD3-FC\def2QZVP\C4H6\BOITTIER\26-Aug-2020\0\\
 #p B2PLYPD3/Def2QZVP\\butadiene\\0,1\C,0,-3.848165,0.228719,-0.042017\
 C,0,-2.71641,-0.495418,0.129085\C,0,-1.377463,0.05199,0.078721\C,0,-0.
 263985,-0.654397,-0.014763\H,0,-4.760583,-0.265052,-0.179363\H,0,-3.77
 0478,1.304381,-0.113373\H,0,-2.932075,-1.546694,0.166167\H,0,-1.323511
 ,1.12344,-0.024647\H,0,-0.201489,-1.767906,-0.245019\H,0,0.629591,-0.0
 45982,-0.067702\\Version=ES64L-G09RevD.01\State=1-A\HF=-155.6887805\MP
 2=-155.9150712\RMSD=7.717e-09\PG=C01 [X(C4H6)]\\@

 Normal termination of Gaussian 09 at Wed Aug 26 14:26:56 2020.
