 Gaussian 09, Revision D.01,
 Gaussian 09:  ES64L-G09RevD.01 24-Apr-2013

 --------------------
 #p B2PLYPD3/Def2QZVP
 --------------------

 ---------
 butadiene
 ---------
 Symbolic Z-matrix:
 Charge =  0 Multiplicity = 1

                         Standard orientation:
 ---------------------------------------------------------------------
 Center     Atomic      Atomic             Coordinates (Angstroms)
 Number     Number       Type             X           Y           Z
 ---------------------------------------------------------------------
      1          6           0        1.800189   -0.153741   -0.026974
      2          6           0        0.604785    0.459617    0.052030
      3          6           0       -0.571480   -0.359717    0.018191
      4          6           0       -1.826173    0.076026   -0.060570
      5          1           0        2.764870    0.458038   -0.168690
      6          1           0        1.916211   -1.288090    0.085701
      7          1           0        0.553341    1.526955   -0.039939
      8          1           0       -0.503111   -1.463828    0.115793
      9          1           0       -1.949224    1.145047    0.225476
     10          1           0       -2.826011   -0.511232   -0.114402
 ---------------------------------------------------------------------

 SCF Done:  E(RB2PLYPD3) =  -155.676445504     A.U. after   11 cycles
 E2(B2PLYPD3) =    -0.2280798402D+00 E(B2PLYPD3) =    -0.15590452534441D+03

 The electronic state is 1-A.
 Alpha  occ. eigenvalues --  -10.63335 -10.62920 -10.62692 -10.62138  -0.93425
 Alpha  occ. eigenvalues --   -0.84409  -0.68696  -0.63822  -0.53905  -0.53281
 Alpha  occ. eigenvalues --   -0.46294  -0.43593  -0.41467  -0.37852  -0.27322
 Alpha virt. eigenvalues --    0.01457   0.06885   0.07172   0.07602   0.08992
 Alpha virt. eigenvalues --    0.11504   0.12420   0.14161   0.15522   0.16588
 Alpha virt. eigenvalues --    0.18629   0.19630   0.21048   0.23247   0.23421

 Mulliken charges:
               1
     1  C   -0.158537
     2  C   -0.047723
     3  C   -0.016422
     4  C   -0.175026
     5  H    0.073765
     6  H    0.070147
     7  H    0.073571
     8  H    0.051974
     9  H    0.048800
    10  H    0.079450
 Sum of Mulliken charges =   0.00000

 Dipole moment (field-independent basis, Debye):
    X=              0.1558    Y=             -0.0222    Z=              0.1516  Tot=              0.2185
 Quadrupole moment (field-independent basis, Debye-Ang):
   XX=            -23.7783   YY=            -23.3504   ZZ=            -29.3837
   XY=              0.2997   XZ=             -0.5449   YZ=             -0.0805

 1\1\GINC-NODE29\SP\RB2PLYPD3-FC\def2QZVP\C4H6\BOITTIER\26-Aug-2020\0\\
 #p B2PLYPD3/Def2QZVP\\butadiene\\0,1\C,0,-3.795407,0.25308,-0.015735\C
 ,0,-2.726281,-0.557961,0.087336\C,0,-1.424453,0.041126,0.038432\C,0,-0
 .265588,-0.609925,-0.020676\H,0,-4.852287,-0.183757,-0.146671\H,0,-3.7
 10727,1.392893,0.065256\H,0,-2.862806,-1.619925,0.024818\H,0,-1.298146
 ,1.142404,0.105475\H,0,-0.3324,-1.675549,0.295161\H,0,0.821853,-0.2088
 44,-0.084327\\Version=ES64L-G09RevD.01\State=1-A\HF=-155.6764455\MP2=-
 155.9045253\RMSD=9.847e-09\PG=C01 [X(C4H6)]\\@

 Normal termination of Gaussian 09 at Wed Aug 26 14:41:24 2020.
