 Gaussian 09, Revision D.01,
 Gaussian 09:  ES64L-G09RevD.01 24-Apr-2013

 --------------------
 #p B2PLYPD3/Def2QZVP
 --------------------

 ---------
 butadiene
 ---------
 Symbolic Z-matrix:
 Charge =  0 Multiplicity = 1

                         Standard orientation:
 ---------------------------------------------------------------------
 Center     Atomic      Atomic             Coordinates (Angstroms)
 Number     Number       Type             X           Y           Z
 ---------------------------------------------------------------------
      1          6           0       -1.855026    0.093268   -0.053677
      2          6           0       -0.591555   -0.371171    0.034005
      3          6           0        0.617422    0.421083    0.002650
      4          6           0        1.857875   -0.144774   -0.033927
      5          1           0       -2.721446   -0.571789    0.043341
      6          1           0       -2.209889    1.142712   -0.054729
      7          1           0       -0.495757   -1.530019    0.256415
      8          1           0        0.527094    1.534924    0.133865
      9          1           0        2.056945   -1.121793   -0.229196
     10          1           0        2.670762    0.555524    0.156003
 ---------------------------------------------------------------------

 SCF Done:  E(RB2PLYPD3) =  -155.680611291     A.U. after   12 cycles
 E2(B2PLYPD3) =    -0.2277826806D+00 E(B2PLYPD3) =    -0.15590839397126D+03

 The electronic state is 1-A.
 Alpha  occ. eigenvalues --  -10.63888 -10.63522 -10.62193 -10.61486  -0.92383
 Alpha  occ. eigenvalues --   -0.84450  -0.70622  -0.63071  -0.54539  -0.53467
 Alpha  occ. eigenvalues --   -0.46112  -0.45675  -0.40596  -0.37289  -0.27344
 Alpha virt. eigenvalues --    0.00928   0.06928   0.07060   0.07722   0.09358
 Alpha virt. eigenvalues --    0.11312   0.12365   0.14746   0.15938   0.16031
 Alpha virt. eigenvalues --    0.18689   0.19852   0.21817   0.22329   0.23567

 Mulliken charges:
               1
     1  C   -0.167355
     2  C   -0.037782
     3  C   -0.032670
     4  C   -0.182887
     5  H    0.075319
     6  H    0.062638
     7  H    0.052931
     8  H    0.061378
     9  H    0.087422
    10  H    0.081006
 Sum of Mulliken charges =   0.00000

 Dipole moment (field-independent basis, Debye):
    X=              0.0045    Y=              0.0343    Z=              0.2557  Tot=              0.2580
 Quadrupole moment (field-independent basis, Debye-Ang):
   XX=            -23.4616   YY=            -23.2111   ZZ=            -29.3813
   XY=             -0.4891   XZ=             -0.1178   YZ=              0.1917

 1\1\GINC-NODE04\SP\RB2PLYPD3-FC\def2QZVP\C4H6\BOITTIER\26-Aug-2020\0\\
 #p B2PLYPD3/Def2QZVP\\butadiene\\0,1\C,0,-3.863571,0.210796,-0.025158\
 C,0,-2.704186,-0.471753,0.073348\C,0,-1.372359,0.088852,0.026085\C,0,-
 0.254269,-0.691901,0.002498\H,0,-4.83533,-0.285065,0.085312\H,0,-4.023
 557,1.306746,-0.048792\H,0,-2.818054,-1.623953,0.320417\H,0,-1.260131,
 1.203248,0.133522\H,0,-0.235081,-1.692688,-0.171804\H,0,0.672065,-0.14
 5698,0.178122\\Version=ES64L-G09RevD.01\State=1-A\HF=-155.6806113\MP2=
 -155.908394\RMSD=3.272e-09\PG=C01 [X(C4H6)]\\@

 Normal termination of Gaussian 09 at Wed Aug 26 16:12:20 2020.
