 Gaussian 09, Revision D.01,
 Gaussian 09:  ES64L-G09RevD.01 24-Apr-2013

 --------------------
 #p B2PLYPD3/Def2QZVP
 --------------------

 ---------
 butadiene
 ---------
 Symbolic Z-matrix:
 Charge =  0 Multiplicity = 1

                         Standard orientation:
 ---------------------------------------------------------------------
 Center     Atomic      Atomic             Coordinates (Angstroms)
 Number     Number       Type             X           Y           Z
 ---------------------------------------------------------------------
      1          6           0       -1.829324   -0.114369    0.020776
      2          6           0       -0.604729    0.426390   -0.054498
      3          6           0        0.608107   -0.396845   -0.028515
      4          6           0        1.834798    0.098107    0.024887
      5          1           0       -2.804147    0.427460    0.169193
      6          1           0       -1.917431   -1.202197    0.016502
      7          1           0       -0.537935    1.491429   -0.038175
      8          1           0        0.452105   -1.460085   -0.070338
      9          1           0        2.052408    1.197279    0.029626
     10          1           0        2.701882   -0.533579    0.117290
 ---------------------------------------------------------------------

 SCF Done:  E(RB2PLYPD3) =  -155.696249684     A.U. after   11 cycles
 E2(B2PLYPD3) =    -0.2259715860D+00 E(B2PLYPD3) =    -0.15592222126977D+03

 The electronic state is 1-A.
 Alpha  occ. eigenvalues --  -10.62606 -10.62551 -10.62093 -10.61676  -0.92945
 Alpha  occ. eigenvalues --   -0.84814  -0.69506  -0.64380  -0.54536  -0.53611
 Alpha  occ. eigenvalues --   -0.46897  -0.44705  -0.41147  -0.38032  -0.27785
 Alpha virt. eigenvalues --    0.01923   0.06997   0.07382   0.08028   0.09364
 Alpha virt. eigenvalues --    0.11539   0.12543   0.14361   0.15841   0.16379
 Alpha virt. eigenvalues --    0.18832   0.20386   0.21605   0.22825   0.23590

 Mulliken charges:
               1
     1  C   -0.167020
     2  C   -0.033177
     3  C   -0.037672
     4  C   -0.169009
     5  H    0.081598
     6  H    0.055006
     7  H    0.063175
     8  H    0.060600
     9  H    0.062900
    10  H    0.083600
 Sum of Mulliken charges =   0.00000

 Dipole moment (field-independent basis, Debye):
    X=             -0.0053    Y=             -0.0088    Z=              0.1462  Tot=              0.1466
 Quadrupole moment (field-independent basis, Debye-Ang):
   XX=            -23.3846   YY=            -23.2099   ZZ=            -29.2828
   XY=              0.0950   XZ=             -0.1849   YZ=              0.0802

 1\1\GINC-NODE22\SP\RB2PLYPD3-FC\def2QZVP\C4H6\BOITTIER\26-Aug-2020\0\\
 #p B2PLYPD3/Def2QZVP\\butadiene\\0,1\C,0,-3.832408,0.225094,-0.008946\
 C,0,-2.724084,-0.523624,0.084633\C,0,-1.383663,0.068558,0.040415\C,0,-
 0.265306,-0.638946,0.004144\H,0,-4.888641,-0.137557,-0.145856\H,0,-3.7
 24621,1.310866,-0.034091\H,0,-2.848788,-1.583497,0.097056\H,0,-1.34700
 9,1.143294,0.05325\H,0,-0.247706,-1.759036,0.029536\H,0,0.700576,-0.17
 5143,-0.102424\\Version=ES64L-G09RevD.01\State=1-A\HF=-155.6962497\MP2
 =-155.9222213\RMSD=5.179e-09\PG=C01 [X(C4H6)]\\@

 Normal termination of Gaussian 09 at Wed Aug 26 09:09:15 2020.
