 Gaussian 09, Revision D.01,
 Gaussian 09:  ES64L-G09RevD.01 24-Apr-2013

 --------------------
 #p B2PLYPD3/Def2QZVP
 --------------------

 ---------
 butadiene
 ---------
 Symbolic Z-matrix:
 Charge =  0 Multiplicity = 1

                         Standard orientation:
 ---------------------------------------------------------------------
 Center     Atomic      Atomic             Coordinates (Angstroms)
 Number     Number       Type             X           Y           Z
 ---------------------------------------------------------------------
      1          6           0        1.823428   -0.123597    0.036698
      2          6           0        0.583105    0.408203   -0.032266
      3          6           0       -0.597792   -0.372302   -0.049630
      4          6           0       -1.822226    0.087805    0.044552
      5          1           0        2.721670    0.533884    0.072535
      6          1           0        2.022376   -1.183707   -0.004364
      7          1           0        0.481464    1.467043   -0.037622
      8          1           0       -0.462111   -1.463277   -0.079060
      9          1           0       -1.977694    1.172788   -0.061672
     10          1           0       -2.704796   -0.527381    0.114056
 ---------------------------------------------------------------------

 SCF Done:  E(RB2PLYPD3) =  -155.696425722     A.U. after   11 cycles
 E2(B2PLYPD3) =    -0.2258955243D+00 E(B2PLYPD3) =    -0.15592232124637D+03

 The electronic state is 1-A.
 Alpha  occ. eigenvalues --  -10.62336 -10.62075 -10.61935 -10.61250  -0.93715
 Alpha  occ. eigenvalues --   -0.84882  -0.70345  -0.64138  -0.54818  -0.53946
 Alpha  occ. eigenvalues --   -0.46837  -0.44987  -0.41341  -0.38466  -0.27501
 Alpha virt. eigenvalues --    0.01527   0.06997   0.07407   0.07973   0.09843
 Alpha virt. eigenvalues --    0.11691   0.12440   0.14778   0.15891   0.16217
 Alpha virt. eigenvalues --    0.18751   0.20322   0.21564   0.22811   0.23807

 Mulliken charges:
               1
     1  C   -0.175427
     2  C   -0.034258
     3  C   -0.015837
     4  C   -0.172963
     5  H    0.078332
     6  H    0.070236
     7  H    0.058840
     8  H    0.047025
     9  H    0.056917
    10  H    0.087136
 Sum of Mulliken charges =   0.00000

 Dipole moment (field-independent basis, Debye):
    X=             -0.0024    Y=             -0.0178    Z=             -0.0603  Tot=              0.0629
 Quadrupole moment (field-independent basis, Debye-Ang):
   XX=            -23.4759   YY=            -23.2234   ZZ=            -29.1798
   XY=             -0.0629   XZ=             -0.0089   YZ=             -0.0689

 1\1\GINC-NODE39\SP\RB2PLYPD3-FC\def2QZVP\C4H6\BOITTIER\26-Aug-2020\0\\
 #p B2PLYPD3/Def2QZVP\\butadiene\\0,1\C,0,-3.823453,0.240779,0.055544\C
 ,0,-2.701524,-0.510423,0.00132\C,0,-1.397845,0.040262,-0.032949\C,0,-0
 .277957,-0.63367,0.074177\H,0,-4.826692,-0.240255,0.105766\H,0,-3.8252
 63,1.318104,-0.011293\H,0,-2.79528,-1.56981,0.021569\H,0,-1.331777,1.1
 36627,-0.088801\H,0,-0.323864,-1.73101,-0.0057\H,0,0.702439,-0.18882,0
 .130257\\Version=ES64L-G09RevD.01\State=1-A\HF=-155.6964257\MP2=-155.9
 223212\RMSD=7.863e-09\PG=C01 [X(C4H6)]\\@

 Normal termination of Gaussian 09 at Wed Aug 26 08:40:14 2020.
