 Gaussian 09, Revision D.01,
 Gaussian 09:  ES64L-G09RevD.01 24-Apr-2013

 --------------------
 #p B2PLYPD3/Def2QZVP
 --------------------

 ---------
 butadiene
 ---------
 Symbolic Z-matrix:
 Charge =  0 Multiplicity = 1

                         Standard orientation:
 ---------------------------------------------------------------------
 Center     Atomic      Atomic             Coordinates (Angstroms)
 Number     Number       Type             X           Y           Z
 ---------------------------------------------------------------------
      1          6           0        1.798120   -0.158381   -0.000167
      2          6           0        0.596107    0.452186   -0.031092
      3          6           0       -0.573712   -0.352826   -0.072826
      4          6           0       -1.817265    0.079065    0.038232
      5          1           0        2.613948    0.474622    0.187780
      6          1           0        1.945042   -1.233928    0.102431
      7          1           0        0.594851    1.570603   -0.050458
      8          1           0       -0.450819   -1.493566   -0.003087
      9          1           0       -2.012959    1.167894    0.067538
     10          1           0       -2.709562   -0.605895    0.090908
 ---------------------------------------------------------------------

 SCF Done:  E(RB2PLYPD3) =  -155.687231534     A.U. after   11 cycles
 E2(B2PLYPD3) =    -0.2270254520D+00 E(B2PLYPD3) =    -0.15591425698556D+03

 The electronic state is 1-A.
 Alpha  occ. eigenvalues --  -10.63012 -10.62596 -10.61789 -10.61309  -0.93483
 Alpha  occ. eigenvalues --   -0.84852  -0.69840  -0.63134  -0.54456  -0.53750
 Alpha  occ. eigenvalues --   -0.45864  -0.44689  -0.41059  -0.38657  -0.27442
 Alpha virt. eigenvalues --    0.01603   0.06913   0.07075   0.07854   0.09516
 Alpha virt. eigenvalues --    0.11656   0.12291   0.14756   0.15568   0.16519
 Alpha virt. eigenvalues --    0.18548   0.19656   0.21411   0.23287   0.23862

 Mulliken charges:
               1
     1  C   -0.165499
     2  C   -0.039843
     3  C   -0.011215
     4  C   -0.174200
     5  H    0.075553
     6  H    0.068983
     7  H    0.058670
     8  H    0.044875
     9  H    0.059115
    10  H    0.083560
 Sum of Mulliken charges =   0.00000

 Dipole moment (field-independent basis, Debye):
    X=              0.0541    Y=              0.0419    Z=              0.2886  Tot=              0.2966
 Quadrupole moment (field-independent basis, Debye-Ang):
   XX=            -24.1151   YY=            -22.8792   ZZ=            -29.2987
   XY=              0.0793   XZ=              0.3051   YZ=             -0.1001

 1\1\GINC-NODE32\SP\RB2PLYPD3-FC\def2QZVP\C4H6\BOITTIER\26-Aug-2020\0\\
 #p B2PLYPD3/Def2QZVP\\butadiene\\0,1\C,0,-3.791192,0.265902,0.030847\C
 ,0,-2.718737,-0.551326,0.007169\C,0,-1.423292,0.029464,-0.045457\C,0,-
 0.277432,-0.617715,0.070525\H,0,-4.707069,-0.207565,0.227294\H,0,-3.74
 192,1.351531,0.119714\H,0,-2.918778,-1.651867,0.002147\H,0,-1.338746,1
 .174481,0.009706\H,0,-0.28075,-1.723531,0.113697\H,0,0.723684,-0.10388
 8,0.113977\\Version=ES64L-G09RevD.01\State=1-A\HF=-155.6872315\MP2=-15
 5.914257\RMSD=9.802e-09\PG=C01 [X(C4H6)]\\@

 Normal termination of Gaussian 09 at Wed Aug 26 15:42:01 2020.
