 Gaussian 09, Revision D.01,
 Gaussian 09:  ES64L-G09RevD.01 24-Apr-2013

 --------------------
 #p B2PLYPD3/Def2QZVP
 --------------------

 ---------
 butadiene
 ---------
 Symbolic Z-matrix:
 Charge =  0 Multiplicity = 1

                         Standard orientation:
 ---------------------------------------------------------------------
 Center     Atomic      Atomic             Coordinates (Angstroms)
 Number     Number       Type             X           Y           Z
 ---------------------------------------------------------------------
      1          6           0        1.864283    0.048793   -0.018152
      2          6           0        0.617895   -0.352822    0.016621
      3          6           0       -0.604369    0.447231    0.021194
      4          6           0       -1.859626   -0.146041   -0.043568
      5          1           0        2.707229   -0.573164    0.024019
      6          1           0        1.986232    1.187166   -0.255692
      7          1           0        0.403969   -1.386243    0.186631
      8          1           0       -0.439487    1.589532    0.288151
      9          1           0       -1.972805   -1.253056   -0.063660
     10          1           0       -2.794237    0.452804   -0.036019
 ---------------------------------------------------------------------

 SCF Done:  E(RB2PLYPD3) =  -155.677167263     A.U. after   11 cycles
 E2(B2PLYPD3) =    -0.2280927004D+00 E(B2PLYPD3) =    -0.15590525996321D+03

 The electronic state is 1-A.
 Alpha  occ. eigenvalues --  -10.64721 -10.63440 -10.62070 -10.61737  -0.92633
 Alpha  occ. eigenvalues --   -0.84306  -0.70068  -0.62724  -0.55244  -0.52263
 Alpha  occ. eigenvalues --   -0.47229  -0.44549  -0.40525  -0.37264  -0.27709
 Alpha virt. eigenvalues --    0.01098   0.06944   0.07110   0.07773   0.09194
 Alpha virt. eigenvalues --    0.11475   0.12288   0.14247   0.15339   0.16048
 Alpha virt. eigenvalues --    0.18735   0.19646   0.21202   0.22489   0.23453

 Mulliken charges:
               1
     1  C   -0.181168
     2  C   -0.004186
     3  C   -0.052781
     4  C   -0.179304
     5  H    0.098545
     6  H    0.051572
     7  H    0.049768
     8  H    0.057307
     9  H    0.070287
    10  H    0.089961
 Sum of Mulliken charges =   0.00000

 Dipole moment (field-independent basis, Debye):
    X=             -0.0761    Y=             -0.1536    Z=              0.1601  Tot=              0.2345
 Quadrupole moment (field-independent basis, Debye-Ang):
   XX=            -23.3869   YY=            -23.5536   ZZ=            -29.4306
   XY=             -0.0158   XZ=             -0.1749   YZ=             -0.0744

 1\1\GINC-NODE09\SP\RB2PLYPD3-FC\def2QZVP\C4H6\BOITTIER\26-Aug-2020\0\\
 #p B2PLYPD3/Def2QZVP\\butadiene\\0,1\C,0,-3.874621,0.172681,0.037974\C
 ,0,-2.721988,-0.449368,0.016079\C,0,-1.374955,0.115011,-0.015729\C,0,-
 0.247712,-0.693758,0.068249\H,0,-4.81664,-0.287022,0.016954\H,0,-3.786
 555,1.32144,0.23744\H,0,-2.700133,-1.509455,-0.119437\H,0,-1.331669,1.
 258903,-0.320591\H,0,-0.337044,-1.80167,0.125228\H,0,0.779936,-0.27503
 3,0.040307\\Version=ES64L-G09RevD.01\State=1-A\HF=-155.6771673\MP2=-15
 5.90526\RMSD=9.625e-09\PG=C01 [X(C4H6)]\\@

 Normal termination of Gaussian 09 at Wed Aug 26 13:54:49 2020.
