 Gaussian 09, Revision D.01,
 Gaussian 09:  ES64L-G09RevD.01 24-Apr-2013

 --------------------
 #p B2PLYPD3/Def2QZVP
 --------------------

 ---------
 butadiene
 ---------
 Symbolic Z-matrix:
 Charge =  0 Multiplicity = 1

                         Standard orientation:
 ---------------------------------------------------------------------
 Center     Atomic      Atomic             Coordinates (Angstroms)
 Number     Number       Type             X           Y           Z
 ---------------------------------------------------------------------
      1          6           0       -1.860141   -0.118616   -0.019322
      2          6           0       -0.617768    0.424681    0.005191
      3          6           0        0.608256   -0.374698    0.041275
      4          6           0        1.866316    0.091777   -0.029278
      5          1           0       -2.784315    0.452289   -0.009759
      6          1           0       -1.953413   -1.181861   -0.114451
      7          1           0       -0.408248    1.474490    0.132357
      8          1           0        0.475843   -1.466109    0.125809
      9          1           0        2.045156    1.166904   -0.074476
     10          1           0        2.644996   -0.584580   -0.046672
 ---------------------------------------------------------------------

 SCF Done:  E(RB2PLYPD3) =  -155.695627360     A.U. after   11 cycles
 E2(B2PLYPD3) =    -0.2263315671D+00 E(B2PLYPD3) =    -0.15592195892678D+03

 The electronic state is 1-A.
 Alpha  occ. eigenvalues --  -10.63053 -10.62730 -10.62070 -10.61197  -0.92591
 Alpha  occ. eigenvalues --   -0.84768  -0.70691  -0.63850  -0.54955  -0.53617
 Alpha  occ. eigenvalues --   -0.47312  -0.45716  -0.41147  -0.37558  -0.27581
 Alpha virt. eigenvalues --    0.01335   0.07067   0.07436   0.08118   0.09432
 Alpha virt. eigenvalues --    0.11616   0.12474   0.14624   0.15735   0.16071
 Alpha virt. eigenvalues --    0.18850   0.20389   0.21552   0.22485   0.24028

 Mulliken charges:
               1
     1  C   -0.174388
     2  C   -0.038728
     3  C   -0.021439
     4  C   -0.187141
     5  H    0.088995
     6  H    0.068958
     7  H    0.058626
     8  H    0.045126
     9  H    0.064996
    10  H    0.094995
 Sum of Mulliken charges =   0.00000

 Dipole moment (field-independent basis, Debye):
    X=             -0.0366    Y=             -0.0210    Z=              0.0320  Tot=              0.0530
 Quadrupole moment (field-independent basis, Debye-Ang):
   XX=            -23.3354   YY=            -23.2353   ZZ=            -29.3259
   XY=              0.1657   XZ=             -0.0601   YZ=              0.1199

 1\1\GINC-NODE14\SP\RB2PLYPD3-FC\def2QZVP\C4H6\BOITTIER\26-Aug-2020\0\\
 #p B2PLYPD3/Def2QZVP\\butadiene\\0,1\C,0,-3.859289,0.240031,0.037075\C
 ,0,-2.735504,-0.519077,0.025903\C,0,-1.385341,0.044857,-0.023902\C,0,-
 0.232087,-0.639625,0.058456\H,0,-4.871385,-0.154664,0.037225\H,0,-3.75
 8847,1.304336,0.110598\H,0,-2.719239,-1.591808,-0.079697\H,0,-1.318621
 ,1.140307,-0.130648\H,0,-0.250271,-1.728239,0.125635\H,0,0.655964,-0.1
 14801,0.063732\\Version=ES64L-G09RevD.01\State=1-A\HF=-155.6956274\MP2
 =-155.9219589\RMSD=6.821e-09\PG=C01 [X(C4H6)]\\@

 Normal termination of Gaussian 09 at Wed Aug 26 09:00:33 2020.
