 Gaussian 09, Revision D.01,
 Gaussian 09:  ES64L-G09RevD.01 24-Apr-2013

 --------------------
 #p B2PLYPD3/Def2QZVP
 --------------------

 ---------
 butadiene
 ---------
 Symbolic Z-matrix:
 Charge =  0 Multiplicity = 1

                         Standard orientation:
 ---------------------------------------------------------------------
 Center     Atomic      Atomic             Coordinates (Angstroms)
 Number     Number       Type             X           Y           Z
 ---------------------------------------------------------------------
      1          6           0        1.850559   -0.131615    0.019123
      2          6           0        0.620727    0.427567   -0.062689
      3          6           0       -0.612701   -0.396709   -0.028042
      4          6           0       -1.850567    0.088372    0.009281
      5          1           0        2.696503    0.525249    0.141342
      6          1           0        1.977627   -1.211094    0.022137
      7          1           0        0.480309    1.539291    0.029844
      8          1           0       -0.437160   -1.449002    0.012192
      9          1           0       -2.033395    1.185016    0.067832
     10          1           0       -2.731997   -0.515148    0.100611
 ---------------------------------------------------------------------

 SCF Done:  E(RB2PLYPD3) =  -155.695937942     A.U. after   11 cycles
 E2(B2PLYPD3) =    -0.2263963808D+00 E(B2PLYPD3) =    -0.15592233432231D+03

 The electronic state is 1-A.
 Alpha  occ. eigenvalues --  -10.63458 -10.62575 -10.61954 -10.61643  -0.92414
 Alpha  occ. eigenvalues --   -0.84729  -0.69809  -0.63767  -0.54537  -0.53499
 Alpha  occ. eigenvalues --   -0.46712  -0.45560  -0.40795  -0.37698  -0.27771
 Alpha virt. eigenvalues --    0.01723   0.07021   0.07255   0.08089   0.09214
 Alpha virt. eigenvalues --    0.11647   0.12372   0.14534   0.15759   0.16104
 Alpha virt. eigenvalues --    0.18854   0.20226   0.21527   0.23213   0.23636

 Mulliken charges:
               1
     1  C   -0.179773
     2  C   -0.032987
     3  C   -0.034323
     4  C   -0.167182
     5  H    0.088786
     6  H    0.072299
     7  H    0.053881
     8  H    0.056398
     9  H    0.057095
    10  H    0.085805
 Sum of Mulliken charges =   0.00000

 Dipole moment (field-independent basis, Debye):
    X=              0.0194    Y=             -0.0327    Z=              0.2831  Tot=              0.2856
 Quadrupole moment (field-independent basis, Debye-Ang):
   XX=            -23.5934   YY=            -23.0752   ZZ=            -29.3880
   XY=             -0.1893   XZ=              0.0619   YZ=              0.1283

 1\1\GINC-NODE37\SP\RB2PLYPD3-FC\def2QZVP\C4H6\BOITTIER\26-Aug-2020\0\\
 #p B2PLYPD3/Def2QZVP\\butadiene\\0,1\C,0,-3.84813,0.245446,0.043258\C,
 0,-2.738884,-0.527766,-0.016596\C,0,-1.3775,0.062615,-0.00881\C,0,-0.2
 4652,-0.635016,0.0478\H,0,-4.79758,-0.244353,0.187034\H,0,-3.77956,1.3
 29644,0.008002\H,0,-2.799666,-1.642717,0.115307\H,0,-1.361323,1.130081
 ,-0.005997\H,0,-0.263031,-1.743937,0.145287\H,0,0.729249,-0.196556,0.1
 19383\\Version=ES64L-G09RevD.01\State=1-A\HF=-155.6959379\MP2=-155.922
 3343\RMSD=6.167e-09\PG=C01 [X(C4H6)]\\@

 Normal termination of Gaussian 09 at Wed Aug 26 09:21:17 2020.
