 Gaussian 09, Revision D.01,
 Gaussian 09:  ES64L-G09RevD.01 24-Apr-2013

 --------------------
 #p B2PLYPD3/Def2QZVP
 --------------------

 ---------
 butadiene
 ---------
 Symbolic Z-matrix:
 Charge =  0 Multiplicity = 1

                         Standard orientation:
 ---------------------------------------------------------------------
 Center     Atomic      Atomic             Coordinates (Angstroms)
 Number     Number       Type             X           Y           Z
 ---------------------------------------------------------------------
      1          6           0        1.840184   -0.120640    0.002613
      2          6           0        0.602144    0.442983   -0.010487
      3          6           0       -0.608176   -0.388628    0.012858
      4          6           0       -1.840021    0.087082   -0.006590
      5          1           0        2.739805    0.438829    0.001327
      6          1           0        1.925706   -1.216928   -0.097153
      7          1           0        0.463823    1.476236    0.072576
      8          1           0       -0.371760   -1.415281    0.104571
      9          1           0       -2.011820    1.160331   -0.032100
     10          1           0       -2.710537   -0.567963   -0.039580
 ---------------------------------------------------------------------

 SCF Done:  E(RB2PLYPD3) =  -155.696456331     A.U. after   11 cycles
 E2(B2PLYPD3) =    -0.2258036252D+00 E(B2PLYPD3) =    -0.15592225995616D+03

 The electronic state is 1-A.
 Alpha  occ. eigenvalues --  -10.62549 -10.62067 -10.61922 -10.61434  -0.92942
 Alpha  occ. eigenvalues --   -0.84689  -0.70164  -0.64874  -0.54843  -0.53514
 Alpha  occ. eigenvalues --   -0.47201  -0.45741  -0.41241  -0.37778  -0.27650
 Alpha virt. eigenvalues --    0.01713   0.07050   0.07432   0.08287   0.09248
 Alpha virt. eigenvalues --    0.11723   0.12548   0.14576   0.15759   0.16052
 Alpha virt. eigenvalues --    0.18708   0.20344   0.21603   0.23377   0.23761

 Mulliken charges:
               1
     1  C   -0.178670
     2  C   -0.040499
     3  C   -0.026210
     4  C   -0.177199
     5  H    0.087951
     6  H    0.060711
     7  H    0.063110
     8  H    0.059637
     9  H    0.065007
    10  H    0.086161
 Sum of Mulliken charges =   0.00000

 Dipole moment (field-independent basis, Debye):
    X=              0.0293    Y=              0.0317    Z=              0.0080  Tot=              0.0439
 Quadrupole moment (field-independent basis, Debye-Ang):
   XX=            -23.4778   YY=            -23.1580   ZZ=            -29.2511
   XY=             -0.1980   XZ=              0.0193   YZ=              0.0946

 1\1\GINC-NODE09\SP\RB2PLYPD3-FC\def2QZVP\C4H6\BOITTIER\26-Aug-2020\0\\
 #p B2PLYPD3/Def2QZVP\\butadiene\\0,1\C,0,-3.83916,0.242901,0.020153\C,
 0,-2.725504,-0.538296,0.029388\C,0,-1.383145,0.05757,0.025658\C,0,-0.2
 5949,-0.636347,0.025428\H,0,-4.826097,-0.141808,0.036907\H,0,-3.722709
 ,1.332091,-0.118478\H,0,-2.778572,-1.575828,0.1492\H,0,-1.426918,1.112
 743,0.080556\H,0,-0.287478,-1.723123,0.038215\H,0,0.716199,-0.15361,-0
 .029016\\Version=ES64L-G09RevD.01\State=1-A\HF=-155.6964563\MP2=-155.9
 2226\RMSD=5.727e-09\PG=C01 [X(C4H6)]\\@

 Normal termination of Gaussian 09 at Wed Aug 26 11:15:36 2020.
