 Gaussian 09, Revision D.01,
 Gaussian 09:  ES64L-G09RevD.01 24-Apr-2013

 --------------------
 #p B2PLYPD3/Def2QZVP
 --------------------

 ---------
 butadiene
 ---------
 Symbolic Z-matrix:
 Charge =  0 Multiplicity = 1

                         Standard orientation:
 ---------------------------------------------------------------------
 Center     Atomic      Atomic             Coordinates (Angstroms)
 Number     Number       Type             X           Y           Z
 ---------------------------------------------------------------------
      1          6           0       -1.834283   -0.122864    0.014769
      2          6           0       -0.606895    0.420627   -0.019164
      3          6           0        0.602353   -0.390127   -0.018401
      4          6           0        1.836322    0.101510    0.028103
      5          1           0       -2.732797    0.501259    0.007600
      6          1           0       -1.917468   -1.234625    0.061572
      7          1           0       -0.495189    1.506790   -0.069684
      8          1           0        0.464218   -1.461896   -0.039361
      9          1           0        2.004150    1.173673    0.071812
     10          1           0        2.692104   -0.540081   -0.063781
 ---------------------------------------------------------------------

 SCF Done:  E(RB2PLYPD3) =  -155.699479864     A.U. after   11 cycles
 E2(B2PLYPD3) =    -0.2260283224D+00 E(B2PLYPD3) =    -0.15592550818628D+03

 The electronic state is 1-A.
 Alpha  occ. eigenvalues --  -10.62713 -10.62356 -10.62117 -10.61281  -0.92968
 Alpha  occ. eigenvalues --   -0.84828  -0.69733  -0.63933  -0.54396  -0.53842
 Alpha  occ. eigenvalues --   -0.46472  -0.45382  -0.41302  -0.38064  -0.27674
 Alpha virt. eigenvalues --    0.01784   0.07020   0.07319   0.08016   0.09530
 Alpha virt. eigenvalues --    0.11712   0.12381   0.14569   0.15793   0.16137
 Alpha virt. eigenvalues --    0.18721   0.20279   0.21418   0.22769   0.24051

 Mulliken charges:
               1
     1  C   -0.175244
     2  C   -0.033891
     3  C   -0.025825
     4  C   -0.176575
     5  H    0.089205
     6  H    0.063465
     7  H    0.054722
     8  H    0.053448
     9  H    0.064167
    10  H    0.086529
 Sum of Mulliken charges =   0.00000

 Dipole moment (field-independent basis, Debye):
    X=             -0.0065    Y=              0.0216    Z=             -0.0551  Tot=              0.0596
 Quadrupole moment (field-independent basis, Debye-Ang):
   XX=            -23.6902   YY=            -23.0357   ZZ=            -29.3256
   XY=             -0.0488   XZ=             -0.1793   YZ=              0.0180

 1\1\GINC-NODE13\SP\RB2PLYPD3-FC\def2QZVP\C4H6\BOITTIER\26-Aug-2020\0\\
 #p B2PLYPD3/Def2QZVP\\butadiene\\0,1\C,0,-3.83453,0.233282,0.001623\C,
 0,-2.723697,-0.519123,0.055953\C,0,-1.389225,0.062522,0.034058\C,0,-0.
 262864,-0.642529,0.006422\H,0,-4.829944,-0.220043,0.025155\H,0,-3.7181
 77,1.340083,-0.079474\H,0,-2.80741,-1.605722,0.140069\H,0,-1.333909,1.
 141872,0.021749\H,0,-0.289089,-1.728261,-0.003904\H,0,0.693863,-0.1613
 61,0.081229\\Version=ES64L-G09RevD.01\State=1-A\HF=-155.6994799\MP2=-1
 55.9255082\RMSD=5.090e-09\PG=C01 [X(C4H6)]\\@

 Normal termination of Gaussian 09 at Wed Aug 26 18:36:28 2020.
