 Gaussian 09, Revision D.01,
 Gaussian 09:  ES64L-G09RevD.01 24-Apr-2013

 --------------------
 #p B2PLYPD3/Def2QZVP
 --------------------

 ---------
 butadiene
 ---------
 Symbolic Z-matrix:
 Charge =  0 Multiplicity = 1

                         Standard orientation:
 ---------------------------------------------------------------------
 Center     Atomic      Atomic             Coordinates (Angstroms)
 Number     Number       Type             X           Y           Z
 ---------------------------------------------------------------------
      1          6           0        1.810439   -0.129991   -0.025748
      2          6           0        0.607903    0.429682    0.017112
      3          6           0       -0.596767   -0.378328    0.016867
      4          6           0       -1.834094    0.090849   -0.013464
      5          1           0        2.673367    0.494224   -0.064549
      6          1           0        1.936469   -1.244636    0.092244
      7          1           0        0.527758    1.545369    0.041714
      8          1           0       -0.372709   -1.448911   -0.006583
      9          1           0       -2.003105    1.145998    0.021255
     10          1           0       -2.686661   -0.565320   -0.052683
 ---------------------------------------------------------------------

 SCF Done:  E(RB2PLYPD3) =  -155.697151489     A.U. after   11 cycles
 E2(B2PLYPD3) =    -0.2257126020D+00 E(B2PLYPD3) =    -0.15592286409072D+03

 The electronic state is 1-A.
 Alpha  occ. eigenvalues --  -10.62628 -10.62311 -10.61660 -10.61056  -0.93244
 Alpha  occ. eigenvalues --   -0.85119  -0.69947  -0.63506  -0.54735  -0.53747
 Alpha  occ. eigenvalues --   -0.46595  -0.45416  -0.41011  -0.38271  -0.27805
 Alpha virt. eigenvalues --    0.02006   0.07062   0.07165   0.08075   0.09580
 Alpha virt. eigenvalues --    0.11772   0.12351   0.14696   0.15765   0.16111
 Alpha virt. eigenvalues --    0.18656   0.20375   0.21382   0.23122   0.23958

 Mulliken charges:
               1
     1  C   -0.175448
     2  C   -0.028343
     3  C   -0.020804
     4  C   -0.180528
     5  H    0.086214
     6  H    0.063713
     7  H    0.048887
     8  H    0.049698
     9  H    0.067995
    10  H    0.088617
 Sum of Mulliken charges =   0.00000

 Dipole moment (field-independent basis, Debye):
    X=              0.0526    Y=              0.0411    Z=              0.0585  Tot=              0.0887
 Quadrupole moment (field-independent basis, Debye-Ang):
   XX=            -23.7313   YY=            -23.0373   ZZ=            -29.2316
   XY=             -0.0810   XZ=              0.1318   YZ=             -0.0345

 1\1\GINC-NODE33\SP\RB2PLYPD3-FC\def2QZVP\C4H6\BOITTIER\26-Aug-2020\0\\
 #p B2PLYPD3/Def2QZVP\\butadiene\\0,1\C,0,-3.80979,0.242391,-0.005212\C
 ,0,-2.728828,-0.525147,0.054531\C,0,-1.397371,0.050009,0.031542\C,0,-0
 .266094,-0.636999,0.015521\H,0,-4.771978,-0.215365,-0.026388\H,0,-3.73
 0557,1.364283,0.080347\H,0,-2.852698,-1.63564,0.11151\H,0,-1.423208,1.
 142369,-0.023059\H,0,-0.291528,-1.703858,0.080908\H,0,0.691346,-0.1481
 83,-0.042222\\Version=ES64L-G09RevD.01\State=1-A\HF=-155.6971515\MP2=-
 155.9228641\RMSD=3.151e-09\PG=C01 [X(C4H6)]\\@

 Normal termination of Gaussian 09 at Wed Aug 26 09:20:36 2020.
