 Gaussian 09, Revision D.01,
 Gaussian 09:  ES64L-G09RevD.01 24-Apr-2013

 --------------------
 #p B2PLYPD3/Def2QZVP
 --------------------

 ---------
 butadiene
 ---------
 Symbolic Z-matrix:
 Charge =  0 Multiplicity = 1

                         Standard orientation:
 ---------------------------------------------------------------------
 Center     Atomic      Atomic             Coordinates (Angstroms)
 Number     Number       Type             X           Y           Z
 ---------------------------------------------------------------------
      1          6           0        1.823240   -0.074568   -0.089919
      2          6           0        0.603590    0.347736    0.037745
      3          6           0       -0.590313   -0.436485    0.066534
      4          6           0       -1.813087    0.110981   -0.074803
      5          1           0        2.604569    0.603257    0.054182
      6          1           0        2.016017   -1.176096   -0.091805
      7          1           0        0.410693    1.475720    0.341713
      8          1           0       -0.492111   -1.508969    0.216441
      9          1           0       -1.825950    1.259604   -0.166876
     10          1           0       -2.853797   -0.339496    0.009005
 ---------------------------------------------------------------------

 SCF Done:  E(RB2PLYPD3) =  -155.678176268     A.U. after   12 cycles
 E2(B2PLYPD3) =    -0.2270724141D+00 E(B2PLYPD3) =    -0.15590524868228D+03

 The electronic state is 1-A.
 Alpha  occ. eigenvalues --  -10.63188 -10.62791 -10.62700 -10.60902  -0.93611
 Alpha  occ. eigenvalues --   -0.85090  -0.69777  -0.62676  -0.54904  -0.53182
 Alpha  occ. eigenvalues --   -0.47644  -0.43570  -0.40822  -0.37428  -0.28180
 Alpha virt. eigenvalues --    0.01612   0.06733   0.07207   0.07746   0.09784
 Alpha virt. eigenvalues --    0.11406   0.12490   0.14256   0.15324   0.16556
 Alpha virt. eigenvalues --    0.18839   0.19657   0.21065   0.21922   0.23865

 Mulliken charges:
               1
     1  C   -0.174933
     2  C   -0.005880
     3  C   -0.045216
     4  C   -0.152444
     5  H    0.090449
     6  H    0.060320
     7  H    0.039762
     8  H    0.055161
     9  H    0.044868
    10  H    0.087912
 Sum of Mulliken charges =   0.00000

 Dipole moment (field-independent basis, Debye):
    X=             -0.0632    Y=             -0.0826    Z=              0.3983  Tot=              0.4116
 Quadrupole moment (field-independent basis, Debye-Ang):
   XX=            -23.3942   YY=            -23.6573   ZZ=            -29.1813
   XY=             -0.0394   XZ=              0.2819   YZ=              0.0642

 1\1\GINC-NODE17\SP\RB2PLYPD3-FC\def2QZVP\C4H6\BOITTIER\26-Aug-2020\0\\
 #p B2PLYPD3/Def2QZVP\\butadiene\\0,1\C,0,-3.829927,0.183844,-0.058381\
 C,0,-2.70728,-0.450433,0.081409\C,0,-1.390066,0.102874,0.087304\C,0,-0
 .288662,-0.662658,-0.038156\H,0,-4.721147,-0.33537,0.105417\H,0,-3.818
 235,1.301541,-0.092264\H,0,-2.722059,-1.585525,0.418015\H,0,-1.289881,
 1.179078,0.205987\H,0,-0.486347,-1.796439,-0.09681\H,0,0.817265,-0.407
 766,0.032446\\Version=ES64L-G09RevD.01\State=1-A\HF=-155.6781763\MP2=-
 155.9052487\RMSD=4.368e-09\PG=C01 [X(C4H6)]\\@

 Normal termination of Gaussian 09 at Wed Aug 26 14:58:27 2020.
