 Gaussian 09, Revision D.01,
 Gaussian 09:  ES64L-G09RevD.01 24-Apr-2013

 --------------------
 #p B2PLYPD3/Def2QZVP
 --------------------

 ---------
 butadiene
 ---------
 Symbolic Z-matrix:
 Charge =  0 Multiplicity = 1

                         Standard orientation:
 ---------------------------------------------------------------------
 Center     Atomic      Atomic             Coordinates (Angstroms)
 Number     Number       Type             X           Y           Z
 ---------------------------------------------------------------------
      1          6           0        1.853795    0.113304   -0.057100
      2          6           0        0.637028   -0.440011    0.064422
      3          6           0       -0.605448    0.393889   -0.008669
      4          6           0       -1.881194   -0.110919   -0.011059
      5          1           0        2.823247   -0.430587   -0.107876
      6          1           0        1.946272    1.196679    0.226490
      7          1           0        0.515328   -1.469846   -0.039395
      8          1           0       -0.424351    1.504319    0.020408
      9          1           0       -2.174265   -1.072967    0.106106
     10          1           0       -2.711317    0.534815   -0.131295
 ---------------------------------------------------------------------

 SCF Done:  E(RB2PLYPD3) =  -155.681170511     A.U. after   12 cycles
 E2(B2PLYPD3) =    -0.2272248118D+00 E(B2PLYPD3) =    -0.15590839532263D+03

 The electronic state is 1-A.
 Alpha  occ. eigenvalues --  -10.64151 -10.62810 -10.62500 -10.61180  -0.92064
 Alpha  occ. eigenvalues --   -0.84527  -0.70372  -0.64527  -0.54838  -0.53129
 Alpha  occ. eigenvalues --   -0.46959  -0.45437  -0.41027  -0.37206  -0.27523
 Alpha virt. eigenvalues --    0.01144   0.06941   0.07457   0.08145   0.08566
 Alpha virt. eigenvalues --    0.11526   0.12584   0.14646   0.15528   0.16647
 Alpha virt. eigenvalues --    0.18809   0.19508   0.21886   0.22841   0.23752

 Mulliken charges:
               1
     1  C   -0.160565
     2  C   -0.044046
     3  C   -0.036793
     4  C   -0.178100
     5  H    0.077959
     6  H    0.057808
     7  H    0.073325
     8  H    0.057689
     9  H    0.073622
    10  H    0.079100
 Sum of Mulliken charges =   0.00000

 Dipole moment (field-independent basis, Debye):
    X=             -0.0027    Y=             -0.1114    Z=              0.1157  Tot=              0.1607
 Quadrupole moment (field-independent basis, Debye-Ang):
   XX=            -23.0717   YY=            -23.3886   ZZ=            -29.3500
   XY=              0.3599   XZ=              0.1409   YZ=              0.2296

 1\1\GINC-NODE05\SP\RB2PLYPD3-FC\def2QZVP\C4H6\BOITTIER\26-Aug-2020\0\\
 #p B2PLYPD3/Def2QZVP\\butadiene\\0,1\C,0,-3.854263,0.233617,0.068332\C
 ,0,-2.756035,-0.532509,-0.023275\C,0,-1.3846,0.069205,0.01654\C,0,-0.2
 19156,-0.654117,0.046733\H,0,-4.904851,-0.126031,0.140104\H,0,-3.75355
 2,1.302121,-0.264582\H,0,-2.819239,-1.561758,0.127729\H,0,-1.365162,1.
 191649,-0.063694\H,0,-0.102623,-1.657295,-0.025445\H,0,0.713216,-0.161
 777,0.140634\\Version=ES64L-G09RevD.01\State=1-A\HF=-155.6811705\MP2=-
 155.9083953\RMSD=2.835e-09\PG=C01 [X(C4H6)]\\@

 Normal termination of Gaussian 09 at Wed Aug 26 15:06:22 2020.
