 Gaussian 09, Revision D.01,
 Gaussian 09:  ES64L-G09RevD.01 24-Apr-2013

 --------------------
 #p B2PLYPD3/Def2QZVP
 --------------------

 ---------
 butadiene
 ---------
 Symbolic Z-matrix:
 Charge =  0 Multiplicity = 1

                         Standard orientation:
 ---------------------------------------------------------------------
 Center     Atomic      Atomic             Coordinates (Angstroms)
 Number     Number       Type             X           Y           Z
 ---------------------------------------------------------------------
      1          6           0       -1.851667    0.071885   -0.037348
      2          6           0       -0.583680   -0.376409    0.025685
      3          6           0        0.583125    0.430447    0.015410
      4          6           0        1.820584   -0.118203    0.001507
      5          1           0       -2.648448   -0.616637   -0.002080
      6          1           0       -2.025558    1.170595   -0.156234
      7          1           0       -0.299087   -1.419898    0.250265
      8          1           0        0.467200    1.569343    0.212486
      9          1           0        1.992712   -1.227928   -0.234175
     10          1           0        2.703004    0.478210   -0.101779
 ---------------------------------------------------------------------

 SCF Done:  E(RB2PLYPD3) =  -155.683857692     A.U. after   11 cycles
 E2(B2PLYPD3) =    -0.2279203643D+00 E(B2PLYPD3) =    -0.15591177805630D+03

 The electronic state is 1-A.
 Alpha  occ. eigenvalues --  -10.63439 -10.62590 -10.62398 -10.61915  -0.93272
 Alpha  occ. eigenvalues --   -0.84331  -0.70633  -0.62694  -0.54984  -0.52756
 Alpha  occ. eigenvalues --   -0.46570  -0.44936  -0.41269  -0.37703  -0.27401
 Alpha virt. eigenvalues --    0.00986   0.06920   0.07206   0.07828   0.09226
 Alpha virt. eigenvalues --    0.11588   0.12296   0.14725   0.15266   0.15850
 Alpha virt. eigenvalues --    0.18610   0.19854   0.21341   0.22988   0.23436

 Mulliken charges:
               1
     1  C   -0.189915
     2  C   -0.023091
     3  C   -0.029996
     4  C   -0.172446
     5  H    0.096195
     6  H    0.070687
     7  H    0.056261
     8  H    0.053424
     9  H    0.055487
    10  H    0.083393
 Sum of Mulliken charges =   0.00000

 Dipole moment (field-independent basis, Debye):
    X=              0.0298    Y=              0.0228    Z=             -0.0166  Tot=              0.0410
 Quadrupole moment (field-independent basis, Debye-Ang):
   XX=            -23.7770   YY=            -23.3538   ZZ=            -29.3018
   XY=             -0.2265   XZ=             -0.4306   YZ=              0.0146

 1\1\GINC-NODE26\SP\RB2PLYPD3-FC\def2QZVP\C4H6\BOITTIER\26-Aug-2020\0\\
 #p B2PLYPD3/Def2QZVP\\butadiene\\0,1\C,0,-3.852745,0.208096,-0.010869\
 C,0,-2.693572,-0.473186,0.059162\C,0,-1.394088,0.095284,0.032006\C,0,-
 0.284442,-0.680073,0.027073\H,0,-4.76629,-0.314551,0.038554\H,0,-3.813
 933,1.317385,-0.150542\H,0,-2.612653,-1.547495,0.303316\H,0,-1.289156,
 1.238783,0.207397\H,0,-0.328819,-1.806409,-0.187543\H,0,0.695218,-0.26
 5458,-0.088698\\Version=ES64L-G09RevD.01\State=1-A\HF=-155.6838577\MP2
 =-155.9117781\RMSD=3.295e-09\PG=C01 [X(C4H6)]\\@

 Normal termination of Gaussian 09 at Wed Aug 26 15:14:41 2020.
