 Gaussian 09, Revision D.01,
 Gaussian 09:  ES64L-G09RevD.01 24-Apr-2013

 --------------------
 #p B2PLYPD3/Def2QZVP
 --------------------

 ---------
 butadiene
 ---------
 Symbolic Z-matrix:
 Charge =  0 Multiplicity = 1

                         Standard orientation:
 ---------------------------------------------------------------------
 Center     Atomic      Atomic             Coordinates (Angstroms)
 Number     Number       Type             X           Y           Z
 ---------------------------------------------------------------------
      1          6           0        1.826454   -0.127344    0.032614
      2          6           0        0.606573    0.423147   -0.035798
      3          6           0       -0.594181   -0.379359   -0.030003
      4          6           0       -1.827522    0.085981    0.021393
      5          1           0        2.738906    0.499510    0.051413
      6          1           0        1.945177   -1.236050    0.089246
      7          1           0        0.474020    1.498410   -0.166280
      8          1           0       -0.465440   -1.444934   -0.097825
      9          1           0       -1.965725    1.167083    0.195566
     10          1           0       -2.794880   -0.498570   -0.001355
 ---------------------------------------------------------------------

 SCF Done:  E(RB2PLYPD3) =  -155.694910530     A.U. after   11 cycles
 E2(B2PLYPD3) =    -0.2262817872D+00 E(B2PLYPD3) =    -0.15592119231744D+03

 The electronic state is 1-A.
 Alpha  occ. eigenvalues --  -10.62770 -10.62355 -10.62117 -10.61880  -0.93285
 Alpha  occ. eigenvalues --   -0.84745  -0.69499  -0.63988  -0.54384  -0.53451
 Alpha  occ. eigenvalues --   -0.46891  -0.44665  -0.40820  -0.38240  -0.27783
 Alpha virt. eigenvalues --    0.01779   0.06999   0.07321   0.07873   0.09537
 Alpha virt. eigenvalues --    0.11596   0.12450   0.14395   0.15644   0.16282
 Alpha virt. eigenvalues --    0.18739   0.20208   0.21497   0.22519   0.23460

 Mulliken charges:
               1
     1  C   -0.172095
     2  C   -0.040258
     3  C   -0.021308
     4  C   -0.170672
     5  H    0.085429
     6  H    0.066531
     7  H    0.061153
     8  H    0.054465
     9  H    0.053420
    10  H    0.083336
 Sum of Mulliken charges =   0.00000

 Dipole moment (field-independent basis, Debye):
    X=              0.0352    Y=             -0.0029    Z=              0.0171  Tot=              0.0393
 Quadrupole moment (field-independent basis, Debye-Ang):
   XX=            -23.4494   YY=            -23.3305   ZZ=            -29.2708
   XY=              0.0071   XZ=             -0.0658   YZ=              0.0504

 1\1\GINC-NODE19\SP\RB2PLYPD3-FC\def2QZVP\C4H6\BOITTIER\26-Aug-2020\0\\
 #p B2PLYPD3/Def2QZVP\\butadiene\\0,1\C,0,-3.824525,0.237978,0.049234\C
 ,0,-2.723088,-0.523755,-0.000074\C,0,-1.398042,0.050633,-0.013937\C,0,
 -0.267827,-0.626341,0.054116\H,0,-4.834419,-0.214583,0.083449\H,0,-3.7
 42684,1.351184,0.073821\H,0,-2.785514,-1.608662,-0.099398\H,0,-1.33408
 2,1.119656,-0.112547\H,0,-0.325,-1.709284,0.259503\H,0,0.788502,-0.225
 325,0.017314\\Version=ES64L-G09RevD.01\State=1-A\HF=-155.6949105\MP2=-
 155.9211923\RMSD=6.766e-09\PG=C01 [X(C4H6)]\\@

 Normal termination of Gaussian 09 at Wed Aug 26 11:08:37 2020.
