 Gaussian 09, Revision D.01,
 Gaussian 09:  ES64L-G09RevD.01 24-Apr-2013

 --------------------
 #p B2PLYPD3/Def2QZVP
 --------------------

 ---------
 butadiene
 ---------
 Symbolic Z-matrix:
 Charge =  0 Multiplicity = 1

                         Standard orientation:
 ---------------------------------------------------------------------
 Center     Atomic      Atomic             Coordinates (Angstroms)
 Number     Number       Type             X           Y           Z
 ---------------------------------------------------------------------
      1          6           0       -1.807474   -0.139398    0.082627
      2          6           0       -0.585911    0.441219   -0.087120
      3          6           0        0.602475   -0.394441   -0.073102
      4          6           0        1.840584    0.110093    0.068793
      5          1           0       -2.743195    0.439000    0.211734
      6          1           0       -1.974573   -1.199163   -0.116100
      7          1           0       -0.648614    1.502952   -0.161114
      8          1           0        0.433806   -1.462688   -0.034195
      9          1           0        1.883896    1.149888    0.072891
     10          1           0        2.750635   -0.534827    0.079594
 ---------------------------------------------------------------------

 SCF Done:  E(RB2PLYPD3) =  -155.686282455     A.U. after   11 cycles
 E2(B2PLYPD3) =    -0.2272127236D+00 E(B2PLYPD3) =    -0.15591349517823D+03

 The electronic state is 1-A.
 Alpha  occ. eigenvalues --  -10.62921 -10.62776 -10.62096 -10.61395  -0.92981
 Alpha  occ. eigenvalues --   -0.84505  -0.69546  -0.64737  -0.54695  -0.53563
 Alpha  occ. eigenvalues --   -0.45744  -0.45288  -0.42349  -0.37592  -0.27099
 Alpha virt. eigenvalues --    0.01373   0.07029   0.07529   0.07885   0.08909
 Alpha virt. eigenvalues --    0.11686   0.12572   0.14360   0.15697   0.16626
 Alpha virt. eigenvalues --    0.18751   0.19693   0.21059   0.23627   0.24131

 Mulliken charges:
               1
     1  C   -0.174420
     2  C   -0.044166
     3  C   -0.027801
     4  C   -0.178085
     5  H    0.070254
     6  H    0.065963
     7  H    0.066180
     8  H    0.062998
     9  H    0.070534
    10  H    0.088543
 Sum of Mulliken charges =   0.00000

 Dipole moment (field-independent basis, Debye):
    X=             -0.0956    Y=              0.0223    Z=             -0.0873  Tot=              0.1314
 Quadrupole moment (field-independent basis, Debye-Ang):
   XX=            -23.7356   YY=            -23.0894   ZZ=            -29.3266
   XY=             -0.2389   XZ=              0.0816   YZ=              0.1240

 1\1\GINC-NODE06\SP\RB2PLYPD3-FC\def2QZVP\C4H6\BOITTIER\26-Aug-2020\0\\
 #p B2PLYPD3/Def2QZVP\\butadiene\\0,1\C,0,-3.813365,0.236427,-0.063683\
 C,0,-2.710589,-0.54248,0.124291\C,0,-1.395069,0.072894,0.085488\C,0,-0
 .264255,-0.643367,-0.040341\H,0,-4.836018,-0.173982,-0.175631\H,0,-3.7
 92673,1.314587,0.102627\H,0,-2.956619,-1.574406,0.230514\H,0,-1.375582
 ,1.152536,0.014016\H,0,-0.402445,-1.674488,-0.012785\H,0,0.74402,-0.16
 7219,-0.070273\\Version=ES64L-G09RevD.01\State=1-A\HF=-155.6862825\MP2
 =-155.9134952\RMSD=7.755e-09\PG=C01 [X(C4H6)]\\@

 Normal termination of Gaussian 09 at Wed Aug 26 11:28:23 2020.
