 Gaussian 09, Revision D.01,
 Gaussian 09:  ES64L-G09RevD.01 24-Apr-2013

 --------------------
 #p B2PLYPD3/Def2QZVP
 --------------------

 ---------
 butadiene
 ---------
 Symbolic Z-matrix:
 Charge =  0 Multiplicity = 1

                         Standard orientation:
 ---------------------------------------------------------------------
 Center     Atomic      Atomic             Coordinates (Angstroms)
 Number     Number       Type             X           Y           Z
 ---------------------------------------------------------------------
      1          6           0        1.822528   -0.149299   -0.036393
      2          6           0        0.590227    0.476909   -0.047049
      3          6           0       -0.574488   -0.369630   -0.021997
      4          6           0       -1.822503    0.051848    0.019063
      5          1           0        2.741147    0.441885    0.246394
      6          1           0        1.931030   -1.224785    0.047714
      7          1           0        0.478001    1.565291    0.092362
      8          1           0       -0.430234   -1.493981    0.103159
      9          1           0       -2.067004    1.164571    0.012569
     10          1           0       -2.747522   -0.511953    0.016056
 ---------------------------------------------------------------------

 SCF Done:  E(RB2PLYPD3) =  -155.682275573     A.U. after   12 cycles
 E2(B2PLYPD3) =    -0.2281388654D+00 E(B2PLYPD3) =    -0.15591041443797D+03

 The electronic state is 1-A.
 Alpha  occ. eigenvalues --  -10.63820 -10.62906 -10.62797 -10.61774  -0.93004
 Alpha  occ. eigenvalues --   -0.84162  -0.69729  -0.63589  -0.54550  -0.53080
 Alpha  occ. eigenvalues --   -0.46572  -0.44141  -0.40827  -0.37996  -0.27346
 Alpha virt. eigenvalues --    0.01064   0.06950   0.07055   0.07813   0.09099
 Alpha virt. eigenvalues --    0.11497   0.12549   0.14444   0.15688   0.16464
 Alpha virt. eigenvalues --    0.18745   0.19506   0.21942   0.23033   0.23545

 Mulliken charges:
               1
     1  C   -0.162472
     2  C   -0.043185
     3  C   -0.017459
     4  C   -0.165590
     5  H    0.070668
     6  H    0.068595
     7  H    0.071472
     8  H    0.050032
     9  H    0.041403
    10  H    0.086536
 Sum of Mulliken charges =   0.00000

 Dipole moment (field-independent basis, Debye):
    X=             -0.0748    Y=             -0.0045    Z=              0.4207  Tot=              0.4273
 Quadrupole moment (field-independent basis, Debye-Ang):
   XX=            -23.7702   YY=            -23.2425   ZZ=            -29.4260
   XY=             -0.2683   XZ=              0.7940   YZ=              0.0836

 1\1\GINC-NODE19\SP\RB2PLYPD3-FC\def2QZVP\C4H6\BOITTIER\26-Aug-2020\0\\
 #p B2PLYPD3/Def2QZVP\\butadiene\\0,1\C,0,-3.812686,0.2708,0.00328\C,0,
 -2.718742,-0.574246,0.003734\C,0,-1.416551,0.040657,0.000627\C,0,-0.26
 8542,-0.604926,0.047204\H,0,-4.822594,-0.131333,0.306108\H,0,-3.718166
 ,1.349448,0.058964\H,0,-2.809868,-1.660547,0.171814\H,0,-1.347661,1.17
 5011,0.096198\H,0,-0.235642,-1.74352,0.069474\H,0,0.745229,-0.223737,0
 .024758\\Version=ES64L-G09RevD.01\State=1-A\HF=-155.6822756\MP2=-155.9
 104144\RMSD=3.377e-09\PG=C01 [X(C4H6)]\\@

 Normal termination of Gaussian 09 at Wed Aug 26 12:25:24 2020.
