 Gaussian 09, Revision D.01,
 Gaussian 09:  ES64L-G09RevD.01 24-Apr-2013

 --------------------
 #p B2PLYPD3/Def2QZVP
 --------------------

 ---------
 butadiene
 ---------
 Symbolic Z-matrix:
 Charge =  0 Multiplicity = 1

                         Standard orientation:
 ---------------------------------------------------------------------
 Center     Atomic      Atomic             Coordinates (Angstroms)
 Number     Number       Type             X           Y           Z
 ---------------------------------------------------------------------
      1          6           0        1.833402   -0.094827    0.023401
      2          6           0        0.580409    0.387635   -0.022983
      3          6           0       -0.601673   -0.419771   -0.022982
      4          6           0       -1.817993    0.109141    0.013722
      5          1           0        2.620472    0.563018   -0.080761
      6          1           0        2.072378   -1.132790    0.112884
      7          1           0        0.395288    1.428916   -0.018570
      8          1           0       -0.430950   -1.474672   -0.045030
      9          1           0       -1.894311    1.212910    0.102639
     10          1           0       -2.727741   -0.490448   -0.018105
 ---------------------------------------------------------------------

 SCF Done:  E(RB2PLYPD3) =  -155.696368003     A.U. after   11 cycles
 E2(B2PLYPD3) =    -0.2254820961D+00 E(B2PLYPD3) =    -0.15592185009958D+03

 The electronic state is 1-A.
 Alpha  occ. eigenvalues --  -10.62001 -10.61898 -10.61754 -10.60822  -0.93552
 Alpha  occ. eigenvalues --   -0.84918  -0.70648  -0.64600  -0.54992  -0.53938
 Alpha  occ. eigenvalues --   -0.46851  -0.45996  -0.41526  -0.38243  -0.27443
 Alpha virt. eigenvalues --    0.01611   0.07047   0.07429   0.08234   0.09669
 Alpha virt. eigenvalues --    0.11796   0.12468   0.14917   0.15830   0.16077
 Alpha virt. eigenvalues --    0.18680   0.20425   0.21710   0.22762   0.24223

 Mulliken charges:
               1
     1  C   -0.186837
     2  C   -0.027492
     3  C   -0.025414
     4  C   -0.174679
     5  H    0.086320
     6  H    0.068504
     7  H    0.055667
     8  H    0.055931
     9  H    0.059566
    10  H    0.088434
 Sum of Mulliken charges =   0.00000

 Dipole moment (field-independent basis, Debye):
    X=             -0.0149    Y=             -0.0340    Z=              0.0178  Tot=              0.0412
 Quadrupole moment (field-independent basis, Debye-Ang):
   XX=            -23.6071   YY=            -23.0972   ZZ=            -29.1229
   XY=             -0.2148   XZ=             -0.1194   YZ=             -0.0282

 1\1\GINC-NODE07\SP\RB2PLYPD3-FC\def2QZVP\C4H6\BOITTIER\26-Aug-2020\0\\
 #p B2PLYPD3/Def2QZVP\\butadiene\\0,1\C,0,-3.83632,0.220842,0.041017\C,
 0,-2.696133,-0.489158,0.012975\C,0,-1.38366,0.081943,-0.00896\C,0,-0.2
 87936,-0.664209,0.04739\H,0,-4.733084,-0.280703,-0.044754\H,0,-3.87620
 1,1.287469,0.097581\H,0,-2.709472,-1.546036,0.050221\H,0,-1.353682,1.1
 48947,-0.064218\H,0,-0.419591,-1.759419,0.170752\H,0,0.717973,-0.24707
 4,-0.000626\\Version=ES64L-G09RevD.01\State=1-A\HF=-155.696368\MP2=-15
 5.9218501\RMSD=7.175e-09\PG=C01 [X(C4H6)]\\@

 Normal termination of Gaussian 09 at Wed Aug 26 09:30:28 2020.
