 Gaussian 09, Revision D.01,
 Gaussian 09:  ES64L-G09RevD.01 24-Apr-2013

 --------------------
 #p B2PLYPD3/Def2QZVP
 --------------------

 ---------
 butadiene
 ---------
 Symbolic Z-matrix:
 Charge =  0 Multiplicity = 1

                         Standard orientation:
 ---------------------------------------------------------------------
 Center     Atomic      Atomic             Coordinates (Angstroms)
 Number     Number       Type             X           Y           Z
 ---------------------------------------------------------------------
      1          6           0        1.826064   -0.116941    0.001941
      2          6           0        0.617435    0.424414   -0.034941
      3          6           0       -0.597744   -0.386520   -0.018504
      4          6           0       -1.832158    0.100993    0.025645
      5          1           0        2.753650    0.439597    0.058902
      6          1           0        1.831118   -1.247163    0.112932
      7          1           0        0.484411    1.539734    0.004839
      8          1           0       -0.434058   -1.467278   -0.058953
      9          1           0       -2.043653    1.170000    0.042667
     10          1           0       -2.673050   -0.566570   -0.005237
 ---------------------------------------------------------------------

 SCF Done:  E(RB2PLYPD3) =  -155.696250864     A.U. after   11 cycles
 E2(B2PLYPD3) =    -0.2260654581D+00 E(B2PLYPD3) =    -0.15592231632216D+03

 The electronic state is 1-A.
 Alpha  occ. eigenvalues --  -10.62812 -10.62572 -10.61967 -10.61370  -0.93051
 Alpha  occ. eigenvalues --   -0.85035  -0.69622  -0.63410  -0.54819  -0.53361
 Alpha  occ. eigenvalues --   -0.46939  -0.44789  -0.40778  -0.38229  -0.27930
 Alpha virt. eigenvalues --    0.01994   0.07020   0.07156   0.08028   0.09499
 Alpha virt. eigenvalues --    0.11683   0.12453   0.14475   0.15721   0.16169
 Alpha virt. eigenvalues --    0.18642   0.20383   0.21333   0.22660   0.24053

 Mulliken charges:
               1
     1  C   -0.166245
     2  C   -0.026246
     3  C   -0.026044
     4  C   -0.177977
     5  H    0.092343
     6  H    0.052399
     7  H    0.047946
     8  H    0.050362
     9  H    0.067706
    10  H    0.085756
 Sum of Mulliken charges =   0.00000

 Dipole moment (field-independent basis, Debye):
    X=              0.0007    Y=              0.0465    Z=              0.1065  Tot=              0.1162
 Quadrupole moment (field-independent basis, Debye-Ang):
   XX=            -23.5897   YY=            -23.1900   ZZ=            -29.3072
   XY=              0.0650   XZ=              0.3643   YZ=              0.0368

 1\1\GINC-NODE17\SP\RB2PLYPD3-FC\def2QZVP\C4H6\BOITTIER\26-Aug-2020\0\\
 #p B2PLYPD3/Def2QZVP\\butadiene\\0,1\C,0,-3.82572,0.228815,0.027731\C,
 0,-2.733667,-0.520938,0.00537\C,0,-1.392954,0.059548,-0.00279\C,0,-0.2
 65407,-0.639579,0.054265\H,0,-4.837532,-0.150883,0.101633\H,0,-3.62784
 6,1.344371,0.106009\H,0,-2.802052,-1.64048,0.077248\H,0,-1.360922,1.15
 0569,-0.074309\H,0,-0.248442,-1.728262,0.101981\H,0,0.681129,-0.134439
 ,0.003304\\Version=ES64L-G09RevD.01\State=1-A\HF=-155.6962509\MP2=-155
 .9223163\RMSD=5.205e-09\PG=C01 [X(C4H6)]\\@

 Normal termination of Gaussian 09 at Wed Aug 26 09:00:11 2020.
