 Gaussian 09, Revision D.01,
 Gaussian 09:  ES64L-G09RevD.01 24-Apr-2013

 --------------------
 #p B2PLYPD3/Def2QZVP
 --------------------

 ---------
 butadiene
 ---------
 Symbolic Z-matrix:
 Charge =  0 Multiplicity = 1

                         Standard orientation:
 ---------------------------------------------------------------------
 Center     Atomic      Atomic             Coordinates (Angstroms)
 Number     Number       Type             X           Y           Z
 ---------------------------------------------------------------------
      1          6           0       -1.845241   -0.136644   -0.043680
      2          6           0       -0.618277    0.425535    0.040886
      3          6           0        0.615089   -0.387383    0.018310
      4          6           0        1.848359    0.099485   -0.022058
      5          1           0       -2.707000    0.539398   -0.023296
      6          1           0       -1.989465   -1.179353   -0.094096
      7          1           0       -0.523274    1.492777    0.164512
      8          1           0        0.423982   -1.449287    0.173089
      9          1           0        2.104827    1.172520   -0.161255
     10          1           0        2.691345   -0.582009   -0.019701
 ---------------------------------------------------------------------

 SCF Done:  E(RB2PLYPD3) =  -155.696856603     A.U. after   11 cycles
 E2(B2PLYPD3) =    -0.2260247491D+00 E(B2PLYPD3) =    -0.15592288135235D+03

 The electronic state is 1-A.
 Alpha  occ. eigenvalues --  -10.62791 -10.62655 -10.61733 -10.61613  -0.92534
 Alpha  occ. eigenvalues --   -0.84803  -0.69892  -0.64055  -0.54181  -0.53829
 Alpha  occ. eigenvalues --   -0.46664  -0.46088  -0.40764  -0.37496  -0.27813
 Alpha virt. eigenvalues --    0.01798   0.07039   0.07421   0.07957   0.09320
 Alpha virt. eigenvalues --    0.11621   0.12253   0.14842   0.15660   0.15925
 Alpha virt. eigenvalues --    0.18822   0.20275   0.21445   0.22677   0.23759

 Mulliken charges:
               1
     1  C   -0.179917
     2  C   -0.040738
     3  C   -0.035415
     4  C   -0.175494
     5  H    0.083295
     6  H    0.074213
     7  H    0.062863
     8  H    0.060103
     9  H    0.069115
    10  H    0.081975
 Sum of Mulliken charges =   0.00000

 Dipole moment (field-independent basis, Debye):
    X=             -0.0101    Y=              0.0035    Z=              0.0628  Tot=              0.0637
 Quadrupole moment (field-independent basis, Debye-Ang):
   XX=            -23.7045   YY=            -22.9901   ZZ=            -29.2917
   XY=              0.3077   XZ=             -0.1453   YZ=             -0.0852

 1\1\GINC-NODE22\SP\RB2PLYPD3-FC\def2QZVP\C4H6\BOITTIER\26-Aug-2020\0\\
 #p B2PLYPD3/Def2QZVP\\butadiene\\0,1\C,0,-3.842976,0.250495,0.05569\C,
 0,-2.736535,-0.524493,-0.0061\C,0,-1.377623,0.055072,-0.005802\C,0,-0.
 251211,-0.642885,0.05483\H,0,-4.811789,-0.260853,0.054412\H,0,-3.79828
 1,1.303272,0.071434\H,0,-2.83422,-1.594997,-0.094385\H,0,-1.376113,1.1
 28369,-0.195936\H,0,-0.190443,-1.739327,0.229985\H,0,0.700052,-0.12356
 6,0.033135\\Version=ES64L-G09RevD.01\State=1-A\HF=-155.6968566\MP2=-15
 5.9228814\RMSD=7.338e-09\PG=C01 [X(C4H6)]\\@

 Normal termination of Gaussian 09 at Wed Aug 26 08:54:55 2020.
