 Gaussian 09, Revision D.01,
 Gaussian 09:  ES64L-G09RevD.01 24-Apr-2013

 --------------------
 #p B2PLYPD3/Def2QZVP
 --------------------

 ---------
 butadiene
 ---------
 Symbolic Z-matrix:
 Charge =  0 Multiplicity = 1

                         Standard orientation:
 ---------------------------------------------------------------------
 Center     Atomic      Atomic             Coordinates (Angstroms)
 Number     Number       Type             X           Y           Z
 ---------------------------------------------------------------------
      1          6           0       -1.792986    0.128357    0.036187
      2          6           0       -0.602429   -0.431944   -0.028092
      3          6           0        0.565890    0.334013   -0.063347
      4          6           0        1.805908   -0.073584    0.004582
      5          1           0       -2.719820   -0.421567    0.193577
      6          1           0       -1.895736    1.225521   -0.032276
      7          1           0       -0.464906   -1.439687   -0.164928
      8          1           0        0.495952    1.419774   -0.047511
      9          1           0        2.055634   -1.119270    0.135141
     10          1           0        2.670577    0.594182    0.220020
 ---------------------------------------------------------------------

 SCF Done:  E(RB2PLYPD3) =  -155.687894329     A.U. after   11 cycles
 E2(B2PLYPD3) =    -0.2252344084D+00 E(B2PLYPD3) =    -0.15591312873721D+03

 The electronic state is 1-A.
 Alpha  occ. eigenvalues --  -10.61801 -10.61437 -10.61359 -10.61038  -0.94551
 Alpha  occ. eigenvalues --   -0.85398  -0.70507  -0.64667  -0.55315  -0.54130
 Alpha  occ. eigenvalues --   -0.47222  -0.44778  -0.41085  -0.38709  -0.27742
 Alpha virt. eigenvalues --    0.01713   0.06947   0.07560   0.08005   0.09908
 Alpha virt. eigenvalues --    0.11690   0.12674   0.14721   0.15504   0.16410
 Alpha virt. eigenvalues --    0.18664   0.20335   0.21663   0.22363   0.24310

 Mulliken charges:
               1
     1  C   -0.168567
     2  C   -0.045655
     3  C   -0.004287
     4  C   -0.167583
     5  H    0.082524
     6  H    0.064744
     7  H    0.071617
     8  H    0.045653
     9  H    0.048561
    10  H    0.072993
 Sum of Mulliken charges =   0.00000

 Dipole moment (field-independent basis, Debye):
    X=             -0.1518    Y=             -0.0259    Z=              0.2075  Tot=              0.2584
 Quadrupole moment (field-independent basis, Debye-Ang):
   XX=            -23.6089   YY=            -23.3887   ZZ=            -28.8247
   XY=             -0.0431   XZ=              0.4904   YZ=              0.0296

 1\1\GINC-NODE24\SP\RB2PLYPD3-FC\def2QZVP\C4H6\BOITTIER\26-Aug-2020\0\\
 #p B2PLYPD3/Def2QZVP\\butadiene\\0,1\C,0,-3.7868,0.246181,0.052529\C,0
 ,-2.719818,-0.525115,0.006197\C,0,-1.430187,0.011529,-0.035842\C,0,-0.
 286803,-0.616263,0.047492\H,0,-4.799593,-0.120318,0.214206\H,0,-3.6852
 57,1.341948,-0.036909\H,0,-2.770117,-1.543399,-0.111061\H,0,-1.298734,
 1.091676,-0.040578\H,0,-0.234573,-1.687332,0.198992\H,0,0.685574,-0.11
 5276,0.255993\\Version=ES64L-G09RevD.01\State=1-A\HF=-155.6878943\MP2=
 -155.9131287\RMSD=7.344e-09\PG=C01 [X(C4H6)]\\@

 Normal termination of Gaussian 09 at Wed Aug 26 15:46:05 2020.
