 Gaussian 09, Revision D.01,
 Gaussian 09:  ES64L-G09RevD.01 24-Apr-2013

 --------------------
 #p B2PLYPD3/Def2QZVP
 --------------------

 ---------
 butadiene
 ---------
 Symbolic Z-matrix:
 Charge =  0 Multiplicity = 1

                         Standard orientation:
 ---------------------------------------------------------------------
 Center     Atomic      Atomic             Coordinates (Angstroms)
 Number     Number       Type             X           Y           Z
 ---------------------------------------------------------------------
      1          6           0       -1.843626   -0.172505    0.070017
      2          6           0       -0.628366    0.440084   -0.108979
      3          6           0        0.639244   -0.348325   -0.052115
      4          6           0        1.864444    0.089247    0.083675
      5          1           0       -2.721109    0.434470    0.218582
      6          1           0       -1.965179   -1.155488   -0.036616
      7          1           0       -0.600926    1.525560   -0.020633
      8          1           0        0.508033   -1.448803   -0.182473
      9          1           0        1.900686    1.195942   -0.069025
     10          1           0        2.688316   -0.602689    0.134585
 ---------------------------------------------------------------------

 SCF Done:  E(RB2PLYPD3) =  -155.679693671     A.U. after   12 cycles
 E2(B2PLYPD3) =    -0.2265526882D+00 E(B2PLYPD3) =    -0.15590624635879D+03

 The electronic state is 1-A.
 Alpha  occ. eigenvalues --  -10.63614 -10.62644 -10.61363 -10.61225  -0.92484
 Alpha  occ. eigenvalues --   -0.85369  -0.70126  -0.63589  -0.55152  -0.53525
 Alpha  occ. eigenvalues --   -0.47158  -0.45387  -0.41065  -0.37194  -0.27836
 Alpha virt. eigenvalues --    0.01599   0.07008   0.07438   0.07975   0.09136
 Alpha virt. eigenvalues --    0.11682   0.12426   0.14505   0.15561   0.16342
 Alpha virt. eigenvalues --    0.18698   0.19327   0.21510   0.23960   0.24366

 Mulliken charges:
               1
     1  C   -0.170648
     2  C   -0.054089
     3  C   -0.010089
     4  C   -0.183546
     5  H    0.080106
     6  H    0.081311
     7  H    0.058363
     8  H    0.039616
     9  H    0.062167
    10  H    0.096809
 Sum of Mulliken charges =   0.00000

 Dipole moment (field-independent basis, Debye):
    X=             -0.1752    Y=             -0.0895    Z=             -0.0734  Tot=              0.2100
 Quadrupole moment (field-independent basis, Debye-Ang):
   XX=            -23.7064   YY=            -23.1436   ZZ=            -29.2446
   XY=             -0.3824   XZ=             -0.4693   YZ=              0.1530

 1\1\GINC-NODE10\SP\RB2PLYPD3-FC\def2QZVP\C4H6\BOITTIER\26-Aug-2020\0\\
 #p B2PLYPD3/Def2QZVP\\butadiene\\0,1\C,0,-3.844852,0.259523,-0.059301\
 C,0,-2.748096,-0.540711,0.142965\C,0,-1.367213,0.024418,0.069156\C,0,-
 0.231681,-0.614179,-0.048249\H,0,-4.810955,-0.197524,-0.194284\H,0,-3.
 80152,1.251746,0.018268\H,0,-2.901245,-1.61781,0.086207\H,0,-1.313894,
 1.134754,0.166994\H,0,-0.379612,-1.706587,0.136591\H,0,0.695607,-0.070
 337,-0.115363\\Version=ES64L-G09RevD.01\State=1-A\HF=-155.6796937\MP2=
 -155.9062464\RMSD=4.160e-09\PG=C01 [X(C4H6)]\\@

 Normal termination of Gaussian 09 at Wed Aug 26 11:48:25 2020.
