 Gaussian 09, Revision D.01,
 Gaussian 09:  ES64L-G09RevD.01 24-Apr-2013

 --------------------
 #p B2PLYPD3/Def2QZVP
 --------------------

 ---------
 butadiene
 ---------
 Symbolic Z-matrix:
 Charge =  0 Multiplicity = 1

                         Standard orientation:
 ---------------------------------------------------------------------
 Center     Atomic      Atomic             Coordinates (Angstroms)
 Number     Number       Type             X           Y           Z
 ---------------------------------------------------------------------
      1          6           0       -1.854812   -0.087263   -0.044443
      2          6           0       -0.604910    0.364239    0.021711
      3          6           0        0.630114   -0.425824    0.038716
      4          6           0        1.847169    0.126519   -0.047181
      5          1           0       -2.680983    0.537273    0.050512
      6          1           0       -2.040857   -1.151228   -0.105850
      7          1           0       -0.497637    1.450724    0.132454
      8          1           0        0.459913   -1.454287    0.168680
      9          1           0        1.907061    1.219196   -0.035119
     10          1           0        2.747140   -0.467697   -0.023502
 ---------------------------------------------------------------------

 SCF Done:  E(RB2PLYPD3) =  -155.696660519     A.U. after   11 cycles
 E2(B2PLYPD3) =    -0.2255091744D+00 E(B2PLYPD3) =    -0.15592216969312D+03

 The electronic state is 1-A.
 Alpha  occ. eigenvalues --  -10.62498 -10.62436 -10.61920 -10.60881  -0.92879
 Alpha  occ. eigenvalues --   -0.85152  -0.70429  -0.64182  -0.54999  -0.53898
 Alpha  occ. eigenvalues --   -0.47543  -0.45500  -0.41095  -0.37621  -0.27893
 Alpha virt. eigenvalues --    0.01680   0.07066   0.07510   0.08105   0.09645
 Alpha virt. eigenvalues --    0.11655   0.12515   0.14625   0.15735   0.16194
 Alpha virt. eigenvalues --    0.18939   0.20340   0.21499   0.22348   0.24189

 Mulliken charges:
               1
     1  C   -0.182991
     2  C   -0.015233
     3  C   -0.047957
     4  C   -0.167595
     5  H    0.091077
     6  H    0.057700
     7  H    0.044684
     8  H    0.061915
     9  H    0.068390
    10  H    0.090011
 Sum of Mulliken charges =   0.00000

 Dipole moment (field-independent basis, Debye):
    X=              0.0412    Y=             -0.0339    Z=              0.2129  Tot=              0.2195
 Quadrupole moment (field-independent basis, Debye-Ang):
   XX=            -23.3301   YY=            -23.2632   ZZ=            -29.1790
   XY=             -0.0100   XZ=             -0.0833   YZ=              0.0822

 1\1\GINC-NODE31\SP\RB2PLYPD3-FC\def2QZVP\C4H6\BOITTIER\26-Aug-2020\0\\
 #p B2PLYPD3/Def2QZVP\\butadiene\\0,1\C,0,-3.864705,0.198909,0.05874\C,
 0,-2.714839,-0.468698,0.00782\C,0,-1.359387,0.089117,-0.029132\C,0,-0.
 25925,-0.667584,0.074728\H,0,-4.788787,-0.271703,-0.020112\H,0,-3.8590
 18,1.280305,0.089653\H,0,-2.802195,-1.559675,-0.071925\H,0,-1.344993,1
 .127383,-0.188477\H,0,-0.394028,-1.753471,0.093707\H,0,0.731721,-0.243
 227,0.035995\\Version=ES64L-G09RevD.01\State=1-A\HF=-155.6966605\MP2=-
 155.9221697\RMSD=7.824e-09\PG=C01 [X(C4H6)]\\@

 Normal termination of Gaussian 09 at Wed Aug 26 09:09:10 2020.
