 Gaussian 09, Revision D.01,
 Gaussian 09:  ES64L-G09RevD.01 24-Apr-2013

 --------------------
 #p B2PLYPD3/Def2QZVP
 --------------------

 ---------
 butadiene
 ---------
 Symbolic Z-matrix:
 Charge =  0 Multiplicity = 1

                         Standard orientation:
 ---------------------------------------------------------------------
 Center     Atomic      Atomic             Coordinates (Angstroms)
 Number     Number       Type             X           Y           Z
 ---------------------------------------------------------------------
      1          6           0        1.842074   -0.152965    0.039131
      2          6           0        0.620691    0.434953   -0.005790
      3          6           0       -0.625583   -0.340933   -0.028383
      4          6           0       -1.878026    0.070869   -0.014211
      5          1           0        2.797414    0.420459   -0.173756
      6          1           0        1.982252   -1.239127    0.219232
      7          1           0        0.726611    1.545178   -0.086038
      8          1           0       -0.460800   -1.414893   -0.192272
      9          1           0       -2.085105    1.221726    0.207510
     10          1           0       -2.715309   -0.604886    0.080844
 ---------------------------------------------------------------------

 SCF Done:  E(RB2PLYPD3) =  -155.680336676     A.U. after   11 cycles
 E2(B2PLYPD3) =    -0.2276083597D+00 E(B2PLYPD3) =    -0.15590794503560D+03

 The electronic state is 1-A.
 Alpha  occ. eigenvalues --  -10.63610 -10.63028 -10.62848 -10.62428  -0.92562
 Alpha  occ. eigenvalues --   -0.84878  -0.69302  -0.62979  -0.54307  -0.53219
 Alpha  occ. eigenvalues --   -0.46521  -0.44026  -0.40351  -0.37818  -0.27948
 Alpha virt. eigenvalues --    0.01274   0.06972   0.07316   0.07518   0.09358
 Alpha virt. eigenvalues --    0.11346   0.12155   0.14205   0.15489   0.16710
 Alpha virt. eigenvalues --    0.18865   0.19163   0.21098   0.22586   0.23132

 Mulliken charges:
               1
     1  C   -0.170101
     2  C   -0.037671
     3  C   -0.033604
     4  C   -0.162143
     5  H    0.078257
     6  H    0.063649
     7  H    0.059225
     8  H    0.058983
     9  H    0.053155
    10  H    0.090249
 Sum of Mulliken charges =   0.00000

 Dipole moment (field-independent basis, Debye):
    X=              0.1367    Y=             -0.1051    Z=              0.0369  Tot=              0.1763
 Quadrupole moment (field-independent basis, Debye-Ang):
   XX=            -23.4832   YY=            -23.4576   ZZ=            -29.3823
   XY=              0.3672   XZ=             -0.7532   YZ=             -0.0690

 1\1\GINC-NODE25\SP\RB2PLYPD3-FC\def2QZVP\C4H6\BOITTIER\26-Aug-2020\0\\
 #p B2PLYPD3/Def2QZVP\\butadiene\\0,1\C,0,-3.845855,0.250454,0.044904\C
 ,0,-2.741932,-0.537206,0.025138\C,0,-1.381903,0.015032,-0.007431\C,0,-
 0.217669,-0.602811,0.027565\H,0,-4.883942,-0.158042,-0.160804\H,0,-3.8
 00145,1.349096,0.195668\H,0,-3.034609,-1.615102,-0.027183\H,0,-1.36127
 5,1.096575,-0.200414\H,0,-0.209886,-1.76573,0.280694\H,0,0.721884,-0.0
 76642,0.111876\\Version=ES64L-G09RevD.01\State=1-A\HF=-155.6803367\MP2
 =-155.907945\RMSD=7.296e-09\PG=C01 [X(C4H6)]\\@

 Normal termination of Gaussian 09 at Wed Aug 26 15:39:52 2020.
