 Gaussian 09, Revision D.01,
 Gaussian 09:  ES64L-G09RevD.01 24-Apr-2013

 --------------------
 #p B2PLYPD3/Def2QZVP
 --------------------

 ---------
 butadiene
 ---------
 Symbolic Z-matrix:
 Charge =  0 Multiplicity = 1

                         Standard orientation:
 ---------------------------------------------------------------------
 Center     Atomic      Atomic             Coordinates (Angstroms)
 Number     Number       Type             X           Y           Z
 ---------------------------------------------------------------------
      1          6           0        1.845344   -0.099221   -0.018201
      2          6           0        0.630098    0.416762   -0.046739
      3          6           0       -0.611704   -0.402878   -0.060479
      4          6           0       -1.859732    0.115899    0.013991
      5          1           0        2.828160    0.449069    0.158129
      6          1           0        1.898152   -1.238178    0.137087
      7          1           0        0.381804    1.473145    0.182705
      8          1           0       -0.382500   -1.405368    0.032828
      9          1           0       -2.048537    1.181230   -0.039821
     10          1           0       -2.701116   -0.643278    0.197634
 ---------------------------------------------------------------------

 SCF Done:  E(RB2PLYPD3) =  -155.678099195     A.U. after   11 cycles
 E2(B2PLYPD3) =    -0.2275257516D+00 E(B2PLYPD3) =    -0.15590562494617D+03

 The electronic state is 1-A.
 Alpha  occ. eigenvalues --  -10.62991 -10.62809 -10.62804 -10.62552  -0.92729
 Alpha  occ. eigenvalues --   -0.84531  -0.69328  -0.64137  -0.53844  -0.52789
 Alpha  occ. eigenvalues --   -0.47404  -0.45175  -0.40083  -0.37245  -0.28030
 Alpha virt. eigenvalues --    0.01513   0.06891   0.07061   0.07983   0.08950
 Alpha virt. eigenvalues --    0.11731   0.12241   0.14218   0.15340   0.15961
 Alpha virt. eigenvalues --    0.18651   0.19755   0.21530   0.23016   0.23801

 Mulliken charges:
               1
     1  C   -0.158873
     2  C   -0.028615
     3  C   -0.034790
     4  C   -0.182695
     5  H    0.082756
     6  H    0.046146
     7  H    0.052401
     8  H    0.060908
     9  H    0.080374
    10  H    0.082388
 Sum of Mulliken charges =   0.00000

 Dipole moment (field-independent basis, Debye):
    X=             -0.0158    Y=              0.0105    Z=              0.5184  Tot=              0.5188
 Quadrupole moment (field-independent basis, Debye-Ang):
   XX=            -23.8575   YY=            -23.4517   ZZ=            -29.3627
   XY=             -0.3067   XZ=              0.3184   YZ=             -0.1443

 1\1\GINC-NODE35\SP\RB2PLYPD3-FC\def2QZVP\C4H6\BOITTIER\26-Aug-2020\0\\
 #p B2PLYPD3/Def2QZVP\\butadiene\\0,1\C,0,-3.848239,0.218999,0.019474\C
 ,0,-2.746345,-0.508561,0.000472\C,0,-1.37698,0.072738,-0.031178\C,0,-0
 .242877,-0.66143,0.052835\H,0,-4.913119,-0.139016,0.207882\H,0,-3.6937
 12,1.351627,0.151393\H,0,-2.691929,-1.587609,0.251338\H,0,-1.420881,1.
 101808,0.041729\H,0,-0.249882,-1.744201,0.02074\H,0,0.722641,-0.063272
 ,0.220117\\Version=ES64L-G09RevD.01\State=1-A\HF=-155.6780992\MP2=-155
 .9056249\RMSD=8.546e-09\PG=C01 [X(C4H6)]\\@

 Normal termination of Gaussian 09 at Wed Aug 26 10:28:31 2020.
