 Gaussian 09, Revision D.01,
 Gaussian 09:  ES64L-G09RevD.01 24-Apr-2013

 --------------------
 #p B2PLYPD3/Def2QZVP
 --------------------

 ---------
 butadiene
 ---------
 Symbolic Z-matrix:
 Charge =  0 Multiplicity = 1

                         Standard orientation:
 ---------------------------------------------------------------------
 Center     Atomic      Atomic             Coordinates (Angstroms)
 Number     Number       Type             X           Y           Z
 ---------------------------------------------------------------------
      1          6           0       -1.832347    0.122267    0.013847
      2          6           0       -0.567890   -0.460929   -0.010321
      3          6           0        0.589711    0.401816   -0.036970
      4          6           0        1.807722   -0.102283    0.017457
      5          1           0       -2.822911   -0.395500    0.088395
      6          1           0       -1.970585    1.177162    0.056071
      7          1           0       -0.406175   -1.552377   -0.052305
      8          1           0        0.488557    1.563240   -0.156966
      9          1           0        2.023691   -1.144046   -0.057816
     10          1           0        2.704253    0.586295    0.218546
 ---------------------------------------------------------------------

 SCF Done:  E(RB2PLYPD3) =  -155.679936194     A.U. after   12 cycles
 E2(B2PLYPD3) =    -0.2282240208D+00 E(B2PLYPD3) =    -0.15590816021438D+03

 The electronic state is 1-A.
 Alpha  occ. eigenvalues --  -10.63971 -10.63198 -10.62591 -10.61666  -0.92921
 Alpha  occ. eigenvalues --   -0.83896  -0.69756  -0.63559  -0.53784  -0.53567
 Alpha  occ. eigenvalues --   -0.45750  -0.44838  -0.41618  -0.37646  -0.26980
 Alpha virt. eigenvalues --    0.01290   0.06785   0.07089   0.07755   0.08918
 Alpha virt. eigenvalues --    0.11509   0.12561   0.14342   0.15700   0.16268
 Alpha virt. eigenvalues --    0.18510   0.20348   0.21861   0.22553   0.23698

 Mulliken charges:
               1
     1  C   -0.171346
     2  C   -0.049649
     3  C   -0.010890
     4  C   -0.177561
     5  H    0.075165
     6  H    0.067206
     7  H    0.065580
     8  H    0.058521
     9  H    0.068874
    10  H    0.074099
 Sum of Mulliken charges =   0.00000

 Dipole moment (field-independent basis, Debye):
    X=              0.0080    Y=             -0.0148    Z=              0.0444  Tot=              0.0474
 Quadrupole moment (field-independent basis, Debye-Ang):
   XX=            -23.8194   YY=            -23.0343   ZZ=            -29.5103
   XY=             -0.5153   XZ=              0.0625   YZ=              0.1245

 1\1\GINC-NODE25\SP\RB2PLYPD3-FC\def2QZVP\C4H6\BOITTIER\26-Aug-2020\0\\
 #p B2PLYPD3/Def2QZVP\\butadiene\\0,1\C,0,-3.829049,0.248322,0.0334\C,0
 ,-2.694502,-0.559314,0.024428\C,0,-1.397209,0.073384,-0.018057\C,0,-0.
 293517,-0.646264,0.049762\H,0,-4.898225,-0.075352,0.11679\H,0,-3.76947
 5,1.311228,0.052843\H,0,-2.737772,-1.662474,0.006055\H,0,-1.281757,1.2
 30623,-0.162984\H,0,-0.274331,-1.711367,-0.002831\H,0,0.715378,-0.1314
 78,0.238101\\Version=ES64L-G09RevD.01\State=1-A\HF=-155.6799362\MP2=-1
 55.9081602\RMSD=2.959e-09\PG=C01 [X(C4H6)]\\@

 Normal termination of Gaussian 09 at Wed Aug 26 14:55:38 2020.
