 Gaussian 09, Revision D.01,
 Gaussian 09:  ES64L-G09RevD.01 24-Apr-2013

 --------------------
 #p B2PLYPD3/Def2QZVP
 --------------------

 ---------
 butadiene
 ---------
 Symbolic Z-matrix:
 Charge =  0 Multiplicity = 1

                         Standard orientation:
 ---------------------------------------------------------------------
 Center     Atomic      Atomic             Coordinates (Angstroms)
 Number     Number       Type             X           Y           Z
 ---------------------------------------------------------------------
      1          6           0       -1.831021   -0.110236    0.035794
      2          6           0       -0.594424    0.389577   -0.066413
      3          6           0        0.592908   -0.430076   -0.038109
      4          6           0        1.814337    0.114211    0.048515
      5          1           0       -2.592675    0.628445    0.103944
      6          1           0       -2.021998   -1.167262    0.030117
      7          1           0       -0.435270    1.464797    0.009702
      8          1           0        0.505624   -1.484720   -0.058101
      9          1           0        1.928141    1.251235   -0.038535
     10          1           0        2.725374   -0.473352    0.074152
 ---------------------------------------------------------------------

 SCF Done:  E(RB2PLYPD3) =  -155.694438491     A.U. after   11 cycles
 E2(B2PLYPD3) =    -0.2262252291D+00 E(B2PLYPD3) =    -0.15592066371970D+03

 The electronic state is 1-A.
 Alpha  occ. eigenvalues --  -10.62342 -10.62192 -10.62070 -10.61148  -0.93231
 Alpha  occ. eigenvalues --   -0.84792  -0.69793  -0.64225  -0.54327  -0.54198
 Alpha  occ. eigenvalues --   -0.46030  -0.45482  -0.41548  -0.38195  -0.27460
 Alpha virt. eigenvalues --    0.01754   0.07006   0.07342   0.08077   0.09365
 Alpha virt. eigenvalues --    0.11794   0.12282   0.14685   0.15685   0.16238
 Alpha virt. eigenvalues --    0.18578   0.20061   0.21302   0.23148   0.24456

 Mulliken charges:
               1
     1  C   -0.184242
     2  C   -0.023325
     3  C   -0.036750
     4  C   -0.170483
     5  H    0.085168
     6  H    0.076819
     7  H    0.054641
     8  H    0.059198
     9  H    0.055035
    10  H    0.083940
 Sum of Mulliken charges =   0.00000

 Dipole moment (field-independent basis, Debye):
    X=              0.0211    Y=             -0.0653    Z=              0.0340  Tot=              0.0766
 Quadrupole moment (field-independent basis, Debye-Ang):
   XX=            -24.0470   YY=            -22.8386   ZZ=            -29.2931
   XY=              0.0076   XZ=             -0.2768   YZ=              0.0467

 1\1\GINC-NODE19\SP\RB2PLYPD3-FC\def2QZVP\C4H6\BOITTIER\26-Aug-2020\0\\
 #p B2PLYPD3/Def2QZVP\\butadiene\\0,1\C,0,-3.830856,0.223254,-0.022836\
 C,0,-2.706476,-0.49177,0.095234\C,0,-1.389299,0.096195,0.053628\C,0,-0
 .287986,-0.663987,-0.016168\H,0,-4.714738,-0.36509,-0.077752\H,0,-3.82
 535,1.297239,-0.041153\H,0,-2.746604,-1.579394,0.043404\H,0,-1.282282,
 1.149204,0.050087\H,0,-0.38398,-1.800424,0.096305\H,0,0.715119,-0.2535
 78,-0.051102\\Version=ES64L-G09RevD.01\State=1-A\HF=-155.6944385\MP2=-
 155.9206637\RMSD=7.313e-09\PG=C01 [X(C4H6)]\\@

 Normal termination of Gaussian 09 at Wed Aug 26 09:50:25 2020.
