 Gaussian 09, Revision D.01,
 Gaussian 09:  ES64L-G09RevD.01 24-Apr-2013

 --------------------
 #p B2PLYPD3/Def2QZVP
 --------------------

 ---------
 butadiene
 ---------
 Symbolic Z-matrix:
 Charge =  0 Multiplicity = 1

                         Standard orientation:
 ---------------------------------------------------------------------
 Center     Atomic      Atomic             Coordinates (Angstroms)
 Number     Number       Type             X           Y           Z
 ---------------------------------------------------------------------
      1          6           0        1.832394   -0.106408    0.016241
      2          6           0        0.590437    0.398264   -0.029682
      3          6           0       -0.602028   -0.415149   -0.013282
      4          6           0       -1.828588    0.119538    0.001923
      5          1           0        2.710133    0.546962    0.014744
      6          1           0        1.987279   -1.173545    0.049751
      7          1           0        0.458771    1.471971    0.003762
      8          1           0       -0.453322   -1.466852   -0.030710
      9          1           0       -1.989319    1.177704    0.061907
     10          1           0       -2.666829   -0.533711    0.049347
 ---------------------------------------------------------------------

 SCF Done:  E(RB2PLYPD3) =  -155.700173863     A.U. after   11 cycles
 E2(B2PLYPD3) =    -0.2257019888D+00 E(B2PLYPD3) =    -0.15592587585142D+03

 The electronic state is 1-A.
 Alpha  occ. eigenvalues --  -10.62316 -10.62196 -10.61571 -10.61213  -0.93191
 Alpha  occ. eigenvalues --   -0.84797  -0.70236  -0.64502  -0.54477  -0.54167
 Alpha  occ. eigenvalues --   -0.46548  -0.45893  -0.41537  -0.38159  -0.27460
 Alpha virt. eigenvalues --    0.01680   0.07027   0.07441   0.08123   0.09518
 Alpha virt. eigenvalues --    0.11786   0.12412   0.14854   0.15766   0.16184
 Alpha virt. eigenvalues --    0.18665   0.20334   0.21753   0.23079   0.23979

 Mulliken charges:
               1
     1  C   -0.181707
     2  C   -0.024633
     3  C   -0.034544
     4  C   -0.177688
     5  H    0.085004
     6  H    0.064991
     7  H    0.054447
     8  H    0.059151
     9  H    0.071062
    10  H    0.083917
 Sum of Mulliken charges =   0.00000

 Dipole moment (field-independent basis, Debye):
    X=             -0.0239    Y=             -0.0114    Z=              0.1106  Tot=              0.1137
 Quadrupole moment (field-independent basis, Debye-Ang):
   XX=            -23.7600   YY=            -22.9324   ZZ=            -29.2430
   XY=             -0.1540   XZ=             -0.1069   YZ=              0.0453

 1\1\GINC-NODE04\SP\RB2PLYPD3-FC\def2QZVP\C4H6\BOITTIER\26-Aug-2020\0\\
 #p B2PLYPD3/Def2QZVP\\butadiene\\0,1\C,0,-3.83537,0.224167,0.035177\C,
 0,-2.706466,-0.499834,0.009526\C,0,-1.385589,0.082496,0.001987\C,0,-0.
 277089,-0.666153,0.03839\H,0,-4.817561,-0.257809,0.053121\H,0,-3.79289
 3,1.302167,0.03259\H,0,-2.772742,-1.577821,0.079186\H,0,-1.340025,1.14
 2503,-0.050977\H,0,-0.311863,-1.733285,0.134135\H,0,0.666401,-0.175559
 ,0.066244\\Version=ES64L-G09RevD.01\State=1-A\HF=-155.7001739\MP2=-155
 .9258759\RMSD=4.804e-09\PG=C01 [X(C4H6)]\\@

 Normal termination of Gaussian 09 at Wed Aug 26 21:25:03 2020.
