 Gaussian 09, Revision D.01,
 Gaussian 09:  ES64L-G09RevD.01 24-Apr-2013

 --------------------
 #p B2PLYPD3/Def2QZVP
 --------------------

 ---------
 butadiene
 ---------
 Symbolic Z-matrix:
 Charge =  0 Multiplicity = 1

                         Standard orientation:
 ---------------------------------------------------------------------
 Center     Atomic      Atomic             Coordinates (Angstroms)
 Number     Number       Type             X           Y           Z
 ---------------------------------------------------------------------
      1          6           0        1.850291   -0.087575    0.083742
      2          6           0        0.608473    0.349006   -0.088245
      3          6           0       -0.626540   -0.461789   -0.095001
      4          6           0       -1.836130    0.165164    0.045171
      5          1           0        2.754439    0.541444   -0.007686
      6          1           0        2.004932   -1.099745    0.068449
      7          1           0        0.418924    1.493013    0.070836
      8          1           0       -0.629980   -1.554455   -0.031275
      9          1           0       -1.827258    1.300560   -0.027197
     10          1           0       -2.697623   -0.469650    0.252868
 ---------------------------------------------------------------------

 SCF Done:  E(RB2PLYPD3) =  -155.678698684     A.U. after   12 cycles
 E2(B2PLYPD3) =    -0.2279372310D+00 E(B2PLYPD3) =    -0.15590663591501D+03

 The electronic state is 1-A.
 Alpha  occ. eigenvalues --  -10.63588 -10.63450 -10.62873 -10.60893  -0.92423
 Alpha  occ. eigenvalues --   -0.84785  -0.69367  -0.63332  -0.54775  -0.53026
 Alpha  occ. eigenvalues --   -0.45622  -0.45321  -0.41112  -0.37570  -0.27590
 Alpha virt. eigenvalues --    0.01356   0.06887   0.07196   0.07864   0.08900
 Alpha virt. eigenvalues --    0.11697   0.12468   0.14241   0.15229   0.16307
 Alpha virt. eigenvalues --    0.18672   0.18952   0.21534   0.23717   0.23963

 Mulliken charges:
               1
     1  C   -0.169832
     2  C   -0.017892
     3  C   -0.051131
     4  C   -0.173860
     5  H    0.083941
     6  H    0.063291
     7  H    0.043419
     8  H    0.058124
     9  H    0.072768
    10  H    0.091171
 Sum of Mulliken charges =   0.00000

 Dipole moment (field-independent basis, Debye):
    X=             -0.0712    Y=             -0.1458    Z=              0.1698  Tot=              0.2349
 Quadrupole moment (field-independent basis, Debye-Ang):
   XX=            -23.8071   YY=            -23.1536   ZZ=            -29.4509
   XY=              0.2355   XZ=             -0.6283   YZ=             -0.1494

 1\1\GINC-NODE36\SP\RB2PLYPD3-FC\def2QZVP\C4H6\BOITTIER\26-Aug-2020\0\\
 #p B2PLYPD3/Def2QZVP\\butadiene\\0,1\C,0,-3.862366,0.185204,0.101307\C
 ,0,-2.712765,-0.461928,-0.046786\C,0,-1.358155,0.126917,-0.07815\C,0,-
 0.272242,-0.69001,0.092877\H,0,-4.860191,-0.284557,0.029342\H,0,-3.843
 143,1.207555,0.045949\H,0,-2.719778,-1.614397,0.157552\H,0,-1.1694,1.2
 04835,-0.056798\H,0,-0.473605,-1.809424,0.064515\H,0,0.684661,-0.20276
 3,0.280562\\Version=ES64L-G09RevD.01\State=1-A\HF=-155.6786987\MP2=-15
 5.9066359\RMSD=4.049e-09\PG=C01 [X(C4H6)]\\@

 Normal termination of Gaussian 09 at Wed Aug 26 12:51:14 2020.
