 Gaussian 09, Revision D.01,
 Gaussian 09:  ES64L-G09RevD.01 24-Apr-2013

 --------------------
 #p B2PLYPD3/Def2QZVP
 --------------------

 ---------
 butadiene
 ---------
 Symbolic Z-matrix:
 Charge =  0 Multiplicity = 1

                         Standard orientation:
 ---------------------------------------------------------------------
 Center     Atomic      Atomic             Coordinates (Angstroms)
 Number     Number       Type             X           Y           Z
 ---------------------------------------------------------------------
      1          6           0       -1.849062    0.097830    0.013820
      2          6           0       -0.603173   -0.392280   -0.029637
      3          6           0        0.602616    0.416044   -0.021797
      4          6           0        1.834400   -0.123431    0.025254
      5          1           0       -2.663270   -0.566193    0.053306
      6          1           0       -2.026510    1.168349    0.023785
      7          1           0       -0.420212   -1.440222   -0.014400
      8          1           0        0.497061    1.508720   -0.004549
      9          1           0        2.012682   -1.178378    0.014464
     10          1           0        2.691566    0.518749    0.001555
 ---------------------------------------------------------------------

 SCF Done:  E(RB2PLYPD3) =  -155.699758495     A.U. after   11 cycles
 E2(B2PLYPD3) =    -0.2257260044D+00 E(B2PLYPD3) =    -0.15592548449940D+03

 The electronic state is 1-A.
 Alpha  occ. eigenvalues --  -10.62710 -10.62253 -10.61402 -10.61247  -0.92930
 Alpha  occ. eigenvalues --   -0.84852  -0.70499  -0.64234  -0.54733  -0.54034
 Alpha  occ. eigenvalues --   -0.46510  -0.46172  -0.41410  -0.37996  -0.27497
 Alpha virt. eigenvalues --    0.01596   0.07037   0.07437   0.08150   0.09537
 Alpha virt. eigenvalues --    0.11743   0.12389   0.14864   0.15921   0.16031
 Alpha virt. eigenvalues --    0.18781   0.20476   0.21622   0.23089   0.23911

 Mulliken charges:
               1
     1  C   -0.180684
     2  C   -0.032244
     3  C   -0.028368
     4  C   -0.179709
     5  H    0.089471
     6  H    0.069425
     7  H    0.056888
     8  H    0.053339
     9  H    0.068097
    10  H    0.083784
 Sum of Mulliken charges =   0.00000

 Dipole moment (field-independent basis, Debye):
    X=              0.0322    Y=             -0.0218    Z=              0.0315  Tot=              0.0501
 Quadrupole moment (field-independent basis, Debye-Ang):
   XX=            -23.6228   YY=            -22.9509   ZZ=            -29.2726
   XY=             -0.2168   XZ=             -0.1861   YZ=             -0.0185

 1\1\GINC-NODE31\SP\RB2PLYPD3-FC\def2QZVP\C4H6\BOITTIER\26-Aug-2020\0\\
 #p B2PLYPD3/Def2QZVP\\butadiene\\0,1\C,0,-3.850446,0.219348,0.0361\C,0
 ,-2.715177,-0.491095,0.00835\C,0,-1.382089,0.083341,-0.008263\C,0,-0.2
 69225,-0.670282,0.055971\H,0,-4.771952,-0.283335,0.095729\H,0,-3.82947
 8,1.30407,0.012908\H,0,-2.726472,-1.553868,0.056038\H,0,-1.286355,1.17
 6932,-0.024829\H,0,-0.286535,-1.739878,0.077858\H,0,0.690613,-0.196427
 ,0.012815\\Version=ES64L-G09RevD.01\State=1-A\HF=-155.6997585\MP2=-155
 .9254845\RMSD=4.397e-09\PG=C01 [X(C4H6)]\\@

 Normal termination of Gaussian 09 at Wed Aug 26 19:07:06 2020.
