 Gaussian 09, Revision D.01,
 Gaussian 09:  ES64L-G09RevD.01 24-Apr-2013

 --------------------
 #p B2PLYPD3/Def2QZVP
 --------------------

 ---------
 butadiene
 ---------
 Symbolic Z-matrix:
 Charge =  0 Multiplicity = 1

                         Standard orientation:
 ---------------------------------------------------------------------
 Center     Atomic      Atomic             Coordinates (Angstroms)
 Number     Number       Type             X           Y           Z
 ---------------------------------------------------------------------
      1          6           0        1.838512    0.115001   -0.051683
      2          6           0        0.600371   -0.430220    0.103913
      3          6           0       -0.589214    0.398426    0.029806
      4          6           0       -1.816895   -0.100335   -0.018831
      5          1           0        2.752445   -0.518976   -0.133385
      6          1           0        1.842253    1.233249    0.079919
      7          1           0        0.281074   -1.452690   -0.134385
      8          1           0       -0.409696    1.411026   -0.066708
      9          1           0       -1.976114   -1.114876   -0.012278
     10          1           0       -2.686607    0.545036   -0.112396
 ---------------------------------------------------------------------

 SCF Done:  E(RB2PLYPD3) =  -155.681846141     A.U. after   11 cycles
 E2(B2PLYPD3) =    -0.2270354716D+00 E(B2PLYPD3) =    -0.15590888161288D+03

 The electronic state is 1-A.
 Alpha  occ. eigenvalues --  -10.63118 -10.62848 -10.61557 -10.60696  -0.93423
 Alpha  occ. eigenvalues --   -0.84550  -0.70144  -0.64897  -0.54497  -0.53241
 Alpha  occ. eigenvalues --   -0.47023  -0.45732  -0.41083  -0.37853  -0.27541
 Alpha virt. eigenvalues --    0.01402   0.07096   0.07361   0.08187   0.08831
 Alpha virt. eigenvalues --    0.11839   0.12577   0.14479   0.15265   0.16120
 Alpha virt. eigenvalues --    0.18412   0.19378   0.21749   0.23353   0.24743

 Mulliken charges:
               1
     1  C   -0.182351
     2  C   -0.035856
     3  C   -0.013779
     4  C   -0.185940
     5  H    0.092355
     6  H    0.068401
     7  H    0.056044
     8  H    0.053214
     9  H    0.065942
    10  H    0.081969
 Sum of Mulliken charges =   0.00000

 Dipole moment (field-independent basis, Debye):
    X=             -0.0163    Y=              0.0164    Z=             -0.2555  Tot=              0.2565
 Quadrupole moment (field-independent basis, Debye-Ang):
   XX=            -23.7240   YY=            -23.3591   ZZ=            -29.2163
   XY=              0.2142   XZ=              0.0096   YZ=              0.2508

 1\1\GINC-NODE35\SP\RB2PLYPD3-FC\def2QZVP\C4H6\BOITTIER\26-Aug-2020\0\\
 #p B2PLYPD3/Def2QZVP\\butadiene\\0,1\C,0,-3.83242,0.244021,0.073738\C,
 0,-2.718371,-0.528679,-0.05393\C,0,-1.394868,0.066252,-0.013236\C,0,-0
 .281333,-0.649884,0.061035\H,0,-4.847991,-0.204327,0.180856\H,0,-3.628
 514,1.336464,-0.107373\H,0,-2.593829,-1.581204,0.230433\H,0,-1.3821,1.
 097824,0.037724\H,0,-0.313917,-1.675607,0.099974\H,0,0.693867,-0.17437
 6,0.128377\\Version=ES64L-G09RevD.01\State=1-A\HF=-155.6818461\MP2=-15
 5.9088816\RMSD=9.801e-09\PG=C01 [X(C4H6)]\\@

 Normal termination of Gaussian 09 at Wed Aug 26 12:04:32 2020.
