 Gaussian 09, Revision D.01,
 Gaussian 09:  ES64L-G09RevD.01 24-Apr-2013

 --------------------
 #p B2PLYPD3/Def2QZVP
 --------------------

 ---------
 butadiene
 ---------
 Symbolic Z-matrix:
 Charge =  0 Multiplicity = 1

                         Standard orientation:
 ---------------------------------------------------------------------
 Center     Atomic      Atomic             Coordinates (Angstroms)
 Number     Number       Type             X           Y           Z
 ---------------------------------------------------------------------
      1          6           0       -1.816041   -0.136105    0.009127
      2          6           0       -0.617087    0.448509   -0.093446
      3          6           0        0.608837   -0.365486   -0.061528
      4          6           0        1.837043    0.065801    0.044027
      5          1           0       -2.762456    0.441703    0.284728
      6          1           0       -1.785242   -1.303337    0.126964
      7          1           0       -0.582074    1.515331    0.031652
      8          1           0        0.335246   -1.442208   -0.051704
      9          1           0        1.979905    1.191890    0.077163
     10          1           0        2.738103   -0.479698    0.142119
 ---------------------------------------------------------------------

 SCF Done:  E(RB2PLYPD3) =  -155.681538626     A.U. after   11 cycles
 E2(B2PLYPD3) =    -0.2269988709D+00 E(B2PLYPD3) =    -0.15590853749715D+03

 The electronic state is 1-A.
 Alpha  occ. eigenvalues --  -10.63187 -10.62812 -10.62718 -10.61509  -0.93152
 Alpha  occ. eigenvalues --   -0.85052  -0.69049  -0.63631  -0.55141  -0.52617
 Alpha  occ. eigenvalues --   -0.47179  -0.43550  -0.40391  -0.38338  -0.28212
 Alpha virt. eigenvalues --    0.01894   0.06913   0.07079   0.07945   0.09294
 Alpha virt. eigenvalues --    0.11623   0.12609   0.13999   0.15590   0.16215
 Alpha virt. eigenvalues --    0.18843   0.19885   0.21276   0.23076   0.23444

 Mulliken charges:
               1
     1  C   -0.155931
     2  C   -0.030275
     3  C   -0.022443
     4  C   -0.162857
     5  H    0.082144
     6  H    0.044928
     7  H    0.059412
     8  H    0.042879
     9  H    0.048795
    10  H    0.093349
 Sum of Mulliken charges =   0.00000

 Dipole moment (field-independent basis, Debye):
    X=              0.0436    Y=              0.0877    Z=              0.4563  Tot=              0.4667
 Quadrupole moment (field-independent basis, Debye-Ang):
   XX=            -23.6438   YY=            -23.5389   ZZ=            -29.2479
   XY=             -0.3061   XZ=             -0.5795   YZ=              0.1125

 1\1\GINC-NODE12\SP\RB2PLYPD3-FC\def2QZVP\C4H6\BOITTIER\26-Aug-2020\0\\
 #p B2PLYPD3/Def2QZVP\\butadiene\\0,1\C,0,-3.816273,0.240367,-0.011583\
 C,0,-2.7397,-0.543354,0.117098\C,0,-1.389091,0.039569,0.066579\C,0,-0.
 256524,-0.605305,-0.017505\H,0,-4.849883,-0.169701,-0.27429\H,0,-3.579
 41,1.379272,-0.166678\H,0,-2.893936,-1.60307,0.026566\H,0,-1.467869,1.
 146795,0.020475\H,0,-0.315131,-1.739383,-0.013556\H,0,0.726867,-0.2312
 26,-0.127532\\Version=ES64L-G09RevD.01\State=1-A\HF=-155.6815386\MP2=-
 155.9085375\RMSD=9.419e-09\PG=C01 [X(C4H6)]\\@

 Normal termination of Gaussian 09 at Wed Aug 26 12:56:55 2020.
