 Gaussian 09, Revision D.01,
 Gaussian 09:  ES64L-G09RevD.01 24-Apr-2013

 --------------------
 #p B2PLYPD3/Def2QZVP
 --------------------

 ---------
 butadiene
 ---------
 Symbolic Z-matrix:
 Charge =  0 Multiplicity = 1

                         Standard orientation:
 ---------------------------------------------------------------------
 Center     Atomic      Atomic             Coordinates (Angstroms)
 Number     Number       Type             X           Y           Z
 ---------------------------------------------------------------------
      1          6           0       -1.847813    0.101695   -0.021057
      2          6           0       -0.606047   -0.394880    0.005715
      3          6           0        0.607478    0.412760    0.005446
      4          6           0        1.844421   -0.118579   -0.012958
      5          1           0       -2.732181   -0.519809    0.023395
      6          1           0       -2.033637    1.156156   -0.001431
      7          1           0       -0.459904   -1.464734    0.082355
      8          1           0        0.526251    1.513997    0.049895
      9          1           0        2.004329   -1.184299   -0.042338
     10          1           0        2.706907    0.492709    0.025252
 ---------------------------------------------------------------------

 SCF Done:  E(RB2PLYPD3) =  -155.700041061     A.U. after   11 cycles
 E2(B2PLYPD3) =    -0.2258622988D+00 E(B2PLYPD3) =    -0.15592590335973D+03

 The electronic state is 1-A.
 Alpha  occ. eigenvalues --  -10.62955 -10.62674 -10.61434 -10.61375  -0.92750
 Alpha  occ. eigenvalues --   -0.84845  -0.70373  -0.64045  -0.54727  -0.53982
 Alpha  occ. eigenvalues --   -0.46708  -0.45605  -0.41330  -0.37899  -0.27597
 Alpha virt. eigenvalues --    0.01592   0.07041   0.07438   0.08037   0.09505
 Alpha virt. eigenvalues --    0.11622   0.12521   0.14687   0.15904   0.16252
 Alpha virt. eigenvalues --    0.18863   0.20533   0.21715   0.22854   0.23655

 Mulliken charges:
               1
     1  C   -0.172025
     2  C   -0.033437
     3  C   -0.031212
     4  C   -0.176983
     5  H    0.083692
     6  H    0.065843
     7  H    0.058148
     8  H    0.053695
     9  H    0.065078
    10  H    0.087201
 Sum of Mulliken charges =   0.00000

 Dipole moment (field-independent basis, Debye):
    X=              0.0202    Y=              0.0064    Z=              0.1323  Tot=              0.1340
 Quadrupole moment (field-independent basis, Debye-Ang):
   XX=            -23.3042   YY=            -23.1214   ZZ=            -29.3008
   XY=             -0.1650   XZ=             -0.0947   YZ=              0.0136

 1\1\GINC-NODE37\SP\RB2PLYPD3-FC\def2QZVP\C4H6\BOITTIER\26-Aug-2020\0\\
 #p B2PLYPD3/Def2QZVP\\butadiene\\0,1\C,0,-3.851739,0.215615,0.001989\C
 ,0,-2.718929,-0.494496,0.044055\C,0,-1.380356,0.08228,0.022179\C,0,-0.
 258703,-0.66242,0.020065\H,0,-4.832956,-0.235859,0.063102\H,0,-3.84556
 3,1.286436,-0.008402\H,0,-2.766509,-1.570648,0.151069\H,0,-1.262796,1.
 181052,0.035384\H,0,-0.292432,-1.739942,0.020999\H,0,0.699492,-0.21475
 6,0.041848\\Version=ES64L-G09RevD.01\State=1-A\HF=-155.7000411\MP2=-15
 5.9259034\RMSD=4.637e-09\PG=C01 [X(C4H6)]\\@

 Normal termination of Gaussian 09 at Wed Aug 26 21:05:04 2020.
