 Gaussian 09, Revision D.01,
 Gaussian 09:  ES64L-G09RevD.01 24-Apr-2013

 --------------------
 #p B2PLYPD3/Def2QZVP
 --------------------

 ---------
 butadiene
 ---------
 Symbolic Z-matrix:
 Charge =  0 Multiplicity = 1

                         Standard orientation:
 ---------------------------------------------------------------------
 Center     Atomic      Atomic             Coordinates (Angstroms)
 Number     Number       Type             X           Y           Z
 ---------------------------------------------------------------------
      1          6           0       -1.813105   -0.128650    0.008536
      2          6           0       -0.616389    0.462860   -0.035322
      3          6           0        0.580760   -0.379374   -0.111956
      4          6           0        1.820127    0.083426    0.048890
      5          1           0       -2.767194    0.316452    0.150122
      6          1           0       -1.869632   -1.221748    0.187721
      7          1           0       -0.471357    1.586733   -0.053730
      8          1           0        0.533311   -1.462883    0.015620
      9          1           0        2.089774    1.099687    0.149591
     10          1           0        2.656739   -0.547812    0.089788
 ---------------------------------------------------------------------

 SCF Done:  E(RB2PLYPD3) =  -155.687623373     A.U. after   11 cycles
 E2(B2PLYPD3) =    -0.2263031245D+00 E(B2PLYPD3) =    -0.15591392649762D+03

 The electronic state is 1-A.
 Alpha  occ. eigenvalues --  -10.63596 -10.62538 -10.61595 -10.60647  -0.92924
 Alpha  occ. eigenvalues --   -0.85001  -0.70178  -0.64061  -0.55173  -0.53672
 Alpha  occ. eigenvalues --   -0.46744  -0.44487  -0.41201  -0.38004  -0.27704
 Alpha virt. eigenvalues --    0.01783   0.07072   0.07237   0.08045   0.08990
 Alpha virt. eigenvalues --    0.11501   0.12833   0.14597   0.15536   0.16937
 Alpha virt. eigenvalues --    0.18793   0.19601   0.22274   0.22999   0.23755

 Mulliken charges:
               1
     1  C   -0.152547
     2  C   -0.041563
     3  C   -0.024403
     4  C   -0.168723
     5  H    0.078322
     6  H    0.052199
     7  H    0.061179
     8  H    0.060618
     9  H    0.057949
    10  H    0.076969
 Sum of Mulliken charges =   0.00000

 Dipole moment (field-independent basis, Debye):
    X=              0.0463    Y=              0.0381    Z=              0.3962  Tot=              0.4007
 Quadrupole moment (field-independent basis, Debye-Ang):
   XX=            -23.3018   YY=            -23.2477   ZZ=            -29.1611
   XY=              0.2175   XZ=             -0.1374   YZ=             -0.2059

 1\1\GINC-NODE32\SP\RB2PLYPD3-FC\def2QZVP\C4H6\BOITTIER\26-Aug-2020\0\\
 #p B2PLYPD3/Def2QZVP\\butadiene\\0,1\C,0,-3.807801,0.242052,-0.006744\
 C,0,-2.737755,-0.553303,0.072945\C,0,-1.407368,0.060915,0.107631\C,0,-
 0.273433,-0.626813,-0.023924\H,0,-4.827655,-0.029747,-0.12704\H,0,-3.6
 66595,1.31602,-0.24511\H,0,-2.798571,-1.682196,0.152722\H,0,-1.258626,
 1.126604,-0.078653\H,0,-0.193003,-1.679039,-0.068516\H,0,0.663385,-0.1
 60781,-0.09631\\Version=ES64L-G09RevD.01\State=1-A\HF=-155.6876234\MP2
 =-155.9139265\RMSD=4.460e-09\PG=C01 [X(C4H6)]\\@

 Normal termination of Gaussian 09 at Wed Aug 26 16:04:46 2020.
