 Gaussian 09, Revision D.01,
 Gaussian 09:  ES64L-G09RevD.01 24-Apr-2013

 --------------------
 #p B2PLYPD3/Def2QZVP
 --------------------

 ---------
 butadiene
 ---------
 Symbolic Z-matrix:
 Charge =  0 Multiplicity = 1

                         Standard orientation:
 ---------------------------------------------------------------------
 Center     Atomic      Atomic             Coordinates (Angstroms)
 Number     Number       Type             X           Y           Z
 ---------------------------------------------------------------------
      1          6           0       -1.851801    0.122134    0.038268
      2          6           0       -0.615226   -0.421075   -0.043362
      3          6           0        0.597234    0.367059   -0.057149
      4          6           0        1.845770   -0.085765    0.047550
      5          1           0       -2.789780   -0.443760   -0.010372
      6          1           0       -1.895664    1.209242    0.109333
      7          1           0       -0.478456   -1.488736    0.011991
      8          1           0        0.524577    1.471366   -0.088131
      9          1           0        2.066254   -1.155883    0.006059
     10          1           0        2.717208    0.513652    0.059282
 ---------------------------------------------------------------------

 SCF Done:  E(RB2PLYPD3) =  -155.695820220     A.U. after   11 cycles
 E2(B2PLYPD3) =    -0.2263896675D+00 E(B2PLYPD3) =    -0.15592220988797D+03

 The electronic state is 1-A.
 Alpha  occ. eigenvalues --  -10.62927 -10.62712 -10.62241 -10.61314  -0.92937
 Alpha  occ. eigenvalues --   -0.84810  -0.70377  -0.63941  -0.54959  -0.53637
 Alpha  occ. eigenvalues --   -0.47039  -0.45054  -0.41043  -0.38040  -0.27572
 Alpha virt. eigenvalues --    0.01312   0.07007   0.07471   0.07981   0.09601
 Alpha virt. eigenvalues --    0.11568   0.12637   0.14437   0.15776   0.16360
 Alpha virt. eigenvalues --    0.18935   0.20256   0.21521   0.22555   0.23897

 Mulliken charges:
               1
     1  C   -0.169134
     2  C   -0.040018
     3  C   -0.021408
     4  C   -0.170704
     5  H    0.091754
     6  H    0.064028
     7  H    0.060356
     8  H    0.045600
     9  H    0.054075
    10  H    0.085451
 Sum of Mulliken charges =   0.00000

 Dipole moment (field-independent basis, Debye):
    X=              0.0058    Y=             -0.0158    Z=              0.0088  Tot=              0.0190
 Quadrupole moment (field-independent basis, Debye-Ang):
   XX=            -23.0598   YY=            -23.4054   ZZ=            -29.3183
   XY=              0.0827   XZ=             -0.0321   YZ=              0.0691

 1\1\GINC-NODE29\SP\RB2PLYPD3-FC\def2QZVP\C4H6\BOITTIER\26-Aug-2020\0\\
 #p B2PLYPD3/Def2QZVP\\butadiene\\0,1\C,0,-3.849493,0.235784,0.058925\C
 ,0,-2.729124,-0.519956,-0.008071\C,0,-1.396133,0.040033,-0.038906\C,0,
 -0.247427,-0.624501,0.078243\H,0,-4.873113,-0.155722,0.02245\H,0,-3.69
 962,1.3148,0.104083\H,0,-2.783753,-1.593335,0.07282\H,0,-1.271837,1.13
 8668,-0.096215\H,0,-0.220383,-1.717436,0.062492\H,0,0.716549,-0.189081
 ,0.076933\\Version=ES64L-G09RevD.01\State=1-A\HF=-155.6958202\MP2=-155
 .9222099\RMSD=7.740e-09\PG=C01 [X(C4H6)]\\@

 Normal termination of Gaussian 09 at Wed Aug 26 10:35:16 2020.
