 Gaussian 09, Revision D.01,
 Gaussian 09:  ES64L-G09RevD.01 24-Apr-2013

 --------------------
 #p B2PLYPD3/Def2QZVP
 --------------------

 ---------
 butadiene
 ---------
 Symbolic Z-matrix:
 Charge =  0 Multiplicity = 1

                         Standard orientation:
 ---------------------------------------------------------------------
 Center     Atomic      Atomic             Coordinates (Angstroms)
 Number     Number       Type             X           Y           Z
 ---------------------------------------------------------------------
      1          6           0       -1.844284   -0.127479    0.027135
      2          6           0       -0.621845    0.416213   -0.036379
      3          6           0        0.602834   -0.372279   -0.037651
      4          6           0        1.858559    0.086964    0.010659
      5          1           0       -2.733666    0.465163    0.100619
      6          1           0       -1.953786   -1.208785    0.037554
      7          1           0       -0.574429    1.527594   -0.039914
      8          1           0        0.482115   -1.477412   -0.088962
      9          1           0        2.050985    1.184733    0.033354
     10          1           0        2.757206   -0.511808    0.174760
 ---------------------------------------------------------------------

 SCF Done:  E(RB2PLYPD3) =  -155.696351233     A.U. after   11 cycles
 E2(B2PLYPD3) =    -0.2264856444D+00 E(B2PLYPD3) =    -0.15592283687741D+03

 The electronic state is 1-A.
 Alpha  occ. eigenvalues --  -10.63160 -10.63099 -10.62043 -10.61663  -0.92723
 Alpha  occ. eigenvalues --   -0.84859  -0.70012  -0.63433  -0.54789  -0.53521
 Alpha  occ. eigenvalues --   -0.46859  -0.44769  -0.40925  -0.37968  -0.27735
 Alpha virt. eigenvalues --    0.01519   0.06999   0.07328   0.07876   0.09583
 Alpha virt. eigenvalues --    0.11499   0.12514   0.14365   0.15833   0.16359
 Alpha virt. eigenvalues --    0.18887   0.20268   0.21721   0.22472   0.23446

 Mulliken charges:
               1
     1  C   -0.170321
     2  C   -0.031598
     3  C   -0.030437
     4  C   -0.166696
     5  H    0.088935
     6  H    0.063638
     7  H    0.052629
     8  H    0.051269
     9  H    0.055184
    10  H    0.087397
 Sum of Mulliken charges =   0.00000

 Dipole moment (field-independent basis, Debye):
    X=             -0.0713    Y=              0.0062    Z=              0.1529  Tot=              0.1688
 Quadrupole moment (field-independent basis, Debye-Ang):
   XX=            -23.2070   YY=            -23.3294   ZZ=            -29.3516
   XY=             -0.0808   XZ=              0.2094   YZ=              0.0013

 1\1\GINC-NODE39\SP\RB2PLYPD3-FC\def2QZVP\C4H6\BOITTIER\26-Aug-2020\0\\
 #p B2PLYPD3/Def2QZVP\\butadiene\\0,1\C,0,-3.844889,0.23289,-0.009933\C
 ,0,-2.736306,-0.514547,0.069898\C,0,-1.392423,0.046722,0.047172\C,0,-0
 .236876,-0.62678,0.01267\H,0,-4.82474,-0.196581,-0.065349\H,0,-3.76328
 1,1.315849,-0.053082\H,0,-2.884345,-1.616423,0.107083\H,0,-1.317349,1.
 156934,0.065005\H,0,-0.239908,-1.741463,0.023211\H,0,0.751887,-0.19998
 ,-0.169576\\Version=ES64L-G09RevD.01\State=1-A\HF=-155.6963512\MP2=-15
 5.9228369\RMSD=5.650e-09\PG=C01 [X(C4H6)]\\@

 Normal termination of Gaussian 09 at Wed Aug 26 08:59:38 2020.
