 Gaussian 09, Revision D.01,
 Gaussian 09:  ES64L-G09RevD.01 24-Apr-2013

 --------------------
 #p B2PLYPD3/Def2QZVP
 --------------------

 ---------
 butadiene
 ---------
 Symbolic Z-matrix:
 Charge =  0 Multiplicity = 1

                         Standard orientation:
 ---------------------------------------------------------------------
 Center     Atomic      Atomic             Coordinates (Angstroms)
 Number     Number       Type             X           Y           Z
 ---------------------------------------------------------------------
      1          6           0       -1.834616   -0.108516    0.001940
      2          6           0       -0.600455    0.422751   -0.015301
      3          6           0        0.598168   -0.395130    0.004210
      4          6           0        1.835899    0.095360   -0.007680
      5          1           0       -2.772455    0.458883    0.009756
      6          1           0       -1.975333   -1.196218    0.026848
      7          1           0       -0.411205    1.485339    0.001623
      8          1           0        0.453784   -1.457600    0.002977
      9          1           0        2.015338    1.177366    0.067651
     10          1           0        2.695895   -0.554560   -0.007874
 ---------------------------------------------------------------------

 SCF Done:  E(RB2PLYPD3) =  -155.699564189     A.U. after   11 cycles
 E2(B2PLYPD3) =    -0.2259869645D+00 E(B2PLYPD3) =    -0.15592555115308D+03

 The electronic state is 1-A.
 Alpha  occ. eigenvalues --  -10.62730 -10.62228 -10.62079 -10.61529  -0.93073
 Alpha  occ. eigenvalues --   -0.84660  -0.70088  -0.64294  -0.54806  -0.53416
 Alpha  occ. eigenvalues --   -0.47018  -0.45236  -0.41116  -0.38153  -0.27614
 Alpha virt. eigenvalues --    0.01673   0.07006   0.07336   0.08142   0.09481
 Alpha virt. eigenvalues --    0.11658   0.12504   0.14592   0.15899   0.16136
 Alpha virt. eigenvalues --    0.18764   0.20536   0.21672   0.22764   0.23772

 Mulliken charges:
               1
     1  C   -0.169209
     2  C   -0.035257
     3  C   -0.022846
     4  C   -0.178449
     5  H    0.084030
     6  H    0.061186
     7  H    0.057619
     8  H    0.055225
     9  H    0.061941
    10  H    0.085759
 Sum of Mulliken charges =   0.00000

 Dipole moment (field-independent basis, Debye):
    X=             -0.0232    Y=             -0.0252    Z=              0.0871  Tot=              0.0936
 Quadrupole moment (field-independent basis, Debye-Ang):
   XX=            -23.3974   YY=            -23.1930   ZZ=            -29.3073
   XY=              0.2405   XZ=              0.0223   YZ=              0.0691

 1\1\GINC-NODE23\SP\RB2PLYPD3-FC\def2QZVP\C4H6\BOITTIER\26-Aug-2020\0\\
 #p B2PLYPD3/Def2QZVP\\butadiene\\0,1\C,0,-3.834978,0.230641,0.015446\C
 ,0,-2.719684,-0.518203,0.047786\C,0,-1.391033,0.064244,0.009741\C,0,-0
 .264738,-0.645324,0.035722\H,0,-4.861272,-0.154382,0.020333\H,0,-3.773
 101,1.3247,-0.03675\H,0,-2.729363,-1.597557,0.057612\H,0,-1.337325,1.1
 34832,-0.015699\H,0,-0.287816,-1.743397,-0.012373\H,0,0.700213,-0.1650
 71,0.021043\\Version=ES64L-G09RevD.01\State=1-A\HF=-155.6995642\MP2=-1
 55.9255512\RMSD=4.651e-09\PG=C01 [X(C4H6)]\\@

 Normal termination of Gaussian 09 at Wed Aug 26 19:05:55 2020.
