 Gaussian 09, Revision D.01,
 Gaussian 09:  ES64L-G09RevD.01 24-Apr-2013

 --------------------
 #p B2PLYPD3/Def2QZVP
 --------------------

 ---------
 butadiene
 ---------
 Symbolic Z-matrix:
 Charge =  0 Multiplicity = 1

                         Standard orientation:
 ---------------------------------------------------------------------
 Center     Atomic      Atomic             Coordinates (Angstroms)
 Number     Number       Type             X           Y           Z
 ---------------------------------------------------------------------
      1          6           0       -1.815433   -0.123577   -0.082996
      2          6           0       -0.585934    0.444786    0.036771
      3          6           0        0.601964   -0.376803    0.057181
      4          6           0        1.858126    0.075132   -0.062128
      5          1           0       -2.859357    0.387781    0.057460
      6          1           0       -1.947323   -1.142711   -0.157066
      7          1           0       -0.515744    1.514601    0.310289
      8          1           0        0.242166   -1.449217    0.279874
      9          1           0        2.000094    1.105639   -0.223555
     10          1           0        2.727830   -0.533314    0.040023
 ---------------------------------------------------------------------

 SCF Done:  E(RB2PLYPD3) =  -155.678983100     A.U. after   11 cycles
 E2(B2PLYPD3) =    -0.2275015104D+00 E(B2PLYPD3) =    -0.15590648460993D+03

 The electronic state is 1-A.
 Alpha  occ. eigenvalues --  -10.63439 -10.63221 -10.62345 -10.61388  -0.93003
 Alpha  occ. eigenvalues --   -0.84478  -0.70575  -0.63844  -0.54709  -0.53314
 Alpha  occ. eigenvalues --   -0.47503  -0.44875  -0.40893  -0.37101  -0.27635
 Alpha virt. eigenvalues --    0.01136   0.07099   0.07234   0.07721   0.09318
 Alpha virt. eigenvalues --    0.11437   0.12606   0.14584   0.15543   0.16165
 Alpha virt. eigenvalues --    0.18870   0.19619   0.21772   0.22577   0.22711

 Mulliken charges:
               1
     1  C   -0.173750
     2  C   -0.030141
     3  C   -0.030933
     4  C   -0.178648
     5  H    0.068397
     6  H    0.064918
     7  H    0.066565
     8  H    0.047720
     9  H    0.072034
    10  H    0.093838
 Sum of Mulliken charges =   0.00000

 Dipole moment (field-independent basis, Debye):
    X=             -0.0390    Y=             -0.0222    Z=              0.3194  Tot=              0.3225
 Quadrupole moment (field-independent basis, Debye-Ang):
   XX=            -23.1369   YY=            -23.7293   ZZ=            -29.2063
   XY=              0.7188   XZ=             -0.3271   YZ=             -0.0001

 1\1\GINC-NODE09\SP\RB2PLYPD3-FC\def2QZVP\C4H6\BOITTIER\26-Aug-2020\0\\
 #p B2PLYPD3/Def2QZVP\\butadiene\\0,1\C,0,-3.819086,0.248362,0.087183\C
 ,0,-2.716692,-0.541357,-0.013419\C,0,-1.396598,0.044207,-0.044943\C,0,
 -0.246686,-0.630785,0.091106\H,0,-4.939741,-0.062835,-0.048017\H,0,-3.
 759082,1.275631,0.138486\H,0,-2.846459,-1.61137,-0.263369\H,0,-1.55016
 8,1.159611,-0.292751\H,0,-0.299248,-1.665859,0.275544\H,0,0.721221,-0.
 197206,-0.01931\\Version=ES64L-G09RevD.01\State=1-A\HF=-155.6789831\MP
 2=-155.9064846\RMSD=7.446e-09\PG=C01 [X(C4H6)]\\@

 Normal termination of Gaussian 09 at Wed Aug 26 11:40:35 2020.
