 Gaussian 09, Revision D.01,
 Gaussian 09:  ES64L-G09RevD.01 24-Apr-2013

 --------------------
 #p B2PLYPD3/Def2QZVP
 --------------------

 ---------
 butadiene
 ---------
 Symbolic Z-matrix:
 Charge =  0 Multiplicity = 1

                         Standard orientation:
 ---------------------------------------------------------------------
 Center     Atomic      Atomic             Coordinates (Angstroms)
 Number     Number       Type             X           Y           Z
 ---------------------------------------------------------------------
      1          6           0       -1.827558   -0.097662   -0.019354
      2          6           0       -0.580305    0.387470    0.018686
      3          6           0        0.582880   -0.407421    0.037458
      4          6           0        1.812283    0.099526   -0.035206
      5          1           0       -2.635137    0.558575   -0.018855
      6          1           0       -2.065658   -1.172177   -0.067712
      7          1           0       -0.424629    1.478272    0.015280
      8          1           0        0.479977   -1.476460    0.090399
      9          1           0        1.947837    1.198794    0.051371
     10          1           0        2.773811   -0.478478   -0.079985
 ---------------------------------------------------------------------

 SCF Done:  E(RB2PLYPD3) =  -155.694840586     A.U. after   11 cycles
 E2(B2PLYPD3) =    -0.2262014132D+00 E(B2PLYPD3) =    -0.15592104199964D+03

 The electronic state is 1-A.
 Alpha  occ. eigenvalues --  -10.62419 -10.62193 -10.61996 -10.61276  -0.93729
 Alpha  occ. eigenvalues --   -0.84742  -0.70419  -0.63980  -0.54899  -0.53786
 Alpha  occ. eigenvalues --   -0.46601  -0.44925  -0.41429  -0.38581  -0.27357
 Alpha virt. eigenvalues --    0.01460   0.07022   0.07320   0.07997   0.09771
 Alpha virt. eigenvalues --    0.11627   0.12480   0.14690   0.15880   0.16312
 Alpha virt. eigenvalues --    0.18712   0.20443   0.21763   0.22444   0.23802

 Mulliken charges:
               1
     1  C   -0.181297
     2  C   -0.024780
     3  C   -0.023976
     4  C   -0.168442
     5  H    0.087296
     6  H    0.067124
     7  H    0.050386
     8  H    0.057440
     9  H    0.055142
    10  H    0.081108
 Sum of Mulliken charges =   0.00000

 Dipole moment (field-independent basis, Debye):
    X=              0.0117    Y=             -0.0192    Z=              0.0318  Tot=              0.0389
 Quadrupole moment (field-independent basis, Debye-Ang):
   XX=            -23.4405   YY=            -23.2159   ZZ=            -29.2281
   XY=              0.1352   XZ=              0.0875   YZ=              0.1002

 1\1\GINC-NODE06\SP\RB2PLYPD3-FC\def2QZVP\C4H6\BOITTIER\26-Aug-2020\0\\
 #p B2PLYPD3/Def2QZVP\\butadiene\\0,1\C,0,-3.827937,0.221427,0.040008\C
 ,0,-2.693679,-0.48941,0.015322\C,0,-1.402354,0.072962,-0.022385\C,0,-0
 .28929,-0.653201,0.064131\H,0,-4.744065,-0.271835,0.055285\H,0,-3.8605
 32,1.322383,0.061099\H,0,-2.744901,-1.589642,0.046313\H,0,-1.303553,1.
 140711,-0.1023\H,0,-0.362207,-1.76022,0.005362\H,0,0.763592,-0.264482,
 0.095229\\Version=ES64L-G09RevD.01\State=1-A\HF=-155.6948406\MP2=-155.
 921042\RMSD=6.105e-09\PG=C01 [X(C4H6)]\\@

 Normal termination of Gaussian 09 at Wed Aug 26 08:52:05 2020.
