 Gaussian 09, Revision D.01,
 Gaussian 09:  ES64L-G09RevD.01 24-Apr-2013

 --------------------
 #p B2PLYPD3/Def2QZVP
 --------------------

 ---------
 butadiene
 ---------
 Symbolic Z-matrix:
 Charge =  0 Multiplicity = 1

                         Standard orientation:
 ---------------------------------------------------------------------
 Center     Atomic      Atomic             Coordinates (Angstroms)
 Number     Number       Type             X           Y           Z
 ---------------------------------------------------------------------
      1          6           0       -1.825803   -0.122115   -0.052011
      2          6           0       -0.608701    0.430835    0.029221
      3          6           0        0.587184   -0.387759    0.062149
      4          6           0        1.842248    0.077104   -0.035393
      5          1           0       -2.767107    0.497869   -0.079318
      6          1           0       -1.986338   -1.203471    0.037188
      7          1           0       -0.416232    1.511254    0.124508
      8          1           0        0.413661   -1.458497    0.049641
      9          1           0        2.008502    1.139395   -0.036053
     10          1           0        2.777944   -0.474941   -0.119762
 ---------------------------------------------------------------------

 SCF Done:  E(RB2PLYPD3) =  -155.694531901     A.U. after   11 cycles
 E2(B2PLYPD3) =    -0.2266288983D+00 E(B2PLYPD3) =    -0.15592116079982D+03

 The electronic state is 1-A.
 Alpha  occ. eigenvalues --  -10.63060 -10.62623 -10.62427 -10.61626  -0.93032
 Alpha  occ. eigenvalues --   -0.84483  -0.70086  -0.64134  -0.54726  -0.53164
 Alpha  occ. eigenvalues --   -0.47290  -0.44733  -0.40916  -0.38018  -0.27573
 Alpha virt. eigenvalues --    0.01522   0.06985   0.07274   0.08036   0.09344
 Alpha virt. eigenvalues --    0.11575   0.12624   0.14463   0.15679   0.16386
 Alpha virt. eigenvalues --    0.18810   0.20200   0.22003   0.22828   0.23329

 Mulliken charges:
               1
     1  C   -0.169254
     2  C   -0.033707
     3  C   -0.023607
     4  C   -0.171946
     5  H    0.079016
     6  H    0.069250
     7  H    0.058952
     8  H    0.053186
     9  H    0.052923
    10  H    0.085188
 Sum of Mulliken charges =   0.00000

 Dipole moment (field-independent basis, Debye):
    X=             -0.0059    Y=              0.0089    Z=              0.0458  Tot=              0.0471
 Quadrupole moment (field-independent basis, Debye-Ang):
   XX=            -23.2142   YY=            -23.3878   ZZ=            -29.3427
   XY=              0.3965   XZ=             -0.3537   YZ=              0.0495

 1\1\GINC-NODE06\SP\RB2PLYPD3-FC\def2QZVP\C4H6\BOITTIER\26-Aug-2020\0\\
 #p B2PLYPD3/Def2QZVP\\butadiene\\0,1\C,0,-3.823071,0.242755,0.065645\C
 ,0,-2.728998,-0.527092,0.002172\C,0,-1.402469,0.055667,-0.042937\C,0,-
 0.254923,-0.630664,0.070582\H,0,-4.862711,-0.191992,0.102011\H,0,-3.78
 1054,1.332903,-0.047803\H,0,-2.739347,-1.626319,-0.06869\H,0,-1.375239
 ,1.140042,-0.054534\H,0,-0.287745,-1.705105,0.095125\H,0,0.76659,-0.25
 9151,0.147316\\Version=ES64L-G09RevD.01\State=1-A\HF=-155.6945319\MP2=
 -155.9211608\RMSD=5.329e-09\PG=C01 [X(C4H6)]\\@

 Normal termination of Gaussian 09 at Wed Aug 26 09:27:02 2020.
