 Gaussian 09, Revision D.01,
 Gaussian 09:  ES64L-G09RevD.01 24-Apr-2013

 --------------------
 #p B2PLYPD3/Def2QZVP
 --------------------

 ---------
 butadiene
 ---------
 Symbolic Z-matrix:
 Charge =  0 Multiplicity = 1

                         Standard orientation:
 ---------------------------------------------------------------------
 Center     Atomic      Atomic             Coordinates (Angstroms)
 Number     Number       Type             X           Y           Z
 ---------------------------------------------------------------------
      1          6           0        1.827353   -0.116889    0.014026
      2          6           0        0.590543    0.417220   -0.002337
      3          6           0       -0.601836   -0.400098   -0.017213
      4          6           0       -1.834466    0.100782    0.006816
      5          1           0        2.706238    0.516975    0.016558
      6          1           0        2.008501   -1.183417   -0.016268
      7          1           0        0.505335    1.505354   -0.041152
      8          1           0       -0.413564   -1.477713   -0.016726
      9          1           0       -2.019941    1.168875    0.003742
     10          1           0       -2.676132   -0.536169    0.046089
 ---------------------------------------------------------------------

 SCF Done:  E(RB2PLYPD3) =  -155.700159097     A.U. after   11 cycles
 E2(B2PLYPD3) =    -0.2258556071D+00 E(B2PLYPD3) =    -0.15592601470426D+03

 The electronic state is 1-A.
 Alpha  occ. eigenvalues --  -10.62636 -10.62498 -10.61609 -10.61162  -0.93049
 Alpha  occ. eigenvalues --   -0.84783  -0.70279  -0.64033  -0.54703  -0.53954
 Alpha  occ. eigenvalues --   -0.46413  -0.45706  -0.41392  -0.38145  -0.27492
 Alpha virt. eigenvalues --    0.01698   0.07055   0.07336   0.08085   0.09512
 Alpha virt. eigenvalues --    0.11694   0.12430   0.14804   0.15888   0.16143
 Alpha virt. eigenvalues --    0.18727   0.20550   0.21683   0.22968   0.23762

 Mulliken charges:
               1
     1  C   -0.179113
     2  C   -0.027978
     3  C   -0.029861
     4  C   -0.176297
     5  H    0.082143
     6  H    0.065221
     7  H    0.056105
     8  H    0.054880
     9  H    0.067896
    10  H    0.087004
 Sum of Mulliken charges =   0.00000

 Dipole moment (field-independent basis, Debye):
    X=              0.0054    Y=              0.0021    Z=             -0.0224  Tot=              0.0231
 Quadrupole moment (field-independent basis, Debye-Ang):
   XX=            -23.5740   YY=            -22.9946   ZZ=            -29.2857
   XY=             -0.2397   XZ=             -0.1635   YZ=             -0.0353

 1\1\GINC-NODE15\SP\RB2PLYPD3-FC\def2QZVP\C4H6\BOITTIER\26-Aug-2020\0\\
 #p B2PLYPD3/Def2QZVP\\butadiene\\0,1\C,0,-3.828937,0.236074,0.029847\C
 ,0,-2.711325,-0.516376,0.031307\C,0,-1.389122,0.06733,-0.00134\C,0,-0.
 269442,-0.650635,0.039613\H,0,-4.809302,-0.225275,0.046305\H,0,-3.8111
 31,1.316554,-0.028976\H,0,-2.827531,-1.602285,0.021316\H,0,-1.376227,1
 .160825,-0.029705\H,0,-0.283342,-1.734327,0.065133\H,0,0.67498,-0.1783
 14,0.06475\\Version=ES64L-G09RevD.01\State=1-A\HF=-155.7001591\MP2=-15
 5.9260147\RMSD=4.924e-09\PG=C01 [X(C4H6)]\\@

 Normal termination of Gaussian 09 at Wed Aug 26 12:51:42 2020.
