 Gaussian 09, Revision D.01,
 Gaussian 09:  ES64L-G09RevD.01 24-Apr-2013

 --------------------
 #p B2PLYPD3/Def2QZVP
 --------------------

 ---------
 butadiene
 ---------
 Symbolic Z-matrix:
 Charge =  0 Multiplicity = 1

                         Standard orientation:
 ---------------------------------------------------------------------
 Center     Atomic      Atomic             Coordinates (Angstroms)
 Number     Number       Type             X           Y           Z
 ---------------------------------------------------------------------
      1          6           0       -1.848638    0.138935   -0.035338
      2          6           0       -0.607825   -0.449689    0.045801
      3          6           0        0.621042    0.350059    0.065100
      4          6           0        1.844635   -0.091017   -0.073019
      5          1           0       -2.944733   -0.368474   -0.098701
      6          1           0       -1.873403    1.258935   -0.036537
      7          1           0       -0.579957   -1.509113   -0.034934
      8          1           0        0.558802    1.478962    0.168100
      9          1           0        2.112915   -1.155512    0.174499
     10          1           0        2.671087    0.605475   -0.187693
 ---------------------------------------------------------------------

 SCF Done:  E(RB2PLYPD3) =  -155.673865361     A.U. after   12 cycles
 E2(B2PLYPD3) =    -0.2280214032D+00 E(B2PLYPD3) =    -0.15590188676373D+03

 The electronic state is 1-A.
 Alpha  occ. eigenvalues --  -10.63986 -10.63505 -10.63071 -10.61558  -0.92715
 Alpha  occ. eigenvalues --   -0.84581  -0.68877  -0.63454  -0.53853  -0.53353
 Alpha  occ. eigenvalues --   -0.46315  -0.43972  -0.41181  -0.37442  -0.27583
 Alpha virt. eigenvalues --    0.01335   0.06783   0.07368   0.07498   0.09018
 Alpha virt. eigenvalues --    0.11339   0.12440   0.13887   0.15677   0.16721
 Alpha virt. eigenvalues --    0.18815   0.19551   0.21336   0.22369   0.24003

 Mulliken charges:
               1
     1  C   -0.158810
     2  C   -0.052324
     3  C   -0.021204
     4  C   -0.170297
     5  H    0.080031
     6  H    0.057454
     7  H    0.071816
     8  H    0.047281
     9  H    0.067214
    10  H    0.078840
 Sum of Mulliken charges =   0.00000

 Dipole moment (field-independent basis, Debye):
    X=             -0.0123    Y=              0.0325    Z=              0.0772  Tot=              0.0846
 Quadrupole moment (field-independent basis, Debye-Ang):
   XX=            -23.3268   YY=            -23.4649   ZZ=            -29.4753
   XY=              0.2400   XZ=              0.3670   YZ=             -0.1039

 1\1\GINC-NODE17\SP\RB2PLYPD3-FC\def2QZVP\C4H6\BOITTIER\26-Aug-2020\0\\
 #p B2PLYPD3/Def2QZVP\\butadiene\\0,1\C,0,-3.850088,0.240087,-0.026686\
 C,0,-2.727588,-0.547347,0.08565\C,0,-1.380374,0.031479,0.078071\C,0,-0
 .250102,-0.616999,-0.034919\H,0,-5.016735,-0.07541,-0.074647\H,0,-3.68
 3629,1.346877,-0.074858\H,0,-2.880818,-1.598482,0.049444\H,0,-1.249131
 ,1.157808,0.133432\H,0,-0.166696,-1.70025,0.258337\H,0,0.68274,-0.0769
 22,-0.174191\\Version=ES64L-G09RevD.01\State=1-A\HF=-155.6738654\MP2=-
 155.9018868\RMSD=4.389e-09\PG=C01 [X(C4H6)]\\@

 Normal termination of Gaussian 09 at Wed Aug 26 14:32:50 2020.
