 Gaussian 09, Revision D.01,
 Gaussian 09:  ES64L-G09RevD.01 24-Apr-2013

 --------------------
 #p B2PLYPD3/Def2QZVP
 --------------------

 ---------
 butadiene
 ---------
 Symbolic Z-matrix:
 Charge =  0 Multiplicity = 1

                         Standard orientation:
 ---------------------------------------------------------------------
 Center     Atomic      Atomic             Coordinates (Angstroms)
 Number     Number       Type             X           Y           Z
 ---------------------------------------------------------------------
      1          6           0       -1.868511    0.091146   -0.023300
      2          6           0       -0.637413   -0.382649    0.036811
      3          6           0        0.621695    0.450321   -0.040963
      4          6           0        1.854782   -0.154954    0.018155
      5          1           0       -2.709286   -0.544305    0.014297
      6          1           0       -2.041435    1.106124   -0.135600
      7          1           0       -0.404625   -1.371967    0.177863
      8          1           0        0.556036    1.513937    0.233796
      9          1           0        1.960567   -1.212225   -0.227680
     10          1           0        2.815422    0.485248   -0.006895
 ---------------------------------------------------------------------

 SCF Done:  E(RB2PLYPD3) =  -155.682391497     A.U. after   12 cycles
 E2(B2PLYPD3) =    -0.2267170587D+00 E(B2PLYPD3) =    -0.15590910855542D+03

 The electronic state is 1-A.
 Alpha  occ. eigenvalues --  -10.63691 -10.63038 -10.62213 -10.60576  -0.92255
 Alpha  occ. eigenvalues --   -0.84679  -0.69885  -0.64567  -0.54443  -0.53594
 Alpha  occ. eigenvalues --   -0.46717  -0.46016  -0.40755  -0.37024  -0.28001
 Alpha virt. eigenvalues --    0.01480   0.07034   0.07599   0.07790   0.08733
 Alpha virt. eigenvalues --    0.11705   0.12442   0.14575   0.15153   0.16140
 Alpha virt. eigenvalues --    0.18709   0.19501   0.21781   0.23341   0.23588

 Mulliken charges:
               1
     1  C   -0.172868
     2  C   -0.035086
     3  C   -0.056419
     4  C   -0.176112
     5  H    0.086163
     6  H    0.072405
     7  H    0.066047
     8  H    0.070556
     9  H    0.070261
    10  H    0.075053
 Sum of Mulliken charges =   0.00000

 Dipole moment (field-independent basis, Debye):
    X=             -0.0475    Y=             -0.0218    Z=              0.0319  Tot=              0.0612
 Quadrupole moment (field-independent basis, Debye-Ang):
   XX=            -23.4975   YY=            -23.2707   ZZ=            -29.2291
   XY=             -0.2142   XZ=             -0.1262   YZ=              0.2390

 1\1\GINC-NODE09\SP\RB2PLYPD3-FC\def2QZVP\C4H6\BOITTIER\26-Aug-2020\0\\
 #p B2PLYPD3/Def2QZVP\\butadiene\\0,1\C,0,-3.873552,0.198104,0.002322\C
 ,0,-2.743098,-0.48131,0.066876\C,0,-1.358797,0.120232,-0.017371\C,0,-0
 .249166,-0.689022,0.047291\H,0,-4.811668,-0.281728,0.044905\H,0,-3.868
 127,1.226724,-0.118533\H,0,-2.685089,-1.494792,0.216291\H,0,-1.23889,1
 .181383,0.248454\H,0,-0.328423,-1.750637,-0.189649\H,0,0.807839,-0.225
 175,0.017262\\Version=ES64L-G09RevD.01\State=1-A\HF=-155.6823915\MP2=-
 155.9091086\RMSD=2.962e-09\PG=C01 [X(C4H6)]\\@

 Normal termination of Gaussian 09 at Wed Aug 26 11:34:57 2020.
