 Gaussian 09, Revision D.01,
 Gaussian 09:  ES64L-G09RevD.01 24-Apr-2013

 --------------------
 #p B2PLYPD3/Def2QZVP
 --------------------

 ---------
 butadiene
 ---------
 Symbolic Z-matrix:
 Charge =  0 Multiplicity = 1

                         Standard orientation:
 ---------------------------------------------------------------------
 Center     Atomic      Atomic             Coordinates (Angstroms)
 Number     Number       Type             X           Y           Z
 ---------------------------------------------------------------------
      1          6           0       -1.832775   -0.114194    0.009606
      2          6           0       -0.612172    0.405249   -0.020274
      3          6           0        0.599273   -0.379291   -0.030753
      4          6           0        1.844376    0.094339    0.018341
      5          1           0       -2.695516    0.512966    0.082174
      6          1           0       -2.012394   -1.192251    0.045173
      7          1           0       -0.502723    1.473022   -0.018982
      8          1           0        0.436497   -1.452380   -0.065144
      9          1           0        2.056534    1.173334   -0.015607
     10          1           0        2.725384   -0.551312    0.110872
 ---------------------------------------------------------------------

 SCF Done:  E(RB2PLYPD3) =  -155.700175993     A.U. after   11 cycles
 E2(B2PLYPD3) =    -0.2255518368D+00 E(B2PLYPD3) =    -0.15592572782963D+03

 The electronic state is 1-A.
 Alpha  occ. eigenvalues --  -10.62434 -10.62219 -10.61851 -10.61429  -0.93209
 Alpha  occ. eigenvalues --   -0.84992  -0.70294  -0.64056  -0.54845  -0.53730
 Alpha  occ. eigenvalues --   -0.47018  -0.45339  -0.40965  -0.38243  -0.27757
 Alpha virt. eigenvalues --    0.01699   0.06981   0.07423   0.08067   0.09776
 Alpha virt. eigenvalues --    0.11641   0.12409   0.14733   0.15867   0.16138
 Alpha virt. eigenvalues --    0.18856   0.20567   0.21603   0.22676   0.23641

 Mulliken charges:
               1
     1  C   -0.172060
     2  C   -0.029280
     3  C   -0.029144
     4  C   -0.174828
     5  H    0.084595
     6  H    0.063598
     7  H    0.055534
     8  H    0.053414
     9  H    0.062863
    10  H    0.085308
 Sum of Mulliken charges =   0.00000

 Dipole moment (field-independent basis, Debye):
    X=             -0.0410    Y=              0.0170    Z=              0.0915  Tot=              0.1017
 Quadrupole moment (field-independent basis, Debye-Ang):
   XX=            -23.3614   YY=            -23.2086   ZZ=            -29.2084
   XY=              0.1839   XZ=             -0.0539   YZ=             -0.0498

 1\1\GINC-NODE38\SP\RB2PLYPD3-FC\def2QZVP\C4H6\BOITTIER\26-Aug-2020\0\\
 #p B2PLYPD3/Def2QZVP\\butadiene\\0,1\C,0,-3.833218,0.230658,0.004574\C
 ,0,-2.727317,-0.500826,0.054584\C,0,-1.393377,0.050219,0.041749\C,0,-0
 .255352,-0.643317,0.01136\H,0,-4.795886,-0.231197,-0.049075\H,0,-3.813
 94,1.32162,-0.067301\H,0,-2.813864,-1.570142,0.089114\H,0,-1.358177,1.
 135556,0.039998\H,0,-0.242811,-1.741172,0.081723\H,0,0.728019,-0.17209
 ,-0.100572\\Version=ES64L-G09RevD.01\State=1-A\HF=-155.700176\MP2=-155
 .9257278\RMSD=3.613e-09\PG=C01 [X(C4H6)]\\@

 Normal termination of Gaussian 09 at Wed Aug 26 19:38:06 2020.
