 Gaussian 09, Revision D.01,
 Gaussian 09:  ES64L-G09RevD.01 24-Apr-2013

 --------------------
 #p B2PLYPD3/Def2QZVP
 --------------------

 ---------
 butadiene
 ---------
 Symbolic Z-matrix:
 Charge =  0 Multiplicity = 1

                         Standard orientation:
 ---------------------------------------------------------------------
 Center     Atomic      Atomic             Coordinates (Angstroms)
 Number     Number       Type             X           Y           Z
 ---------------------------------------------------------------------
      1          6           0       -1.794481   -0.124345   -0.077064
      2          6           0       -0.597116    0.445491    0.097044
      3          6           0        0.570155   -0.365953    0.021954
      4          6           0        1.820537    0.065354   -0.029333
      5          1           0       -2.689763    0.405573    0.028486
      6          1           0       -1.982647   -1.224144   -0.013092
      7          1           0       -0.488674    1.605623   -0.051434
      8          1           0        0.369646   -1.447433    0.069804
      9          1           0        2.098808    1.118658   -0.096899
     10          1           0        2.698062   -0.581551   -0.012474
 ---------------------------------------------------------------------

 SCF Done:  E(RB2PLYPD3) =  -155.685300448     A.U. after   11 cycles
 E2(B2PLYPD3) =    -0.2268838227D+00 E(B2PLYPD3) =    -0.15591218427089D+03

 The electronic state is 1-A.
 Alpha  occ. eigenvalues --  -10.63440 -10.62296 -10.61688 -10.61382  -0.93535
 Alpha  occ. eigenvalues --   -0.84809  -0.70544  -0.63193  -0.55196  -0.53187
 Alpha  occ. eigenvalues --   -0.46583  -0.44392  -0.40771  -0.38540  -0.27651
 Alpha virt. eigenvalues --    0.01368   0.06977   0.07098   0.07971   0.09311
 Alpha virt. eigenvalues --    0.11531   0.12614   0.14789   0.15182   0.16633
 Alpha virt. eigenvalues --    0.18846   0.19451   0.22278   0.23057   0.23547

 Mulliken charges:
               1
     1  C   -0.154186
     2  C   -0.032400
     3  C   -0.019799
     4  C   -0.176253
     5  H    0.078101
     6  H    0.053591
     7  H    0.056596
     8  H    0.053081
     9  H    0.059729
    10  H    0.081540
 Sum of Mulliken charges =   0.00000

 Dipole moment (field-independent basis, Debye):
    X=             -0.0957    Y=             -0.0133    Z=              0.0179  Tot=              0.0983
 Quadrupole moment (field-independent basis, Debye-Ang):
   XX=            -23.2996   YY=            -23.3373   ZZ=            -29.2450
   XY=              0.4717   XZ=             -0.2077   YZ=             -0.2756

 1\1\GINC-NODE32\SP\RB2PLYPD3-FC\def2QZVP\C4H6\BOITTIER\26-Aug-2020\0\\
 #p B2PLYPD3/Def2QZVP\\butadiene\\0,1\C,0,-3.788951,0.253589,0.088917\C
 ,0,-2.722619,-0.540756,-0.054821\C,0,-1.421932,0.036059,-0.008982\C,0,
 -0.276397,-0.622819,0.066778\H,0,-4.769121,-0.100213,0.001882\H,0,-3.7
 64457,1.365306,-0.023073\H,0,-2.836576,-1.69283,0.143801\H,0,-1.412988
 ,1.132853,-0.104139\H,0,-0.203569,-1.705937,0.180799\H,0,0.708197,-0.1
 56166,0.026415\\Version=ES64L-G09RevD.01\State=1-A\HF=-155.6853004\MP2
 =-155.9121843\RMSD=9.345e-09\PG=C01 [X(C4H6)]\\@

 Normal termination of Gaussian 09 at Wed Aug 26 14:14:08 2020.
