 Gaussian 09, Revision D.01,
 Gaussian 09:  ES64L-G09RevD.01 24-Apr-2013

 --------------------
 #p B2PLYPD3/Def2QZVP
 --------------------

 ---------
 butadiene
 ---------
 Symbolic Z-matrix:
 Charge =  0 Multiplicity = 1

                         Standard orientation:
 ---------------------------------------------------------------------
 Center     Atomic      Atomic             Coordinates (Angstroms)
 Number     Number       Type             X           Y           Z
 ---------------------------------------------------------------------
      1          6           0        1.811732    0.130178    0.087551
      2          6           0        0.600460   -0.413269   -0.091961
      3          6           0       -0.598121    0.353050   -0.067504
      4          6           0       -1.802784   -0.077992    0.056875
      5          1           0        2.614874   -0.565696   -0.012015
      6          1           0        1.909864    1.244877    0.109510
      7          1           0        0.433428   -1.482162   -0.153066
      8          1           0       -0.405927    1.499148   -0.083033
      9          1           0       -1.925768   -1.165916    0.291498
     10          1           0       -2.694198    0.517945   -0.062659
 ---------------------------------------------------------------------

 SCF Done:  E(RB2PLYPD3) =  -155.684550666     A.U. after   11 cycles
 E2(B2PLYPD3) =    -0.2261164405D+00 E(B2PLYPD3) =    -0.15591066710685D+03

 The electronic state is 1-A.
 Alpha  occ. eigenvalues --  -10.62239 -10.61984 -10.61916 -10.61057  -0.93927
 Alpha  occ. eigenvalues --   -0.85473  -0.70144  -0.62980  -0.54940  -0.53435
 Alpha  occ. eigenvalues --   -0.47041  -0.45302  -0.40310  -0.38307  -0.27961
 Alpha virt. eigenvalues --    0.01681   0.06977   0.07122   0.08002   0.09972
 Alpha virt. eigenvalues --    0.11847   0.12273   0.14717   0.15392   0.16133
 Alpha virt. eigenvalues --    0.18809   0.20002   0.20983   0.21856   0.24264

 Mulliken charges:
               1
     1  C   -0.170258
     2  C   -0.038929
     3  C   -0.000450
     4  C   -0.175986
     5  H    0.088021
     6  H    0.072788
     7  H    0.050267
     8  H    0.028008
     9  H    0.050908
    10  H    0.095631
 Sum of Mulliken charges =   0.00000

 Dipole moment (field-independent basis, Debye):
    X=             -0.0116    Y=             -0.0461    Z=             -0.0285  Tot=              0.0554
 Quadrupole moment (field-independent basis, Debye-Ang):
   XX=            -23.9463   YY=            -23.2915   ZZ=            -29.0654
   XY=             -0.0458   XZ=             -0.1811   YZ=             -0.1024

 1\1\GINC-NODE27\SP\RB2PLYPD3-FC\def2QZVP\C4H6\BOITTIER\26-Aug-2020\0\\
 #p B2PLYPD3/Def2QZVP\\butadiene\\0,1\C,0,-3.807866,0.243345,-0.066306\
 C,0,-2.715872,-0.508097,0.127656\C,0,-1.39721,0.024295,0.081535\C,0,-0
 .292757,-0.623713,-0.031381\H,0,-4.724472,-0.290361,0.052785\H,0,-3.69
 9974,1.35611,-0.119022\H,0,-2.747417,-1.587436,0.218209\H,0,-1.375817,
 1.186192,0.065464\H,0,-0.372713,-1.72168,-0.235899\H,0,0.693489,-0.198
 473,0.07127\\Version=ES64L-G09RevD.01\State=1-A\HF=-155.6845507\MP2=-1
 55.9106671\RMSD=9.302e-09\PG=C01 [X(C4H6)]\\@

 Normal termination of Gaussian 09 at Wed Aug 26 13:19:44 2020.
