 Gaussian 09, Revision D.01,
 Gaussian 09:  ES64L-G09RevD.01 24-Apr-2013

 --------------------
 #p B2PLYPD3/Def2QZVP
 --------------------

 ---------
 butadiene
 ---------
 Symbolic Z-matrix:
 Charge =  0 Multiplicity = 1

                         Standard orientation:
 ---------------------------------------------------------------------
 Center     Atomic      Atomic             Coordinates (Angstroms)
 Number     Number       Type             X           Y           Z
 ---------------------------------------------------------------------
      1          6           0       -1.833449    0.105241    0.019437
      2          6           0       -0.596257   -0.391233   -0.010114
      3          6           0        0.598102    0.408191   -0.012176
      4          6           0        1.827824   -0.112386    0.007385
      5          1           0       -2.688557   -0.559083    0.016150
      6          1           0       -2.020908    1.163136   -0.050326
      7          1           0       -0.455010   -1.455999   -0.001013
      8          1           0        0.471255    1.470137   -0.011970
      9          1           0        1.986188   -1.164890   -0.044007
     10          1           0        2.729712    0.487824    0.063977
 ---------------------------------------------------------------------

 SCF Done:  E(RB2PLYPD3) =  -155.700929470     A.U. after   11 cycles
 E2(B2PLYPD3) =    -0.2254165239D+00 E(B2PLYPD3) =    -0.15592634599410D+03

 The electronic state is 1-A.
 Alpha  occ. eigenvalues --  -10.62227 -10.62153 -10.61358 -10.61356  -0.93340
 Alpha  occ. eigenvalues --   -0.84927  -0.70412  -0.64534  -0.54694  -0.54191
 Alpha  occ. eigenvalues --   -0.46688  -0.45757  -0.41412  -0.38299  -0.27553
 Alpha virt. eigenvalues --    0.01668   0.07011   0.07500   0.08107   0.09671
 Alpha virt. eigenvalues --    0.11730   0.12510   0.14850   0.15898   0.16183
 Alpha virt. eigenvalues --    0.18766   0.20466   0.21765   0.22982   0.23832

 Mulliken charges:
               1
     1  C   -0.178299
     2  C   -0.028017
     3  C   -0.029333
     4  C   -0.175410
     5  H    0.083558
     6  H    0.067230
     7  H    0.055418
     8  H    0.057422
     9  H    0.064580
    10  H    0.082851
 Sum of Mulliken charges =   0.00000

 Dipole moment (field-independent basis, Debye):
    X=              0.0333    Y=             -0.0086    Z=             -0.0473  Tot=              0.0585
 Quadrupole moment (field-independent basis, Debye-Ang):
   XX=            -23.4669   YY=            -23.1042   ZZ=            -29.1789
   XY=             -0.1956   XZ=              0.1674   YZ=              0.0062

 1\1\GINC-NODE13\SP\RB2PLYPD3-FC\def2QZVP\C4H6\BOITTIER\26-Aug-2020\0\\
 #p B2PLYPD3/Def2QZVP\\butadiene\\0,1\C,0,-3.835342,0.222318,0.034838\C
 ,0,-2.709514,-0.492105,0.024189\C,0,-1.389403,0.07568,0.001741\C,0,-0.
 275196,-0.659582,0.040887\H,0,-4.797267,-0.274722,0.048927\H,0,-3.8268
 99,1.294054,-0.067435\H,0,-2.764793,-1.564003,0.06589\H,0,-1.320457,1.
 142463,-0.030526\H,0,-0.311555,-1.724382,0.021806\H,0,0.721161,-0.2324
 68,0.082162\\Version=ES64L-G09RevD.01\State=1-A\HF=-155.7009295\MP2=-1
 55.926346\RMSD=2.983e-09\PG=C01 [X(C4H6)]\\@

 Normal termination of Gaussian 09 at Wed Aug 26 16:22:41 2020.
