 Gaussian 09, Revision D.01,
 Gaussian 09:  ES64L-G09RevD.01 24-Apr-2013

 --------------------
 #p B2PLYPD3/Def2QZVP
 --------------------

 ---------
 butadiene
 ---------
 Symbolic Z-matrix:
 Charge =  0 Multiplicity = 1

                         Standard orientation:
 ---------------------------------------------------------------------
 Center     Atomic      Atomic             Coordinates (Angstroms)
 Number     Number       Type             X           Y           Z
 ---------------------------------------------------------------------
      1          6           0       -1.816315    0.130230    0.054263
      2          6           0       -0.600515   -0.422801   -0.031696
      3          6           0        0.583700    0.375744   -0.052322
      4          6           0        1.816631   -0.102784    0.030292
      5          1           0       -2.688031   -0.519834    0.076233
      6          1           0       -1.937916    1.224201   -0.073627
      7          1           0       -0.492031   -1.496061   -0.098119
      8          1           0        0.505550    1.510098   -0.045007
      9          1           0        2.007544   -1.148999    0.006189
     10          1           0        2.703877    0.548260    0.131104
 ---------------------------------------------------------------------

 SCF Done:  E(RB2PLYPD3) =  -155.694794805     A.U. after   11 cycles
 E2(B2PLYPD3) =    -0.2262445711D+00 E(B2PLYPD3) =    -0.15592103937616D+03

 The electronic state is 1-A.
 Alpha  occ. eigenvalues --  -10.62572 -10.62446 -10.61843 -10.61229  -0.93441
 Alpha  occ. eigenvalues --   -0.84902  -0.69872  -0.63686  -0.54691  -0.53719
 Alpha  occ. eigenvalues --   -0.46177  -0.45119  -0.41415  -0.38313  -0.27524
 Alpha virt. eigenvalues --    0.01723   0.06982   0.07235   0.07908   0.09587
 Alpha virt. eigenvalues --    0.11724   0.12390   0.14720   0.15790   0.16220
 Alpha virt. eigenvalues --    0.18638   0.20237   0.21412   0.22781   0.24138

 Mulliken charges:
               1
     1  C   -0.171399
     2  C   -0.040499
     3  C   -0.012056
     4  C   -0.176994
     5  H    0.082414
     6  H    0.070732
     7  H    0.059132
     8  H    0.044372
     9  H    0.062734
    10  H    0.081563
 Sum of Mulliken charges =   0.00000

 Dipole moment (field-independent basis, Debye):
    X=              0.0062    Y=             -0.0721    Z=             -0.0734  Tot=              0.1031
 Quadrupole moment (field-independent basis, Debye-Ang):
   XX=            -23.8159   YY=            -23.0237   ZZ=            -29.2544
   XY=              0.0312   XZ=              0.3773   YZ=              0.0164

 1\1\GINC-NODE26\SP\RB2PLYPD3-FC\def2QZVP\C4H6\BOITTIER\26-Aug-2020\0\\
 #p B2PLYPD3/Def2QZVP\\butadiene\\0,1\C,0,-3.813068,0.241767,0.066527\C
 ,0,-2.716168,-0.522313,0.00024\C,0,-1.407902,0.050148,-0.034295\C,0,-0
 .280851,-0.639485,0.06618\H,0,-4.787269,-0.240673,0.100272\H,0,-3.7363
 93,1.336235,-0.088958\H,0,-2.801954,-1.598956,-0.039102\H,0,-1.28129,1
 .179946,-0.055403\H,0,-0.28071,-1.703246,0.068881\H,0,0.708755,-0.1557
 73,0.15523\\Version=ES64L-G09RevD.01\State=1-A\HF=-155.6947948\MP2=-15
 5.9210394\RMSD=7.959e-09\PG=C01 [X(C4H6)]\\@

 Normal termination of Gaussian 09 at Wed Aug 26 08:57:40 2020.
