 Gaussian 09, Revision D.01,
 Gaussian 09:  ES64L-G09RevD.01 24-Apr-2013

 --------------------
 #p B2PLYPD3/Def2QZVP
 --------------------

 ---------
 butadiene
 ---------
 Symbolic Z-matrix:
 Charge =  0 Multiplicity = 1

                         Standard orientation:
 ---------------------------------------------------------------------
 Center     Atomic      Atomic             Coordinates (Angstroms)
 Number     Number       Type             X           Y           Z
 ---------------------------------------------------------------------
      1          6           0        1.822164    0.137339    0.022159
      2          6           0        0.601340   -0.452904   -0.067335
      3          6           0       -0.573295    0.344851   -0.068764
      4          6           0       -1.821918   -0.080699    0.070544
      5          1           0        2.710857   -0.462222    0.106478
      6          1           0        1.932101    1.302172    0.279385
      7          1           0        0.514638   -1.545281   -0.187030
      8          1           0       -0.531797    1.535164   -0.105184
      9          1           0       -2.113833   -1.078986    0.342108
     10          1           0       -2.681718    0.557637   -0.175384
 ---------------------------------------------------------------------

 SCF Done:  E(RB2PLYPD3) =  -155.674618203     A.U. after   12 cycles
 E2(B2PLYPD3) =    -0.2281330521D+00 E(B2PLYPD3) =    -0.15590275125550D+03

 The electronic state is 1-A.
 Alpha  occ. eigenvalues --  -10.63300 -10.63145 -10.63104 -10.61252  -0.93160
 Alpha  occ. eigenvalues --   -0.84483  -0.69988  -0.62672  -0.54792  -0.53037
 Alpha  occ. eigenvalues --   -0.46148  -0.44016  -0.41034  -0.37958  -0.27178
 Alpha virt. eigenvalues --    0.00924   0.06704   0.07214   0.07571   0.09446
 Alpha virt. eigenvalues --    0.11347   0.12255   0.14717   0.15477   0.16552
 Alpha virt. eigenvalues --    0.18630   0.19217   0.21576   0.21982   0.23560

 Mulliken charges:
               1
     1  C   -0.157945
     2  C   -0.057684
     3  C   -0.008637
     4  C   -0.179053
     5  H    0.084683
     6  H    0.060775
     7  H    0.069968
     8  H    0.047083
     9  H    0.060883
    10  H    0.079927
 Sum of Mulliken charges =   0.00000

 Dipole moment (field-independent basis, Debye):
    X=              0.0277    Y=             -0.1547    Z=              0.1616  Tot=              0.2254
 Quadrupole moment (field-independent basis, Debye-Ang):
   XX=            -23.8215   YY=            -23.2808   ZZ=            -29.2577
   XY=             -0.0248   XZ=              0.5729   YZ=             -0.0278

 1\1\GINC-NODE33\SP\RB2PLYPD3-FC\def2QZVP\C4H6\BOITTIER\26-Aug-2020\0\\
 #p B2PLYPD3/Def2QZVP\\butadiene\\0,1\C,0,-3.81451,0.253086,-0.01835\C,
 0,-2.720577,-0.543865,0.104069\C,0,-1.420908,0.027423,0.078087\C,0,-0.
 27024,-0.622748,-0.035044\H,0,-4.79723,-0.178845,-0.082024\H,0,-3.7121
 91,1.406204,-0.326468\H,0,-2.832882,-1.627601,0.271507\H,0,-1.246123,1
 .206026,0.062646\H,0,-0.164414,-1.668281,-0.261316\H,0,0.691387,-0.140
 426,0.188229\\Version=ES64L-G09RevD.01\State=1-A\HF=-155.6746182\MP2=-
 155.9027513\RMSD=3.800e-09\PG=C01 [X(C4H6)]\\@

 Normal termination of Gaussian 09 at Wed Aug 26 11:56:54 2020.
