 Gaussian 09, Revision D.01,
 Gaussian 09:  ES64L-G09RevD.01 24-Apr-2013

 --------------------
 #p B2PLYPD3/Def2QZVP
 --------------------

 ---------
 butadiene
 ---------
 Symbolic Z-matrix:
 Charge =  0 Multiplicity = 1

                         Standard orientation:
 ---------------------------------------------------------------------
 Center     Atomic      Atomic             Coordinates (Angstroms)
 Number     Number       Type             X           Y           Z
 ---------------------------------------------------------------------
      1          6           0        1.845130   -0.116312   -0.008864
      2          6           0        0.619458    0.411492   -0.012293
      3          6           0       -0.602917   -0.395846    0.008573
      4          6           0       -1.847314    0.107338    0.002956
      5          1           0        2.749318    0.489103    0.053171
      6          1           0        1.990289   -1.171758   -0.026615
      7          1           0        0.462685    1.484412    0.064660
      8          1           0       -0.502866   -1.458101    0.016949
      9          1           0       -2.061810    1.151265   -0.066895
     10          1           0       -2.723757   -0.534954    0.016498
 ---------------------------------------------------------------------

 SCF Done:  E(RB2PLYPD3) =  -155.700243523     A.U. after   11 cycles
 E2(B2PLYPD3) =    -0.2256062808D+00 E(B2PLYPD3) =    -0.15592584980357D+03

 The electronic state is 1-A.
 Alpha  occ. eigenvalues --  -10.62739 -10.62517 -10.61513 -10.61461  -0.92775
 Alpha  occ. eigenvalues --   -0.84879  -0.70229  -0.64456  -0.54548  -0.54022
 Alpha  occ. eigenvalues --   -0.46852  -0.45740  -0.41099  -0.37935  -0.27702
 Alpha virt. eigenvalues --    0.01697   0.06994   0.07525   0.08083   0.09461
 Alpha virt. eigenvalues --    0.11643   0.12520   0.14719   0.15801   0.16262
 Alpha virt. eigenvalues --    0.18884   0.20445   0.21779   0.22839   0.23768

 Mulliken charges:
               1
     1  C   -0.171897
     2  C   -0.035331
     3  C   -0.033547
     4  C   -0.175783
     5  H    0.084304
     6  H    0.067560
     7  H    0.059525
     8  H    0.058631
     9  H    0.065617
    10  H    0.080921
 Sum of Mulliken charges =   0.00000

 Dipole moment (field-independent basis, Debye):
    X=              0.0146    Y=             -0.0132    Z=              0.0440  Tot=              0.0482
 Quadrupole moment (field-independent basis, Debye-Ang):
   XX=            -23.2883   YY=            -23.1485   ZZ=            -29.2666
   XY=             -0.2583   XZ=              0.2483   YZ=              0.0431

 1\1\GINC-NODE38\SP\RB2PLYPD3-FC\def2QZVP\C4H6\BOITTIER\26-Aug-2020\0\\
 #p B2PLYPD3/Def2QZVP\\butadiene\\0,1\C,0,-3.844982,0.229353,0.013666\C
 ,0,-2.733367,-0.508876,0.027456\C,0,-1.38632,0.067199,0.021679\C,0,-0.
 251896,-0.650238,0.032473\H,0,-4.842398,-0.202358,0.095637\H,0,-3.7993
 48,1.292615,-0.038726\H,0,-2.770343,-1.589485,0.13959\H,0,-1.294932,1.
 129937,-0.004827\H,0,-0.227775,-1.717396,-0.003076\H,0,0.72526,-0.1748
 63,0.024829\\Version=ES64L-G09RevD.01\State=1-A\HF=-155.7002435\MP2=-1
 55.9258498\RMSD=2.239e-09\PG=C01 [X(C4H6)]\\@

 Normal termination of Gaussian 09 at Wed Aug 26 08:56:54 2020.
