 Gaussian 09, Revision D.01,
 Gaussian 09:  ES64L-G09RevD.01 24-Apr-2013

 --------------------
 #p B2PLYPD3/Def2QZVP
 --------------------

 ---------
 butadiene
 ---------
 Symbolic Z-matrix:
 Charge =  0 Multiplicity = 1

                         Standard orientation:
 ---------------------------------------------------------------------
 Center     Atomic      Atomic             Coordinates (Angstroms)
 Number     Number       Type             X           Y           Z
 ---------------------------------------------------------------------
      1          6           0       -1.877146    0.075943   -0.014688
      2          6           0       -0.601400   -0.382247    0.041068
      3          6           0        0.633116    0.443181    0.054577
      4          6           0        1.861542   -0.133520   -0.054326
      5          1           0       -2.766234   -0.526197   -0.109786
      6          1           0       -2.152960    1.197676   -0.272554
      7          1           0       -0.514148   -1.528120    0.169984
      8          1           0        0.499671    1.522162    0.274697
      9          1           0        2.100326   -1.158129   -0.078172
     10          1           0        2.736671    0.472472   -0.143950
 ---------------------------------------------------------------------

 SCF Done:  E(RB2PLYPD3) =  -155.679373303     A.U. after   11 cycles
 E2(B2PLYPD3) =    -0.2280749942D+00 E(B2PLYPD3) =    -0.15590744829742D+03

 The electronic state is 1-A.
 Alpha  occ. eigenvalues --  -10.64145 -10.64093 -10.62763 -10.61900  -0.91826
 Alpha  occ. eigenvalues --   -0.84245  -0.70386  -0.63090  -0.54539  -0.52843
 Alpha  occ. eigenvalues --   -0.47255  -0.44553  -0.40316  -0.37005  -0.27611
 Alpha virt. eigenvalues --    0.01100   0.07029   0.07189   0.07591   0.08888
 Alpha virt. eigenvalues --    0.11103   0.12507   0.14294   0.15636   0.16322
 Alpha virt. eigenvalues --    0.18932   0.20433   0.21755   0.21950   0.23016

 Mulliken charges:
               1
     1  C   -0.164902
     2  C   -0.038770
     3  C   -0.049386
     4  C   -0.165879
     5  H    0.084374
     6  H    0.045742
     7  H    0.055750
     8  H    0.078171
     9  H    0.076239
    10  H    0.078659
 Sum of Mulliken charges =   0.00000

 Dipole moment (field-independent basis, Debye):
    X=              0.1748    Y=             -0.0776    Z=             -0.0729  Tot=              0.2047
 Quadrupole moment (field-independent basis, Debye-Ang):
   XX=            -23.1054   YY=            -23.4233   ZZ=            -29.4690
   XY=             -0.3127   XZ=              0.3435   YZ=             -0.0495

 1\1\GINC-NODE29\SP\RB2PLYPD3-FC\def2QZVP\C4H6\BOITTIER\26-Aug-2020\0\\
 #p B2PLYPD3/Def2QZVP\\butadiene\\0,1\C,0,-3.887184,0.196777,-0.00479\C
 ,0,-2.714685,-0.481354,0.072398\C,0,-1.351814,0.108646,0.067365\C,0,-0
 .247178,-0.682682,-0.016624\H,0,-4.87009,-0.238369,-0.086254\H,0,-3.95
 6686,1.341135,-0.298843\H,0,-2.835008,-1.619601,0.237239\H,0,-1.288976
 ,1.200424,0.253195\H,0,-0.19662,-1.733761,-0.007361\H,0,0.722696,-0.24
 7055,-0.119988\\Version=ES64L-G09RevD.01\State=1-A\HF=-155.6793733\MP2
 =-155.9074483\RMSD=9.560e-09\PG=C01 [X(C4H6)]\\@

 Normal termination of Gaussian 09 at Wed Aug 26 14:58:40 2020.
