 Gaussian 09, Revision D.01,
 Gaussian 09:  ES64L-G09RevD.01 24-Apr-2013

 --------------------
 #p B2PLYPD3/Def2QZVP
 --------------------

 ---------
 butadiene
 ---------
 Symbolic Z-matrix:
 Charge =  0 Multiplicity = 1

                         Standard orientation:
 ---------------------------------------------------------------------
 Center     Atomic      Atomic             Coordinates (Angstroms)
 Number     Number       Type             X           Y           Z
 ---------------------------------------------------------------------
      1          6           0        1.849753   -0.107540    0.016042
      2          6           0        0.599754    0.392161   -0.027834
      3          6           0       -0.614930   -0.417047   -0.022462
      4          6           0       -1.846283    0.117355    0.012456
      5          1           0        2.712405    0.543459    0.098674
      6          1           0        2.060723   -1.136083    0.006296
      7          1           0        0.512043    1.468088   -0.074372
      8          1           0       -0.467653   -1.484792   -0.016372
      9          1           0       -2.003313    1.194501    0.063305
     10          1           0       -2.743962   -0.494748    0.053259
 ---------------------------------------------------------------------

 SCF Done:  E(RB2PLYPD3) =  -155.699519680     A.U. after   11 cycles
 E2(B2PLYPD3) =    -0.2259400003D+00 E(B2PLYPD3) =    -0.15592545968023D+03

 The electronic state is 1-A.
 Alpha  occ. eigenvalues --  -10.62805 -10.62657 -10.61867 -10.61276  -0.92717
 Alpha  occ. eigenvalues --   -0.84719  -0.70292  -0.64415  -0.54488  -0.54019
 Alpha  occ. eigenvalues --   -0.46619  -0.45750  -0.41376  -0.37859  -0.27516
 Alpha virt. eigenvalues --    0.01542   0.06979   0.07512   0.08054   0.09438
 Alpha virt. eigenvalues --    0.11632   0.12490   0.14700   0.15874   0.16242
 Alpha virt. eigenvalues --    0.18865   0.20497   0.21715   0.22809   0.23729

 Mulliken charges:
               1
     1  C   -0.179667
     2  C   -0.027449
     3  C   -0.042206
     4  C   -0.169536
     5  H    0.081422
     6  H    0.066972
     7  H    0.058032
     8  H    0.061123
     9  H    0.067203
    10  H    0.084104
 Sum of Mulliken charges =   0.00000

 Dipole moment (field-independent basis, Debye):
    X=             -0.0133    Y=             -0.0181    Z=              0.0854  Tot=              0.0883
 Quadrupole moment (field-independent basis, Debye-Ang):
   XX=            -23.3756   YY=            -23.0862   ZZ=            -29.3124
   XY=             -0.2258   XZ=             -0.0131   YZ=              0.0366

 1\1\GINC-NODE28\SP\RB2PLYPD3-FC\def2QZVP\C4H6\BOITTIER\26-Aug-2020\0\\
 #p B2PLYPD3/Def2QZVP\\butadiene\\0,1\C,0,-3.854436,0.221194,0.036087\C
 ,0,-2.714277,-0.495397,0.010425\C,0,-1.374323,0.082977,-0.007222\C,0,-
 0.258432,-0.661932,0.046925\H,0,-4.819399,-0.261895,0.137423\H,0,-3.87
 7873,1.270074,-0.0064\H,0,-2.820797,-1.570559,-0.002099\H,0,-1.32802,1
 .159496,-0.034987\H,0,-0.296615,-1.747661,0.131915\H,0,0.73448,-0.2195
 03,0.070255\\Version=ES64L-G09RevD.01\State=1-A\HF=-155.6995197\MP2=-1
 55.9254597\RMSD=2.592e-09\PG=C01 [X(C4H6)]\\@

 Normal termination of Gaussian 09 at Wed Aug 26 16:39:59 2020.
