 Gaussian 09, Revision D.01,
 Gaussian 09:  ES64L-G09RevD.01 24-Apr-2013

 --------------------
 #p B2PLYPD3/Def2QZVP
 --------------------

 ---------
 butadiene
 ---------
 Symbolic Z-matrix:
 Charge =  0 Multiplicity = 1

                         Standard orientation:
 ---------------------------------------------------------------------
 Center     Atomic      Atomic             Coordinates (Angstroms)
 Number     Number       Type             X           Y           Z
 ---------------------------------------------------------------------
      1          6           0        1.841456    0.106841    0.018468
      2          6           0        0.608819   -0.406306   -0.018293
      3          6           0       -0.605970    0.418430   -0.029421
      4          6           0       -1.834741   -0.122288    0.027413
      5          1           0        2.716859   -0.533923    0.054793
      6          1           0        1.985687    1.166401    0.007970
      7          1           0        0.423137   -1.458259   -0.051896
      8          1           0       -0.488417    1.516720   -0.034885
      9          1           0       -1.986830   -1.173024   -0.010243
     10          1           0       -2.707824    0.502024    0.045253
 ---------------------------------------------------------------------

 SCF Done:  E(RB2PLYPD3) =  -155.700066982     A.U. after   11 cycles
 E2(B2PLYPD3) =    -0.2257334806D+00 E(B2PLYPD3) =    -0.15592580046259D+03

 The electronic state is 1-A.
 Alpha  occ. eigenvalues --  -10.62890 -10.62464 -10.61404 -10.61292  -0.92771
 Alpha  occ. eigenvalues --   -0.84830  -0.70095  -0.64301  -0.54428  -0.54041
 Alpha  occ. eigenvalues --   -0.46641  -0.46051  -0.41234  -0.37858  -0.27629
 Alpha virt. eigenvalues --    0.01818   0.07030   0.07408   0.08125   0.09350
 Alpha virt. eigenvalues --    0.11729   0.12475   0.14734   0.15870   0.16087
 Alpha virt. eigenvalues --    0.18757   0.20460   0.21662   0.23260   0.23808

 Mulliken charges:
               1
     1  C   -0.177040
     2  C   -0.033175
     3  C   -0.030263
     4  C   -0.179335
     5  H    0.086207
     6  H    0.069422
     7  H    0.058926
     8  H    0.053213
     9  H    0.067561
    10  H    0.084484
 Sum of Mulliken charges =   0.00000

 Dipole moment (field-independent basis, Debye):
    X=             -0.0228    Y=             -0.0129    Z=             -0.0254  Tot=              0.0365
 Quadrupole moment (field-independent basis, Debye-Ang):
   XX=            -23.5822   YY=            -22.9931   ZZ=            -29.2975
   XY=              0.2224   XZ=              0.0563   YZ=              0.0406

 1\1\GINC-NODE03\SP\RB2PLYPD3-FC\def2QZVP\C4H6\BOITTIER\26-Aug-2020\0\\
 #p B2PLYPD3/Def2QZVP\\butadiene\\0,1\C,0,-3.843191,0.22123,-0.001409\C
 ,0,-2.722911,-0.503995,0.054157\C,0,-1.379506,0.088588,0.042618\C,0,-0
 .268294,-0.665941,0.005479\H,0,-4.819727,-0.252333,-0.019947\H,0,-3.79
 4353,1.289257,-0.024079\H,0,-2.729462,-1.57064,0.12077\H,0,-1.297473,1
 .189736,0.01378\H,0,-0.307658,-1.725219,0.076026\H,0,0.702824,-0.20981
 ,-0.029617\\Version=ES64L-G09RevD.01\State=1-A\HF=-155.700067\MP2=-155
 .9258005\RMSD=4.461e-09\PG=C01 [X(C4H6)]\\@

 Normal termination of Gaussian 09 at Wed Aug 26 16:16:50 2020.
