 Gaussian 09, Revision D.01,
 Gaussian 09:  ES64L-G09RevD.01 24-Apr-2013

 --------------------
 #p B2PLYPD3/Def2QZVP
 --------------------

 ---------
 butadiene
 ---------
 Symbolic Z-matrix:
 Charge =  0 Multiplicity = 1

                         Standard orientation:
 ---------------------------------------------------------------------
 Center     Atomic      Atomic             Coordinates (Angstroms)
 Number     Number       Type             X           Y           Z
 ---------------------------------------------------------------------
      1          6           0        1.868440    0.111896   -0.011376
      2          6           0        0.606726   -0.343882    0.014542
      3          6           0       -0.638457    0.393300    0.086048
      4          6           0       -1.848975   -0.131792   -0.057530
      5          1           0        2.600630   -0.687430   -0.127070
      6          1           0        2.139952    1.165763   -0.247501
      7          1           0        0.469661   -1.384299    0.272163
      8          1           0       -0.551635    1.428344    0.177618
      9          1           0       -1.799855   -1.192654   -0.144835
     10          1           0       -2.785157    0.493142   -0.120484
 ---------------------------------------------------------------------

 SCF Done:  E(RB2PLYPD3) =  -155.684702844     A.U. after   11 cycles
 E2(B2PLYPD3) =    -0.2265410158D+00 E(B2PLYPD3) =    -0.15591124385943D+03

 The electronic state is 1-A.
 Alpha  occ. eigenvalues --  -10.62562 -10.62080 -10.61913 -10.61685  -0.93290
 Alpha  occ. eigenvalues --   -0.85246  -0.70086  -0.64188  -0.54590  -0.53396
 Alpha  occ. eigenvalues --   -0.46707  -0.45615  -0.41162  -0.37474  -0.28020
 Alpha virt. eigenvalues --    0.01373   0.06958   0.07675   0.07770   0.09487
 Alpha virt. eigenvalues --    0.11665   0.12272   0.14821   0.15065   0.16003
 Alpha virt. eigenvalues --    0.18047   0.19658   0.21534   0.22515   0.24460

 Mulliken charges:
               1
     1  C   -0.180864
     2  C   -0.037707
     3  C   -0.030291
     4  C   -0.172321
     5  H    0.079718
     6  H    0.071747
     7  H    0.056186
     8  H    0.054970
     9  H    0.062359
    10  H    0.096203
 Sum of Mulliken charges =   0.00000

 Dipole moment (field-independent basis, Debye):
    X=             -0.1166    Y=              0.0618    Z=             -0.1398  Tot=              0.1923
 Quadrupole moment (field-independent basis, Debye-Ang):
   XX=            -23.8808   YY=            -23.3253   ZZ=            -29.0786
   XY=             -0.3104   XZ=             -0.2202   YZ=             -0.2422

 1\1\GINC-NODE06\SP\RB2PLYPD3-FC\def2QZVP\C4H6\BOITTIER\26-Aug-2020\0\\
 #p B2PLYPD3/Def2QZVP\\butadiene\\0,1\C,0,-3.87545,0.213525,0.039027\C,
 0,-2.710832,-0.452513,0.019448\C,0,-1.357898,0.05858,-0.066499\C,0,-0.
 254893,-0.664067,0.084667\H,0,-4.733491,-0.44612,0.169583\H,0,-3.96100
 9,1.302213,0.257082\H,0,-2.755506,-1.505231,-0.220162\H,0,-1.266136,1.
 091454,-0.175997\H,0,-0.485028,-1.6991,0.190525\H,0,0.774932,-0.208196
 ,0.135513\\Version=ES64L-G09RevD.01\State=1-A\HF=-155.6847028\MP2=-155
 .9112439\RMSD=5.991e-09\PG=C01 [X(C4H6)]\\@

 Normal termination of Gaussian 09 at Wed Aug 26 15:31:36 2020.
