 Gaussian 09, Revision D.01,
 Gaussian 09:  ES64L-G09RevD.01 24-Apr-2013

 --------------------
 #p B2PLYPD3/Def2QZVP
 --------------------

 ---------
 butadiene
 ---------
 Symbolic Z-matrix:
 Charge =  0 Multiplicity = 1

                         Standard orientation:
 ---------------------------------------------------------------------
 Center     Atomic      Atomic             Coordinates (Angstroms)
 Number     Number       Type             X           Y           Z
 ---------------------------------------------------------------------
      1          6           0        1.836410   -0.126655   -0.012472
      2          6           0        0.613249    0.407709    0.005141
      3          6           0       -0.604447   -0.367348   -0.008101
      4          6           0       -1.848036    0.097019    0.001937
      5          1           0        2.714893    0.526032    0.068934
      6          1           0        2.020101   -1.192996   -0.007281
      7          1           0        0.515614    1.479784    0.042062
      8          1           0       -0.434058   -1.396367   -0.033716
      9          1           0       -2.099535    1.088184   -0.114085
     10          1           0       -2.700072   -0.568993    0.125066
 ---------------------------------------------------------------------

 SCF Done:  E(RB2PLYPD3) =  -155.696365124     A.U. after   11 cycles
 E2(B2PLYPD3) =    -0.2251117635D+00 E(B2PLYPD3) =    -0.15592147688799D+03

 The electronic state is 1-A.
 Alpha  occ. eigenvalues --  -10.62318 -10.61836 -10.61741 -10.60890  -0.93277
 Alpha  occ. eigenvalues --   -0.85137  -0.70742  -0.64740  -0.54838  -0.54246
 Alpha  occ. eigenvalues --   -0.46953  -0.46102  -0.41132  -0.38077  -0.27669
 Alpha virt. eigenvalues --    0.01570   0.06927   0.07643   0.08115   0.09784
 Alpha virt. eigenvalues --    0.11722   0.12465   0.14952   0.15813   0.16158
 Alpha virt. eigenvalues --    0.18888   0.20474   0.21810   0.22753   0.23807

 Mulliken charges:
               1
     1  C   -0.174200
     2  C   -0.034120
     3  C   -0.030214
     4  C   -0.178796
     5  H    0.081091
     6  H    0.067335
     7  H    0.056822
     8  H    0.061523
     9  H    0.071371
    10  H    0.079188
 Sum of Mulliken charges =   0.00000

 Dipole moment (field-independent basis, Debye):
    X=              0.0163    Y=              0.0151    Z=              0.0604  Tot=              0.0644
 Quadrupole moment (field-independent basis, Debye-Ang):
   XX=            -23.3483   YY=            -23.1798   ZZ=            -29.0866
   XY=             -0.3426   XZ=              0.1126   YZ=             -0.0845

 1\1\GINC-NODE02\SP\RB2PLYPD3-FC\def2QZVP\C4H6\BOITTIER\26-Aug-2020\0\\
 #p B2PLYPD3/Def2QZVP\\butadiene\\0,1\C,0,-3.8354,0.241799,0.009514\C,0
 ,-2.72877,-0.504046,0.042124\C,0,-1.391206,0.037712,0.009049\C,0,-0.25
 1876,-0.643201,0.032238\H,0,-4.816949,-0.239119,0.107691\H,0,-3.823502
 ,1.323542,-0.013786\H,0,-2.826167,-1.574777,0.107618\H,0,-1.373093,1.0
 79548,-0.044044\H,0,-0.183969,-1.666191,-0.05721\H,0,0.70692,-0.139029
 ,0.138152\\Version=ES64L-G09RevD.01\State=1-A\HF=-155.6963651\MP2=-155
 .9214769\RMSD=3.790e-09\PG=C01 [X(C4H6)]\\@

 Normal termination of Gaussian 09 at Wed Aug 26 09:13:36 2020.
