 Gaussian 09, Revision D.01,
 Gaussian 09:  ES64L-G09RevD.01 24-Apr-2013

 --------------------
 #p B2PLYPD3/Def2QZVP
 --------------------

 ---------
 butadiene
 ---------
 Symbolic Z-matrix:
 Charge =  0 Multiplicity = 1

                         Standard orientation:
 ---------------------------------------------------------------------
 Center     Atomic      Atomic             Coordinates (Angstroms)
 Number     Number       Type             X           Y           Z
 ---------------------------------------------------------------------
      1          6           0       -1.861511    0.116924    0.102938
      2          6           0       -0.625733   -0.444617   -0.064814
      3          6           0        0.589336    0.359824   -0.074257
      4          6           0        1.875057   -0.079352    0.049066
      5          1           0       -2.817529   -0.395697   -0.008655
      6          1           0       -1.901411    1.256032   -0.005403
      7          1           0       -0.551591   -1.502514   -0.101360
      8          1           0        0.409073    1.442852   -0.190791
      9          1           0        2.267127   -1.129646    0.043097
     10          1           0        2.731439    0.612296    0.185516
 ---------------------------------------------------------------------

 SCF Done:  E(RB2PLYPD3) =  -155.684154272     A.U. after   11 cycles
 E2(B2PLYPD3) =    -0.2284097015D+00 E(B2PLYPD3) =    -0.15591256397312D+03

 The electronic state is 1-A.
 Alpha  occ. eigenvalues --  -10.63731 -10.63236 -10.62971 -10.62839  -0.92347
 Alpha  occ. eigenvalues --   -0.83915  -0.70144  -0.64011  -0.54849  -0.52337
 Alpha  occ. eigenvalues --   -0.47067  -0.44247  -0.41226  -0.37311  -0.27357
 Alpha virt. eigenvalues --    0.00638   0.06840   0.07291   0.07926   0.09188
 Alpha virt. eigenvalues --    0.11293   0.12485   0.14376   0.15693   0.16641
 Alpha virt. eigenvalues --    0.19171   0.19376   0.21597   0.21847   0.23724

 Mulliken charges:
               1
     1  C   -0.154330
     2  C   -0.043672
     3  C   -0.034625
     4  C   -0.170371
     5  H    0.084090
     6  H    0.045877
     7  H    0.068020
     8  H    0.060498
     9  H    0.067085
    10  H    0.077429
 Sum of Mulliken charges =   0.00000

 Dipole moment (field-independent basis, Debye):
    X=              0.0483    Y=             -0.0939    Z=             -0.1833  Tot=              0.2115
 Quadrupole moment (field-independent basis, Debye-Ang):
   XX=            -23.0709   YY=            -23.5155   ZZ=            -29.5722
   XY=             -0.2011   XZ=              0.6952   YZ=             -0.0380

 1\1\GINC-NODE20\SP\RB2PLYPD3-FC\def2QZVP\C4H6\BOITTIER\26-Aug-2020\0\\
 #p B2PLYPD3/Def2QZVP\\butadiene\\0,1\C,0,-3.858144,0.244062,0.107867\C
 ,0,-2.744152,-0.536198,-0.036463\C,0,-1.403313,0.034223,-0.055908\C,0,
 -0.218981,-0.627414,0.08816\H,0,-4.890902,-0.08948,0.001257\H,0,-3.690
 431,1.368423,-0.028447\H,0,-2.862981,-1.590596,-0.046694\H,0,-1.383778
 ,1.128681,-0.200152\H,0,-0.023879,-1.731178,0.110811\H,0,0.74818,-0.09
 9183,0.214483\\Version=ES64L-G09RevD.01\State=1-A\HF=-155.6841543\MP2=
 -155.912564\RMSD=9.003e-09\PG=C01 [X(C4H6)]\\@

 Normal termination of Gaussian 09 at Wed Aug 26 14:18:59 2020.
