 Gaussian 09, Revision D.01,
 Gaussian 09:  ES64L-G09RevD.01 24-Apr-2013

 --------------------
 #p B2PLYPD3/Def2QZVP
 --------------------

 ---------
 butadiene
 ---------
 Symbolic Z-matrix:
 Charge =  0 Multiplicity = 1

                         Standard orientation:
 ---------------------------------------------------------------------
 Center     Atomic      Atomic             Coordinates (Angstroms)
 Number     Number       Type             X           Y           Z
 ---------------------------------------------------------------------
      1          6           0        1.866106   -0.083654   -0.003502
      2          6           0        0.598483    0.309194    0.009495
      3          6           0       -0.636518   -0.402689    0.027106
      4          6           0       -1.819366    0.137413   -0.045694
      5          1           0        2.720688    0.604048    0.008415
      6          1           0        2.169928   -1.056238   -0.262417
      7          1           0        0.428121    1.378792    0.197968
      8          1           0       -0.665027   -1.432734    0.246514
      9          1           0       -1.966946    1.208753   -0.102556
     10          1           0       -2.738992   -0.464209   -0.012347
 ---------------------------------------------------------------------

 SCF Done:  E(RB2PLYPD3) =  -155.689600194     A.U. after   11 cycles
 E2(B2PLYPD3) =    -0.2250535420D+00 E(B2PLYPD3) =    -0.15591465373624D+03

 The electronic state is 1-A.
 Alpha  occ. eigenvalues --  -10.62450 -10.61591 -10.61388 -10.61284  -0.93789
 Alpha  occ. eigenvalues --   -0.85663  -0.70879  -0.64203  -0.55444  -0.54028
 Alpha  occ. eigenvalues --   -0.47631  -0.44953  -0.40775  -0.37852  -0.28227
 Alpha virt. eigenvalues --    0.01578   0.07016   0.07757   0.07812   0.09985
 Alpha virt. eigenvalues --    0.11514   0.12558   0.14884   0.15465   0.16464
 Alpha virt. eigenvalues --    0.18945   0.19584   0.21958   0.22289   0.23504

 Mulliken charges:
               1
     1  C   -0.170440
     2  C   -0.036148
     3  C   -0.031388
     4  C   -0.160211
     5  H    0.077674
     6  H    0.068125
     7  H    0.050710
     8  H    0.061765
     9  H    0.060610
    10  H    0.079304
 Sum of Mulliken charges =   0.00000

 Dipole moment (field-independent basis, Debye):
    X=             -0.1351    Y=             -0.0272    Z=              0.0603  Tot=              0.1505
 Quadrupole moment (field-independent basis, Debye-Ang):
   XX=            -22.9084   YY=            -23.7028   ZZ=            -28.8354
   XY=             -0.0338   XZ=             -0.4376   YZ=              0.1234

 1\1\GINC-NODE01\SP\RB2PLYPD3-FC\def2QZVP\C4H6\BOITTIER\26-Aug-2020\0\\
 #p B2PLYPD3/Def2QZVP\\butadiene\\0,1\C,0,-3.87536,0.188362,0.009726\C,
 0,-2.695644,-0.418675,0.043537\C,0,-1.355457,0.067339,0.045631\C,0,-0.
 284847,-0.672704,-0.002026\H,0,-4.836753,-0.339149,0.038746\H,0,-4.004
 843,1.189836,-0.282759\H,0,-2.714455,-1.494718,0.267951\H,0,-1.147918,
 1.083388,0.231416\H,0,-0.326274,-1.75466,-0.022897\H,0,0.725564,-0.239
 733,0.017417\\Version=ES64L-G09RevD.01\State=1-A\HF=-155.6896002\MP2=-
 155.9146537\RMSD=5.121e-09\PG=C01 [X(C4H6)]\\@

 Normal termination of Gaussian 09 at Wed Aug 26 15:05:55 2020.
