 Gaussian 09, Revision D.01,
 Gaussian 09:  ES64L-G09RevD.01 24-Apr-2013

 --------------------
 #p B2PLYPD3/Def2QZVP
 --------------------

 ---------
 butadiene
 ---------
 Symbolic Z-matrix:
 Charge =  0 Multiplicity = 1

                         Standard orientation:
 ---------------------------------------------------------------------
 Center     Atomic      Atomic             Coordinates (Angstroms)
 Number     Number       Type             X           Y           Z
 ---------------------------------------------------------------------
      1          6           0       -1.876921    0.086323    0.003414
      2          6           0       -0.599083   -0.375805   -0.038057
      3          6           0        0.636427    0.463846   -0.086094
      4          6           0        1.827260   -0.156802    0.059781
      5          1           0       -2.659743   -0.515062    0.301968
      6          1           0       -2.007446    1.165628    0.096852
      7          1           0       -0.432188   -1.484556   -0.174508
      8          1           0        0.630966    1.533908   -0.057418
      9          1           0        1.830824   -1.264111    0.006572
     10          1           0        2.711487    0.458827    0.192275
 ---------------------------------------------------------------------

 SCF Done:  E(RB2PLYPD3) =  -155.684781360     A.U. after   11 cycles
 E2(B2PLYPD3) =    -0.2275478708D+00 E(B2PLYPD3) =    -0.15591232923126D+03

 The electronic state is 1-A.
 Alpha  occ. eigenvalues --  -10.63879 -10.63062 -10.62252 -10.61100  -0.92245
 Alpha  occ. eigenvalues --   -0.84700  -0.69506  -0.63958  -0.54495  -0.53597
 Alpha  occ. eigenvalues --   -0.46151  -0.45148  -0.41896  -0.37201  -0.27528
 Alpha virt. eigenvalues --    0.01426   0.07027   0.07302   0.07988   0.08613
 Alpha virt. eigenvalues --    0.11631   0.12600   0.14308   0.15350   0.16418
 Alpha virt. eigenvalues --    0.18800   0.19116   0.21733   0.22770   0.24223

 Mulliken charges:
               1
     1  C   -0.173376
     2  C   -0.031842
     3  C   -0.046572
     4  C   -0.168087
     5  H    0.086561
     6  H    0.057047
     7  H    0.054814
     8  H    0.065252
     9  H    0.069813
    10  H    0.086390
 Sum of Mulliken charges =   0.00000

 Dipole moment (field-independent basis, Debye):
    X=              0.2315    Y=              0.0549    Z=              0.2806  Tot=              0.3679
 Quadrupole moment (field-independent basis, Debye-Ang):
   XX=            -24.1733   YY=            -22.9679   ZZ=            -29.3382
   XY=              0.2834   XZ=             -0.4683   YZ=              0.1826

 1\1\GINC-NODE22\SP\RB2PLYPD3-FC\def2QZVP\C4H6\BOITTIER\26-Aug-2020\0\\
 #p B2PLYPD3/Def2QZVP\\butadiene\\0,1\C,0,-3.885714,0.190906,0.037949\C
 ,0,-2.706486,-0.484632,0.002994\C,0,-1.345484,0.12911,-0.066285\C,0,-0
 .278006,-0.683744,0.089687\H,0,-4.758274,-0.260763,0.351385\H,0,-3.828
 395,1.278283,0.108603\H,0,-2.733303,-1.608147,-0.110128\H,0,-1.166955,
 1.184562,-0.060512\H,0,-0.464954,-1.776061,0.06019\H,0,0.699608,-0.226
 571,0.206625\\Version=ES64L-G09RevD.01\State=1-A\HF=-155.6847814\MP2=-
 155.9123292\RMSD=9.699e-09\PG=C01 [X(C4H6)]\\@

 Normal termination of Gaussian 09 at Wed Aug 26 13:02:13 2020.
