 Gaussian 09, Revision D.01,
 Gaussian 09:  ES64L-G09RevD.01 24-Apr-2013

 --------------------
 #p B2PLYPD3/Def2QZVP
 --------------------

 ---------
 butadiene
 ---------
 Symbolic Z-matrix:
 Charge =  0 Multiplicity = 1

                         Standard orientation:
 ---------------------------------------------------------------------
 Center     Atomic      Atomic             Coordinates (Angstroms)
 Number     Number       Type             X           Y           Z
 ---------------------------------------------------------------------
      1          6           0       -1.845976   -0.122042   -0.008711
      2          6           0       -0.618175    0.415709   -0.003488
      3          6           0        0.606928   -0.390209    0.003759
      4          6           0        1.849169    0.106467    0.003242
      5          1           0       -2.732335    0.500700    0.079061
      6          1           0       -1.990147   -1.171496   -0.039297
      7          1           0       -0.477409    1.469123   -0.011547
      8          1           0        0.492392   -1.468607    0.022167
      9          1           0        2.053062    1.169227   -0.021865
     10          1           0        2.702758   -0.558498    0.002665
 ---------------------------------------------------------------------

 SCF Done:  E(RB2PLYPD3) =  -155.700586173     A.U. after   11 cycles
 E2(B2PLYPD3) =    -0.2255943838D+00 E(B2PLYPD3) =    -0.15592618055675D+03

 The electronic state is 1-A.
 Alpha  occ. eigenvalues --  -10.62591 -10.62521 -10.61499 -10.61468  -0.92749
 Alpha  occ. eigenvalues --   -0.84897  -0.70177  -0.64411  -0.54386  -0.54137
 Alpha  occ. eigenvalues --   -0.46785  -0.45910  -0.41198  -0.37871  -0.27676
 Alpha virt. eigenvalues --    0.01706   0.06979   0.07517   0.08095   0.09501
 Alpha virt. eigenvalues --    0.11690   0.12427   0.14750   0.15860   0.16146
 Alpha virt. eigenvalues --    0.18852   0.20436   0.21687   0.22831   0.23912

 Mulliken charges:
               1
     1  C   -0.173719
     2  C   -0.038743
     3  C   -0.029676
     4  C   -0.178598
     5  H    0.084146
     6  H    0.069995
     7  H    0.061950
     8  H    0.054198
     9  H    0.065951
    10  H    0.084495
 Sum of Mulliken charges =   0.00000

 Dipole moment (field-independent basis, Debye):
    X=             -0.0185    Y=              0.0002    Z=              0.0260  Tot=              0.0319
 Quadrupole moment (field-independent basis, Debye-Ang):
   XX=            -23.4772   YY=            -23.0370   ZZ=            -29.2804
   XY=              0.1954   XZ=             -0.1941   YZ=              0.0329

 1\1\GINC-NODE36\SP\RB2PLYPD3-FC\def2QZVP\C4H6\BOITTIER\26-Aug-2020\0\\
 #p B2PLYPD3/Def2QZVP\\butadiene\\0,1\C,0,-3.845614,0.234958,0.023311\C
 ,0,-2.733294,-0.512867,0.037468\C,0,-1.38421,0.061334,0.01102\C,0,-0.2
 50351,-0.648497,0.029781\H,0,-4.828923,-0.222167,-0.049391\H,0,-3.8004
 21,1.293746,0.023295\H,0,-2.782468,-1.573829,0.076217\H,0,-1.304794,1.
 141899,-0.038707\H,0,-0.23904,-1.729408,0.086041\H,0,0.708065,-0.14651
 7,0.014007\\Version=ES64L-G09RevD.01\State=1-A\HF=-155.7005862\MP2=-15
 5.9261806\RMSD=4.705e-09\PG=C01 [X(C4H6)]\\@

 Normal termination of Gaussian 09 at Wed Aug 26 14:53:11 2020.
