 Gaussian 09, Revision D.01,
 Gaussian 09:  ES64L-G09RevD.01 24-Apr-2013

 --------------------
 #p B2PLYPD3/Def2QZVP
 --------------------

 ---------
 butadiene
 ---------
 Symbolic Z-matrix:
 Charge =  0 Multiplicity = 1

                         Standard orientation:
 ---------------------------------------------------------------------
 Center     Atomic      Atomic             Coordinates (Angstroms)
 Number     Number       Type             X           Y           Z
 ---------------------------------------------------------------------
      1          6           0        1.827559   -0.104877    0.039749
      2          6           0        0.601189    0.430694   -0.054116
      3          6           0       -0.601448   -0.409243   -0.036542
      4          6           0       -1.834867    0.105787    0.022949
      5          1           0        2.779672    0.387378    0.119863
      6          1           0        1.946455   -1.182201    0.012918
      7          1           0        0.484519    1.532366   -0.072523
      8          1           0       -0.445996   -1.465709   -0.089743
      9          1           0       -2.057055    1.146414    0.069434
     10          1           0       -2.662193   -0.552415    0.127812
 ---------------------------------------------------------------------

 SCF Done:  E(RB2PLYPD3) =  -155.697352370     A.U. after   11 cycles
 E2(B2PLYPD3) =    -0.2258402376D+00 E(B2PLYPD3) =    -0.15592319260753D+03

 The electronic state is 1-A.
 Alpha  occ. eigenvalues --  -10.63049 -10.62634 -10.61515 -10.61079  -0.92790
 Alpha  occ. eigenvalues --   -0.84774  -0.70233  -0.64408  -0.54934  -0.53766
 Alpha  occ. eigenvalues --   -0.46991  -0.45312  -0.41269  -0.37840  -0.27584
 Alpha virt. eigenvalues --    0.01826   0.07058   0.07396   0.08137   0.09225
 Alpha virt. eigenvalues --    0.11567   0.12693   0.14605   0.15883   0.16429
 Alpha virt. eigenvalues --    0.18816   0.20411   0.22078   0.22748   0.23816

 Mulliken charges:
               1
     1  C   -0.166499
     2  C   -0.032820
     3  C   -0.035161
     4  C   -0.175543
     5  H    0.082909
     6  H    0.052962
     7  H    0.057617
     8  H    0.064515
     9  H    0.071121
    10  H    0.080900
 Sum of Mulliken charges =   0.00000

 Dipole moment (field-independent basis, Debye):
    X=              0.0338    Y=             -0.0168    Z=              0.0933  Tot=              0.1007
 Quadrupole moment (field-independent basis, Debye-Ang):
   XX=            -23.3243   YY=            -23.1212   ZZ=            -29.2472
   XY=             -0.3553   XZ=             -0.1106   YZ=              0.0761

 1\1\GINC-NODE29\SP\RB2PLYPD3-FC\def2QZVP\C4H6\BOITTIER\26-Aug-2020\0\\
 #p B2PLYPD3/Def2QZVP\\butadiene\\0,1\C,0,-3.830091,0.225857,0.058647\C
 ,0,-2.722627,-0.527602,-0.015192\C,0,-1.386603,0.078336,-0.019699\C,0,
 -0.268042,-0.651542,0.05914\H,0,-4.855963,-0.081267,0.150926\H,0,-3.75
 ,1.305423,-0.001406\H,0,-2.80948,-1.632068,0.00038\H,0,-1.346337,1.143
 286,-0.105581\H,0,-0.239819,-1.71334,0.138024\H,0,0.665995,-0.152874,0
 .146316\\Version=ES64L-G09RevD.01\State=1-A\HF=-155.6973524\MP2=-155.9
 231926\RMSD=4.840e-09\PG=C01 [X(C4H6)]\\@

 Normal termination of Gaussian 09 at Wed Aug 26 09:01:32 2020.
