 Gaussian 09, Revision D.01,
 Gaussian 09:  ES64L-G09RevD.01 24-Apr-2013

 --------------------
 #p B2PLYPD3/Def2QZVP
 --------------------

 ---------
 butadiene
 ---------
 Symbolic Z-matrix:
 Charge =  0 Multiplicity = 1

                         Standard orientation:
 ---------------------------------------------------------------------
 Center     Atomic      Atomic             Coordinates (Angstroms)
 Number     Number       Type             X           Y           Z
 ---------------------------------------------------------------------
      1          6           0       -1.822566   -0.129292    0.058053
      2          6           0       -0.616078    0.451290   -0.102360
      3          6           0        0.577040   -0.360953   -0.032917
      4          6           0        1.809245    0.066829    0.006793
      5          1           0       -2.785184    0.387541    0.221086
      6          1           0       -1.747789   -1.257050   -0.023112
      7          1           0       -0.359819    1.471869   -0.021666
      8          1           0        0.500180   -1.366942   -0.129584
      9          1           0        2.044534    1.159230    0.115857
     10          1           0        2.662230   -0.561890    0.260007
 ---------------------------------------------------------------------

 SCF Done:  E(RB2PLYPD3) =  -155.680100033     A.U. after   11 cycles
 E2(B2PLYPD3) =    -0.2263956511D+00 E(B2PLYPD3) =    -0.15590649568434D+03

 The electronic state is 1-A.
 Alpha  occ. eigenvalues --  -10.62979 -10.62546 -10.61191 -10.61001  -0.93866
 Alpha  occ. eigenvalues --   -0.85010  -0.69773  -0.65167  -0.55060  -0.53122
 Alpha  occ. eigenvalues --   -0.47311  -0.44505  -0.41047  -0.38339  -0.27825
 Alpha virt. eigenvalues --    0.01684   0.06980   0.07424   0.08205   0.09268
 Alpha virt. eigenvalues --    0.11634   0.12728   0.14354   0.15265   0.16498
 Alpha virt. eigenvalues --    0.18156   0.19398   0.21381   0.22939   0.25094

 Mulliken charges:
               1
     1  C   -0.164989
     2  C   -0.043568
     3  C   -0.012210
     4  C   -0.167808
     5  H    0.092724
     6  H    0.060912
     7  H    0.063095
     8  H    0.057869
     9  H    0.038825
    10  H    0.075151
 Sum of Mulliken charges =   0.00000

 Dipole moment (field-independent basis, Debye):
    X=             -0.1240    Y=             -0.0238    Z=              0.3032  Tot=              0.3284
 Quadrupole moment (field-independent basis, Debye-Ang):
   XX=            -23.6779   YY=            -23.4848   ZZ=            -29.0202
   XY=             -0.1189   XZ=              0.1976   YZ=              0.2534

 1\1\GINC-NODE40\SP\RB2PLYPD3-FC\def2QZVP\C4H6\BOITTIER\26-Aug-2020\0\\
 #p B2PLYPD3/Def2QZVP\\butadiene\\0,1\C,0,-3.813708,0.246153,-0.042161\
 C,0,-2.733194,-0.542187,0.129391\C,0,-1.411851,0.036117,0.041604\C,0,-
 0.279035,-0.610893,0.009813\H,0,-4.855471,-0.088841,-0.193283\H,0,-3.5
 33269,1.342559,0.014991\H,0,-2.668569,-1.593887,0.070123\H,0,-1.302708
 ,1.040941,0.116981\H,0,-0.248315,-1.729929,-0.076275\H,0,0.673437,-0.1
 54455,-0.257488\\Version=ES64L-G09RevD.01\State=1-A\HF=-155.6801\MP2=-
 155.9064957\RMSD=7.319e-09\PG=C01 [X(C4H6)]\\@

 Normal termination of Gaussian 09 at Wed Aug 26 13:49:39 2020.
