 Gaussian 09, Revision D.01,
 Gaussian 09:  ES64L-G09RevD.01 24-Apr-2013

 --------------------
 #p B2PLYPD3/Def2QZVP
 --------------------

 ---------
 butadiene
 ---------
 Symbolic Z-matrix:
 Charge =  0 Multiplicity = 1

                         Standard orientation:
 ---------------------------------------------------------------------
 Center     Atomic      Atomic             Coordinates (Angstroms)
 Number     Number       Type             X           Y           Z
 ---------------------------------------------------------------------
      1          6           0        1.806825   -0.168146   -0.052167
      2          6           0        0.621556    0.464424    0.036277
      3          6           0       -0.577966   -0.349958    0.053304
      4          6           0       -1.828186    0.081719   -0.079937
      5          1           0        2.700523    0.462144    0.033405
      6          1           0        1.860466   -1.277849   -0.188615
      7          1           0        0.550909    1.526667    0.121276
      8          1           0       -0.548775   -1.454205    0.330079
      9          1           0       -2.017041    1.214739    0.005159
     10          1           0       -2.679460   -0.639729   -0.046163
 ---------------------------------------------------------------------

 SCF Done:  E(RB2PLYPD3) =  -155.682663323     A.U. after   11 cycles
 E2(B2PLYPD3) =    -0.2274619480D+00 E(B2PLYPD3) =    -0.15591012527061D+03

 The electronic state is 1-A.
 Alpha  occ. eigenvalues --  -10.62751 -10.62662 -10.62348 -10.62097  -0.93012
 Alpha  occ. eigenvalues --   -0.84652  -0.69017  -0.63174  -0.53993  -0.53317
 Alpha  occ. eigenvalues --   -0.46544  -0.44475  -0.41429  -0.37082  -0.27634
 Alpha virt. eigenvalues --    0.01717   0.06911   0.07072   0.07683   0.09218
 Alpha virt. eigenvalues --    0.11677   0.12083   0.14277   0.15461   0.16261
 Alpha virt. eigenvalues --    0.18587   0.19637   0.21033   0.22127   0.24626

 Mulliken charges:
               1
     1  C   -0.167150
     2  C   -0.050522
     3  C   -0.021426
     4  C   -0.177592
     5  H    0.082560
     6  H    0.078281
     7  H    0.067198
     8  H    0.052393
     9  H    0.055558
    10  H    0.080700
 Sum of Mulliken charges =   0.00000

 Dipole moment (field-independent basis, Debye):
    X=              0.1226    Y=              0.0227    Z=              0.2983  Tot=              0.3233
 Quadrupole moment (field-independent basis, Debye-Ang):
   XX=            -24.3353   YY=            -22.9223   ZZ=            -29.3642
   XY=              0.3596   XZ=             -0.2791   YZ=              0.1293

 1\1\GINC-NODE33\SP\RB2PLYPD3-FC\def2QZVP\C4H6\BOITTIER\26-Aug-2020\0\\
 #p B2PLYPD3/Def2QZVP\\butadiene\\0,1\C,0,-3.799097,0.263721,-0.034936\
 C,0,-2.741091,-0.560466,0.084088\C,0,-1.418521,0.033684,0.071586\C,0,-
 0.262531,-0.613313,-0.039006\H,0,-4.788195,-0.198019,0.073531\H,0,-3.6
 60087,1.359271,-0.217648\H,0,-2.855313,-1.614405,0.213483\H,0,-1.25488
 1,1.136827,0.302052\H,0,-0.272601,-1.757378,0.093864\H,0,0.701017,-0.0
 49554,-0.03218\\Version=ES64L-G09RevD.01\State=1-A\HF=-155.6826633\MP2
 =-155.9101253\RMSD=9.852e-09\PG=C01 [X(C4H6)]\\@

 Normal termination of Gaussian 09 at Wed Aug 26 15:19:08 2020.
