 Gaussian 09, Revision D.01,
 Gaussian 09:  ES64L-G09RevD.01 24-Apr-2013

 --------------------
 #p B2PLYPD3/Def2QZVP
 --------------------

 ---------
 butadiene
 ---------
 Symbolic Z-matrix:
 Charge =  0 Multiplicity = 1

                         Standard orientation:
 ---------------------------------------------------------------------
 Center     Atomic      Atomic             Coordinates (Angstroms)
 Number     Number       Type             X           Y           Z
 ---------------------------------------------------------------------
      1          6           0        1.853744    0.098857    0.016345
      2          6           0        0.607616   -0.385155   -0.035422
      3          6           0       -0.619448    0.412913   -0.029195
      4          6           0       -1.840604   -0.126293    0.010270
      5          1           0        2.723622   -0.517022    0.081136
      6          1           0        2.017360    1.172376    0.017981
      7          1           0        0.498350   -1.462777   -0.016076
      8          1           0       -0.528666    1.506607    0.023125
      9          1           0       -1.987030   -1.211606    0.064531
     10          1           0       -2.731485    0.510489    0.057315
 ---------------------------------------------------------------------

 SCF Done:  E(RB2PLYPD3) =  -155.699923419     A.U. after   11 cycles
 E2(B2PLYPD3) =    -0.2259073077D+00 E(B2PLYPD3) =    -0.15592583072660D+03

 The electronic state is 1-A.
 Alpha  occ. eigenvalues --  -10.62888 -10.62634 -10.61902 -10.61401  -0.92739
 Alpha  occ. eigenvalues --   -0.84936  -0.69925  -0.63871  -0.54504  -0.53935
 Alpha  occ. eigenvalues --   -0.46729  -0.45239  -0.41118  -0.37989  -0.27763
 Alpha virt. eigenvalues --    0.01728   0.06999   0.07407   0.07984   0.09552
 Alpha virt. eigenvalues --    0.11626   0.12431   0.14548   0.15875   0.16222
 Alpha virt. eigenvalues --    0.18859   0.20448   0.21489   0.22790   0.23766

 Mulliken charges:
               1
     1  C   -0.175253
     2  C   -0.029202
     3  C   -0.035072
     4  C   -0.170556
     5  H    0.088502
     6  H    0.061387
     7  H    0.053483
     8  H    0.055400
     9  H    0.066963
    10  H    0.084349
 Sum of Mulliken charges =   0.00000

 Dipole moment (field-independent basis, Debye):
    X=             -0.0197    Y=             -0.0034    Z=              0.1659  Tot=              0.1671
 Quadrupole moment (field-independent basis, Debye-Ang):
   XX=            -23.4038   YY=            -23.1284   ZZ=            -29.3247
   XY=             -0.0119   XZ=             -0.0350   YZ=             -0.0316

 1\1\GINC-NODE37\SP\RB2PLYPD3-FC\def2QZVP\C4H6\BOITTIER\26-Aug-2020\0\\
 #p B2PLYPD3/Def2QZVP\\butadiene\\0,1\C,0,-3.859753,0.207702,-0.001047\
 C,0,-2.717934,-0.486288,0.065352\C,0,-1.369724,0.083179,0.039371\C,0,-
 0.262499,-0.663165,0.016018\H,0,-4.824557,-0.247164,-0.050465\H,0,-3.8
 32131,1.292835,-0.031691\H,0,-2.799852,-1.566463,0.075059\H,0,-1.26702
 8,1.174012,-0.042382\H,0,-0.309306,-1.758371,-0.008922\H,0,0.726275,-0
 .1944,-0.046893\\Version=ES64L-G09RevD.01\State=1-A\HF=-155.6999234\MP
 2=-155.9258307\RMSD=3.079e-09\PG=C01 [X(C4H6)]\\@

 Normal termination of Gaussian 09 at Wed Aug 26 20:31:32 2020.
