 Gaussian 09, Revision D.01,
 Gaussian 09:  ES64L-G09RevD.01 24-Apr-2013

 --------------------
 #p B2PLYPD3/Def2QZVP
 --------------------

 ---------
 butadiene
 ---------
 Symbolic Z-matrix:
 Charge =  0 Multiplicity = 1

                         Standard orientation:
 ---------------------------------------------------------------------
 Center     Atomic      Atomic             Coordinates (Angstroms)
 Number     Number       Type             X           Y           Z
 ---------------------------------------------------------------------
      1          6           0        1.856243   -0.096572   -0.051414
      2          6           0        0.597929    0.376106    0.003820
      3          6           0       -0.608422   -0.453888    0.063796
      4          6           0       -1.821684    0.105637   -0.080404
      5          1           0        2.640541    0.672196    0.110852
      6          1           0        2.101665   -1.112775   -0.176636
      7          1           0        0.316307    1.419978    0.285206
      8          1           0       -0.436000   -1.471870    0.206101
      9          1           0       -1.867556    1.279349   -0.121839
     10          1           0       -2.899351   -0.374579    0.081534
 ---------------------------------------------------------------------

 SCF Done:  E(RB2PLYPD3) =  -155.674269273     A.U. after   12 cycles
 E2(B2PLYPD3) =    -0.2280268905D+00 E(B2PLYPD3) =    -0.15590229616365D+03

 The electronic state is 1-A.
 Alpha  occ. eigenvalues --  -10.63872 -10.63060 -10.62545 -10.61857  -0.92875
 Alpha  occ. eigenvalues --   -0.84250  -0.69269  -0.64199  -0.53850  -0.53190
 Alpha  occ. eigenvalues --   -0.47262  -0.44415  -0.40112  -0.37322  -0.27878
 Alpha virt. eigenvalues --    0.01352   0.06831   0.07248   0.07741   0.09112
 Alpha virt. eigenvalues --    0.11519   0.12191   0.14337   0.15130   0.16307
 Alpha virt. eigenvalues --    0.18589   0.19645   0.20948   0.22418   0.23753

 Mulliken charges:
               1
     1  C   -0.196683
     2  C   -0.014425
     3  C   -0.051560
     4  C   -0.145502
     5  H    0.084675
     6  H    0.081556
     7  H    0.057917
     8  H    0.064397
     9  H    0.043107
    10  H    0.076519
 Sum of Mulliken charges =   0.00000

 Dipole moment (field-independent basis, Debye):
    X=             -0.0045    Y=             -0.1121    Z=              0.3855  Tot=              0.4015
 Quadrupole moment (field-independent basis, Debye-Ang):
   XX=            -23.7518   YY=            -23.4629   ZZ=            -29.3689
   XY=             -0.5787   XZ=             -0.1406   YZ=              0.2540

 1\1\GINC-NODE40\SP\RB2PLYPD3-FC\def2QZVP\C4H6\BOITTIER\26-Aug-2020\0\\
 #p B2PLYPD3/Def2QZVP\\butadiene\\0,1\C,0,-3.857246,0.214964,-0.028517\
 C,0,-2.708216,-0.480246,0.050491\C,0,-1.368674,0.113391,0.082011\C,0,-
 0.280727,-0.666708,-0.034963\H,0,-4.769915,-0.387933,0.161239\H,0,-3.9
 10418,1.25322,-0.195184\H,0,-2.624048,-1.546139,0.374444\H,0,-1.348834
 ,1.150551,0.182871\H,0,-0.453441,-1.829273,-0.029312\H,0,0.867865,-0.3
 88562,0.1119\\Version=ES64L-G09RevD.01\State=1-A\HF=-155.6742693\MP2=-
 155.9022962\RMSD=7.144e-09\PG=C01 [X(C4H6)]\\@

 Normal termination of Gaussian 09 at Wed Aug 26 12:07:24 2020.
