 Gaussian 09, Revision D.01,
 Gaussian 09:  ES64L-G09RevD.01 24-Apr-2013

 --------------------
 #p B2PLYPD3/Def2QZVP
 --------------------

 ---------
 butadiene
 ---------
 Symbolic Z-matrix:
 Charge =  0 Multiplicity = 1

                         Standard orientation:
 ---------------------------------------------------------------------
 Center     Atomic      Atomic             Coordinates (Angstroms)
 Number     Number       Type             X           Y           Z
 ---------------------------------------------------------------------
      1          6           0       -1.799444   -0.140307   -0.077094
      2          6           0       -0.627279    0.451218    0.071914
      3          6           0        0.580848   -0.382458    0.051519
      4          6           0        1.831597    0.111290   -0.044393
      5          1           0       -2.739289    0.476807   -0.202711
      6          1           0       -1.825422   -1.256815    0.102920
      7          1           0       -0.483073    1.507445    0.225939
      8          1           0        0.436618   -1.389524    0.102445
      9          1           0        2.142934    1.075124   -0.139288
     10          1           0        2.553902   -0.651498   -0.100981
 ---------------------------------------------------------------------

 SCF Done:  E(RB2PLYPD3) =  -155.681853826     A.U. after   12 cycles
 E2(B2PLYPD3) =    -0.2258551315D+00 E(B2PLYPD3) =    -0.15590770895784D+03

 The electronic state is 1-A.
 Alpha  occ. eigenvalues --  -10.62344 -10.62175 -10.61888 -10.60313  -0.93215
 Alpha  occ. eigenvalues --   -0.84998  -0.69899  -0.65020  -0.54886  -0.53412
 Alpha  occ. eigenvalues --   -0.47118  -0.46224  -0.41293  -0.37327  -0.27505
 Alpha virt. eigenvalues --    0.02025   0.06934   0.07448   0.08095   0.09084
 Alpha virt. eigenvalues --    0.11782   0.12397   0.14925   0.15566   0.16172
 Alpha virt. eigenvalues --    0.18308   0.20299   0.21492   0.22428   0.25386

 Mulliken charges:
               1
     1  C   -0.171407
     2  C   -0.040213
     3  C   -0.034304
     4  C   -0.185645
     5  H    0.079561
     6  H    0.066813
     7  H    0.068398
     8  H    0.066520
     9  H    0.078328
    10  H    0.071950
 Sum of Mulliken charges =   0.00000

 Dipole moment (field-independent basis, Debye):
    X=             -0.0362    Y=              0.0635    Z=              0.0762  Tot=              0.1055
 Quadrupole moment (field-independent basis, Debye-Ang):
   XX=            -24.2506   YY=            -22.8067   ZZ=            -29.0875
   XY=              0.2022   XZ=             -0.2629   YZ=             -0.2190

 1\1\GINC-NODE14\SP\RB2PLYPD3-FC\def2QZVP\C4H6\BOITTIER\26-Aug-2020\0\\
 #p B2PLYPD3/Def2QZVP\\butadiene\\0,1\C,0,-3.793797,0.253887,0.089044\C
 ,0,-2.747923,-0.543653,-0.038053\C,0,-1.409006,0.058257,-0.03533\C,0,-
 0.268044,-0.650443,0.080034\H,0,-4.829634,-0.179466,0.227477\H,0,-3.61
 7646,1.351183,-0.122103\H,0,-2.797071,-1.61247,-0.161947\H,0,-1.368873
 ,1.072964,-0.114937\H,0,-0.135985,-1.651599,0.203156\H,0,0.580259,-0.0
 29427,0.118678\\Version=ES64L-G09RevD.01\State=1-A\HF=-155.6818538\MP2
 =-155.907709\RMSD=3.794e-09\PG=C01 [X(C4H6)]\\@

 Normal termination of Gaussian 09 at Wed Aug 26 11:32:30 2020.
