 Gaussian 09, Revision D.01,
 Gaussian 09:  ES64L-G09RevD.01 24-Apr-2013

 --------------------
 #p B2PLYPD3/Def2QZVP
 --------------------

 ---------
 butadiene
 ---------
 Symbolic Z-matrix:
 Charge =  0 Multiplicity = 1

                         Standard orientation:
 ---------------------------------------------------------------------
 Center     Atomic      Atomic             Coordinates (Angstroms)
 Number     Number       Type             X           Y           Z
 ---------------------------------------------------------------------
      1          6           0        1.799797    0.076037    0.029420
      2          6           0        0.608749   -0.346227   -0.044037
      3          6           0       -0.589202    0.447879   -0.084842
      4          6           0       -1.796706   -0.174938   -0.003285
      5          1           0        2.640090   -0.645680    0.147808
      6          1           0        1.906857    1.146665   -0.000153
      7          1           0        0.411574   -1.396982   -0.014834
      8          1           0       -0.517709    1.632099    0.149268
      9          1           0       -1.913149   -1.233519    0.122427
     10          1           0       -2.663497    0.480912    0.211952
 ---------------------------------------------------------------------

 SCF Done:  E(RB2PLYPD3) =  -155.675512152     A.U. after   11 cycles
 E2(B2PLYPD3) =    -0.2264656141D+00 E(B2PLYPD3) =    -0.15590197776565D+03

 The electronic state is 1-A.
 Alpha  occ. eigenvalues --  -10.63966 -10.62156 -10.60856 -10.60416  -0.93967
 Alpha  occ. eigenvalues --   -0.85342  -0.69428  -0.63262  -0.54835  -0.53349
 Alpha  occ. eigenvalues --   -0.45940  -0.45139  -0.40522  -0.38702  -0.28002
 Alpha virt. eigenvalues --    0.01918   0.06719   0.07074   0.07917   0.09582
 Alpha virt. eigenvalues --    0.11936   0.12241   0.14737   0.15289   0.16080
 Alpha virt. eigenvalues --    0.18550   0.19430   0.21727   0.23633   0.24221

 Mulliken charges:
               1
     1  C   -0.178680
     2  C    0.004767
     3  C   -0.037896
     4  C   -0.176003
     5  H    0.088795
     6  H    0.062514
     7  H    0.042824
     8  H    0.045129
     9  H    0.072490
    10  H    0.076059
 Sum of Mulliken charges =   0.00000

 Dipole moment (field-independent basis, Debye):
    X=             -0.0215    Y=             -0.1113    Z=              0.4660  Tot=              0.4796
 Quadrupole moment (field-independent basis, Debye-Ang):
   XX=            -24.4359   YY=            -22.9930   ZZ=            -29.0871
   XY=             -0.0306   XZ=             -0.5759   YZ=              0.0875

 1\1\GINC-NODE11\SP\RB2PLYPD3-FC\def2QZVP\C4H6\BOITTIER\26-Aug-2020\0\\
 #p B2PLYPD3/Def2QZVP\\butadiene\\0,1\C,0,-3.807621,0.179769,-0.013418\
 C,0,-2.710212,-0.445686,0.069032\C,0,-1.389708,0.123046,0.082066\C,0,-
 0.313128,-0.707119,0.015583\H,0,-4.763963,-0.383773,-0.107308\H,0,-3.7
 22087,1.252736,-0.015878\H,0,-2.703532,-1.515157,0.070978\H,0,-1.25118
 4,1.293705,-0.187499\H,0,-0.388098,-1.772715,-0.078446\H,0,0.654734,-0
 .222819,-0.222091\\Version=ES64L-G09RevD.01\State=1-A\HF=-155.6755122\
 MP2=-155.9019778\RMSD=9.764e-09\PG=C01 [X(C4H6)]\\@

 Normal termination of Gaussian 09 at Wed Aug 26 12:02:34 2020.
