 Gaussian 09, Revision D.01,
 Gaussian 09:  ES64L-G09RevD.01 24-Apr-2013

 --------------------
 #p B2PLYPD3/Def2QZVP
 --------------------

 ---------
 butadiene
 ---------
 Symbolic Z-matrix:
 Charge =  0 Multiplicity = 1

                         Standard orientation:
 ---------------------------------------------------------------------
 Center     Atomic      Atomic             Coordinates (Angstroms)
 Number     Number       Type             X           Y           Z
 ---------------------------------------------------------------------
      1          6           0        1.829225    0.113536   -0.045784
      2          6           0        0.617515   -0.405859    0.017471
      3          6           0       -0.594927    0.377925    0.035854
      4          6           0       -1.841936   -0.103631   -0.032433
      5          1           0        2.763425   -0.466862    0.023433
      6          1           0        1.909264    1.214870   -0.052676
      7          1           0        0.488115   -1.499362    0.167856
      8          1           0       -0.469049    1.460897    0.119043
      9          1           0       -2.020253   -1.116250   -0.110802
     10          1           0       -2.730762    0.514877    0.002496
 ---------------------------------------------------------------------

 SCF Done:  E(RB2PLYPD3) =  -155.696508315     A.U. after   11 cycles
 E2(B2PLYPD3) =    -0.2256907773D+00 E(B2PLYPD3) =    -0.15592219909226D+03

 The electronic state is 1-A.
 Alpha  occ. eigenvalues --  -10.62612 -10.62551 -10.61839 -10.61018  -0.93237
 Alpha  occ. eigenvalues --   -0.85111  -0.70313  -0.63853  -0.54804  -0.53897
 Alpha  occ. eigenvalues --   -0.47117  -0.45234  -0.40971  -0.38056  -0.27862
 Alpha virt. eigenvalues --    0.01711   0.07044   0.07393   0.07940   0.09743
 Alpha virt. eigenvalues --    0.11630   0.12606   0.14623   0.15696   0.16277
 Alpha virt. eigenvalues --    0.18813   0.20274   0.21677   0.22596   0.23755

 Mulliken charges:
               1
     1  C   -0.167368
     2  C   -0.029510
     3  C   -0.025840
     4  C   -0.177576
     5  H    0.088085
     6  H    0.058449
     7  H    0.052339
     8  H    0.049904
     9  H    0.066846
    10  H    0.084673
 Sum of Mulliken charges =   0.00000

 Dipole moment (field-independent basis, Debye):
    X=              0.0067    Y=             -0.0303    Z=              0.1637  Tot=              0.1666
 Quadrupole moment (field-independent basis, Debye-Ang):
   XX=            -23.1932   YY=            -23.3843   ZZ=            -29.1778
   XY=              0.0770   XZ=              0.2517   YZ=             -0.0061

 1\1\GINC-NODE30\SP\RB2PLYPD3-FC\def2QZVP\C4H6\BOITTIER\26-Aug-2020\0\\
 #p B2PLYPD3/Def2QZVP\\butadiene\\0,1\C,0,-3.830343,0.22437,0.056915\C,
 0,-2.73024,-0.503442,0.01135\C,0,-1.397842,0.051782,-0.022014\C,0,-0.2
 56189,-0.641742,0.063109\H,0,-4.852849,-0.182415,-0.001322\H,0,-3.7134
 23,1.322221,0.035896\H,0,-2.79729,-1.605995,-0.111084\H,0,-1.329355,1.
 137429,-0.132801\H,0,-0.260575,-1.667615,0.167516\H,0,0.728365,-0.1920
 45,0.016103\\Version=ES64L-G09RevD.01\State=1-A\HF=-155.6965083\MP2=-1
 55.9221991\RMSD=7.453e-09\PG=C01 [X(C4H6)]\\@

 Normal termination of Gaussian 09 at Wed Aug 26 10:50:31 2020.
