 Gaussian 09, Revision D.01,
 Gaussian 09:  ES64L-G09RevD.01 24-Apr-2013

 --------------------
 #p B2PLYPD3/Def2QZVP
 --------------------

 ---------
 butadiene
 ---------
 Symbolic Z-matrix:
 Charge =  0 Multiplicity = 1

                         Standard orientation:
 ---------------------------------------------------------------------
 Center     Atomic      Atomic             Coordinates (Angstroms)
 Number     Number       Type             X           Y           Z
 ---------------------------------------------------------------------
      1          6           0        1.839815    0.091387    0.021768
      2          6           0        0.595753   -0.389636   -0.030439
      3          6           0       -0.602926    0.414743   -0.028347
      4          6           0       -1.828463   -0.124490    0.011147
      5          1           0        2.729949   -0.457650    0.156208
      6          1           0        2.000026    1.146739   -0.044923
      7          1           0        0.451685   -1.461862   -0.106864
      8          1           0       -0.559467    1.529805   -0.016415
      9          1           0       -1.943088   -1.217744    0.056416
     10          1           0       -2.704178    0.508693    0.110802
 ---------------------------------------------------------------------

 SCF Done:  E(RB2PLYPD3) =  -155.696479442     A.U. after   11 cycles
 E2(B2PLYPD3) =    -0.2260442739D+00 E(B2PLYPD3) =    -0.15592252371622D+03

 The electronic state is 1-A.
 Alpha  occ. eigenvalues --  -10.62846 -10.62602 -10.61752 -10.61049  -0.93104
 Alpha  occ. eigenvalues --   -0.84937  -0.70298  -0.63828  -0.54983  -0.53943
 Alpha  occ. eigenvalues --   -0.46561  -0.45168  -0.41568  -0.38028  -0.27520
 Alpha virt. eigenvalues --    0.01606   0.07054   0.07369   0.07987   0.09504
 Alpha virt. eigenvalues --    0.11629   0.12650   0.14514   0.15784   0.16371
 Alpha virt. eigenvalues --    0.18762   0.20338   0.21794   0.22817   0.23758

 Mulliken charges:
               1
     1  C   -0.173249
     2  C   -0.030701
     3  C   -0.027204
     4  C   -0.173839
     5  H    0.087135
     6  H    0.060102
     7  H    0.056935
     8  H    0.051682
     9  H    0.063159
    10  H    0.085980
 Sum of Mulliken charges =   0.00000

 Dipole moment (field-independent basis, Debye):
    X=              0.0136    Y=              0.0228    Z=              0.1079  Tot=              0.1112
 Quadrupole moment (field-independent basis, Debye-Ang):
   XX=            -23.3891   YY=            -23.2049   ZZ=            -29.2263
   XY=             -0.0318   XZ=             -0.0963   YZ=             -0.0319

 1\1\GINC-NODE22\SP\RB2PLYPD3-FC\def2QZVP\C4H6\BOITTIER\26-Aug-2020\0\\
 #p B2PLYPD3/Def2QZVP\\butadiene\\0,1\C,0,-3.845661,0.204112,-0.003965\
 C,0,-2.707419,-0.489969,0.062769\C,0,-1.384277,0.086749,0.03925\C,0,-0
 .275045,-0.663806,0.015929\H,0,-4.82015,-0.180424,-0.12379\H,0,-3.8143
 63,1.272538,0.033056\H,0,-2.757025,-1.568145,0.169265\H,0,-1.22776,1.1
 90849,-0.003888\H,0,-0.357881,-1.760765,0.001341\H,0,0.699332,-0.20041
 ,-0.100614\\Version=ES64L-G09RevD.01\State=1-A\HF=-155.6964794\MP2=-15
 5.9225237\RMSD=3.803e-09\PG=C01 [X(C4H6)]\\@

 Normal termination of Gaussian 09 at Wed Aug 26 10:00:42 2020.
