 Gaussian 09, Revision D.01,
 Gaussian 09:  ES64L-G09RevD.01 24-Apr-2013

 --------------------
 #p B2PLYPD3/Def2QZVP
 --------------------

 ---------
 butadiene
 ---------
 Symbolic Z-matrix:
 Charge =  0 Multiplicity = 1

                         Standard orientation:
 ---------------------------------------------------------------------
 Center     Atomic      Atomic             Coordinates (Angstroms)
 Number     Number       Type             X           Y           Z
 ---------------------------------------------------------------------
      1          6           0       -1.847648    0.084990   -0.090982
      2          6           0       -0.592141   -0.348350    0.055621
      3          6           0        0.610572    0.411778    0.027535
      4          6           0        1.809004   -0.130650   -0.059908
      5          1           0       -2.627951   -0.618304    0.031574
      6          1           0       -2.125333    1.118043   -0.027283
      7          1           0       -0.442217   -1.336004    0.356426
      8          1           0        0.596010    1.527710    0.186962
      9          1           0        1.880183   -1.177696   -0.219526
     10          1           0        2.840582    0.379642    0.078254
 ---------------------------------------------------------------------

 SCF Done:  E(RB2PLYPD3) =  -155.683649887     A.U. after   11 cycles
 E2(B2PLYPD3) =    -0.2259836263D+00 E(B2PLYPD3) =    -0.15590963351360D+03

 The electronic state is 1-A.
 Alpha  occ. eigenvalues --  -10.62460 -10.61989 -10.61910 -10.61121  -0.93729
 Alpha  occ. eigenvalues --   -0.85240  -0.70534  -0.64048  -0.54784  -0.54033
 Alpha  occ. eigenvalues --   -0.47288  -0.45422  -0.41100  -0.37268  -0.27936
 Alpha virt. eigenvalues --    0.01340   0.07084   0.07476   0.07770   0.09655
 Alpha virt. eigenvalues --    0.11507   0.12625   0.14630   0.15459   0.16621
 Alpha virt. eigenvalues --    0.18966   0.19688   0.21546   0.21973   0.23841

 Mulliken charges:
               1
     1  C   -0.168636
     2  C   -0.047697
     3  C   -0.021919
     4  C   -0.165874
     5  H    0.077082
     6  H    0.070560
     7  H    0.064156
     8  H    0.053122
     9  H    0.060188
    10  H    0.079018
 Sum of Mulliken charges =   0.00000

 Dipole moment (field-independent basis, Debye):
    X=              0.0802    Y=             -0.0488    Z=              0.4207  Tot=              0.4311
 Quadrupole moment (field-independent basis, Debye-Ang):
   XX=            -23.2762   YY=            -23.5900   ZZ=            -28.9473
   XY=             -0.1925   XZ=             -0.2540   YZ=              0.0607

 1\1\GINC-NODE30\SP\RB2PLYPD3-FC\def2QZVP\C4H6\BOITTIER\26-Aug-2020\0\\
 #p B2PLYPD3/Def2QZVP\\butadiene\\0,1\C,0,-3.853399,0.194524,-0.058675\
 C,0,-2.694704,-0.453116,0.094824\C,0,-1.375992,0.080341,0.05578\C,0,-0
 .293417,-0.667936,-0.023129\H,0,-4.74611,-0.356789,0.074123\H,0,-3.942
 674,1.261331,-0.010534\H,0,-2.722224,-1.447129,0.410424\H,0,-1.191374,
 1.183285,0.198488\H,0,-0.410065,-1.713179,-0.167039\H,0,0.81282,-0.347
 386,0.107736\\Version=ES64L-G09RevD.01\State=1-A\HF=-155.6836499\MP2=-
 155.9096335\RMSD=8.667e-09\PG=C01 [X(C4H6)]\\@

 Normal termination of Gaussian 09 at Wed Aug 26 15:07:31 2020.
