 Gaussian 09, Revision D.01,
 Gaussian 09:  ES64L-G09RevD.01 24-Apr-2013

 --------------------
 #p B2PLYPD3/Def2QZVP
 --------------------

 ---------
 butadiene
 ---------
 Symbolic Z-matrix:
 Charge =  0 Multiplicity = 1

                         Standard orientation:
 ---------------------------------------------------------------------
 Center     Atomic      Atomic             Coordinates (Angstroms)
 Number     Number       Type             X           Y           Z
 ---------------------------------------------------------------------
      1          6           0        1.841437    0.132578   -0.008032
      2          6           0        0.626537   -0.425283   -0.034309
      3          6           0       -0.628697    0.330301    0.006824
      4          6           0       -1.864975   -0.078499    0.030328
      5          1           0        2.857430   -0.383479    0.073279
      6          1           0        1.990687    1.231255    0.245926
      7          1           0        0.516617   -1.515038   -0.173604
      8          1           0       -0.517817    1.504811   -0.224758
      9          1           0       -1.946679   -1.148268    0.200203
     10          1           0       -2.746052    0.556138   -0.089915
 ---------------------------------------------------------------------

 SCF Done:  E(RB2PLYPD3) =  -155.677176707     A.U. after   11 cycles
 E2(B2PLYPD3) =    -0.2271625763D+00 E(B2PLYPD3) =    -0.15590433928313D+03

 The electronic state is 1-A.
 Alpha  occ. eigenvalues --  -10.63678 -10.63262 -10.63156 -10.61367  -0.92911
 Alpha  occ. eigenvalues --   -0.85344  -0.69583  -0.62320  -0.54913  -0.52970
 Alpha  occ. eigenvalues --   -0.48261  -0.42968  -0.39442  -0.37936  -0.28491
 Alpha virt. eigenvalues --    0.01566   0.06939   0.07149   0.07533   0.09513
 Alpha virt. eigenvalues --    0.11425   0.12422   0.14172   0.15381   0.16385
 Alpha virt. eigenvalues --    0.18795   0.19522   0.21462   0.22424   0.23232

 Mulliken charges:
               1
     1  C   -0.147861
     2  C   -0.053983
     3  C   -0.004070
     4  C   -0.178695
     5  H    0.077750
     6  H    0.058146
     7  H    0.058321
     8  H    0.032999
     9  H    0.055772
    10  H    0.101622
 Sum of Mulliken charges =   0.00000

 Dipole moment (field-independent basis, Debye):
    X=              0.0324    Y=             -0.0830    Z=              0.0291  Tot=              0.0938
 Quadrupole moment (field-independent basis, Debye-Ang):
   XX=            -22.9222   YY=            -23.9189   ZZ=            -29.2375
   XY=             -0.1250   XZ=              0.6709   YZ=             -0.0589

 1\1\GINC-NODE07\SP\RB2PLYPD3-FC\def2QZVP\C4H6\BOITTIER\26-Aug-2020\0\\
 #p B2PLYPD3/Def2QZVP\\butadiene\\0,1\C,0,-3.84559,0.234544,0.017022\C,
 0,-2.744014,-0.521722,0.066738\C,0,-1.377993,0.006874,0.013951\C,0,-0.
 229759,-0.607615,0.010036\H,0,-4.93467,-0.102407,-0.057386\H,0,-3.8042
 43,1.335094,-0.26748\H,0,-2.822332,-1.609946,0.236109\H,0,-1.286953,1.
 189024,0.213023\H,0,-0.331775,-1.679909,-0.130377\H,0,0.746578,-0.1297
 43,0.119232\\Version=ES64L-G09RevD.01\State=1-A\HF=-155.6771767\MP2=-1
 55.9043393\RMSD=7.835e-09\PG=C01 [X(C4H6)]\\@

 Normal termination of Gaussian 09 at Wed Aug 26 12:10:16 2020.
