 Gaussian 09, Revision D.01,
 Gaussian 09:  ES64L-G09RevD.01 24-Apr-2013

 --------------------
 #p B2PLYPD3/Def2QZVP
 --------------------

 ---------
 butadiene
 ---------
 Symbolic Z-matrix:
 Charge =  0 Multiplicity = 1

                         Standard orientation:
 ---------------------------------------------------------------------
 Center     Atomic      Atomic             Coordinates (Angstroms)
 Number     Number       Type             X           Y           Z
 ---------------------------------------------------------------------
      1          6           0        1.834479   -0.108625   -0.021082
      2          6           0        0.603673    0.408974    0.004103
      3          6           0       -0.597046   -0.405431    0.007878
      4          6           0       -1.825832    0.107679   -0.010688
      5          1           0        2.697142    0.530474    0.061274
      6          1           0        1.986827   -1.197139   -0.044466
      7          1           0        0.433146    1.481125    0.045283
      8          1           0       -0.465350   -1.462439    0.089142
      9          1           0       -2.040999    1.173583   -0.022026
     10          1           0       -2.702410   -0.541185   -0.010474
 ---------------------------------------------------------------------

 SCF Done:  E(RB2PLYPD3) =  -155.700354146     A.U. after   11 cycles
 E2(B2PLYPD3) =    -0.2256796991D+00 E(B2PLYPD3) =    -0.15592603384498D+03

 The electronic state is 1-A.
 Alpha  occ. eigenvalues --  -10.62456 -10.62213 -10.61610 -10.61559  -0.93111
 Alpha  occ. eigenvalues --   -0.84822  -0.70029  -0.64236  -0.54607  -0.53753
 Alpha  occ. eigenvalues --   -0.46776  -0.45567  -0.41118  -0.38122  -0.27665
 Alpha virt. eigenvalues --    0.01817   0.07027   0.07354   0.08099   0.09540
 Alpha virt. eigenvalues --    0.11721   0.12372   0.14767   0.15768   0.16128
 Alpha virt. eigenvalues --    0.18735   0.20318   0.21725   0.22887   0.23852

 Mulliken charges:
               1
     1  C   -0.176371
     2  C   -0.032262
     3  C   -0.029202
     4  C   -0.175916
     5  H    0.086877
     6  H    0.065604
     7  H    0.056071
     8  H    0.059330
     9  H    0.065760
    10  H    0.080111
 Sum of Mulliken charges =   0.00000

 Dipole moment (field-independent basis, Debye):
    X=             -0.0276    Y=              0.0079    Z=              0.1169  Tot=              0.1203
 Quadrupole moment (field-independent basis, Debye-Ang):
   XX=            -23.6335   YY=            -23.0284   ZZ=            -29.2559
   XY=             -0.2645   XZ=              0.1597   YZ=              0.0249

 1\1\GINC-NODE18\SP\RB2PLYPD3-FC\def2QZVP\C4H6\BOITTIER\26-Aug-2020\0\\
 #p B2PLYPD3/Def2QZVP\\butadiene\\0,1\C,0,-3.833796,0.227905,0.001906\C
 ,0,-2.718767,-0.505875,0.043202\C,0,-1.388987,0.07404,0.023784\C,0,-0.
 275327,-0.656232,0.021214\H,0,-4.798688,-0.239306,0.10248\H,0,-3.78391
 8,1.324737,-0.053683\H,0,-2.747688,-1.589448,0.116109\H,0,-1.324094,1.
 139173,0.073742\H,0,-0.259469,-1.743391,0.041473\H,0,0.705427,-0.17957
 6,0.002896\\Version=ES64L-G09RevD.01\State=1-A\HF=-155.7003541\MP2=-15
 5.9260338\RMSD=2.993e-09\PG=C01 [X(C4H6)]\\@

 Normal termination of Gaussian 09 at Wed Aug 26 16:24:03 2020.
