 Gaussian 09, Revision D.01,
 Gaussian 09:  ES64L-G09RevD.01 24-Apr-2013

 --------------------
 #p B2PLYPD3/Def2QZVP
 --------------------

 ---------
 butadiene
 ---------
 Symbolic Z-matrix:
 Charge =  0 Multiplicity = 1

                         Standard orientation:
 ---------------------------------------------------------------------
 Center     Atomic      Atomic             Coordinates (Angstroms)
 Number     Number       Type             X           Y           Z
 ---------------------------------------------------------------------
      1          6           0       -1.849118    0.093597   -0.048786
      2          6           0       -0.609323   -0.358623    0.032879
      3          6           0        0.621356    0.399013    0.028380
      4          6           0        1.831702   -0.137302   -0.042129
      5          1           0       -2.678941   -0.569650    0.045458
      6          1           0       -2.044002    1.133999   -0.098791
      7          1           0       -0.399103   -1.409856    0.136112
      8          1           0        0.548525    1.512307    0.181606
      9          1           0        1.932315   -1.184410   -0.056411
     10          1           0        2.673494    0.537501   -0.030034
 ---------------------------------------------------------------------

 SCF Done:  E(RB2PLYPD3) =  -155.696290866     A.U. after   11 cycles
 E2(B2PLYPD3) =    -0.2251562265D+00 E(B2PLYPD3) =    -0.15592144709246D+03

 The electronic state is 1-A.
 Alpha  occ. eigenvalues --  -10.62498 -10.62093 -10.61098 -10.60956  -0.93327
 Alpha  occ. eigenvalues --   -0.85514  -0.70639  -0.63719  -0.54828  -0.54390
 Alpha  occ. eigenvalues --   -0.46985  -0.46211  -0.40838  -0.37890  -0.28008
 Alpha virt. eigenvalues --    0.01796   0.07061   0.07429   0.08015   0.09973
 Alpha virt. eigenvalues --    0.11763   0.12360   0.14944   0.15585   0.16098
 Alpha virt. eigenvalues --    0.18841   0.20124   0.21706   0.22562   0.24135

 Mulliken charges:
               1
     1  C   -0.177693
     2  C   -0.027993
     3  C   -0.018855
     4  C   -0.185594
     5  H    0.089012
     6  H    0.069135
     7  H    0.047219
     8  H    0.043795
     9  H    0.070177
    10  H    0.090798
 Sum of Mulliken charges =   0.00000

 Dipole moment (field-independent basis, Debye):
    X=              0.0387    Y=             -0.0041    Z=              0.1884  Tot=              0.1924
 Quadrupole moment (field-independent basis, Debye-Ang):
   XX=            -23.5366   YY=            -23.2056   ZZ=            -29.0707
   XY=             -0.0855   XZ=             -0.0897   YZ=             -0.0408

 1\1\GINC-NODE04\SP\RB2PLYPD3-FC\def2QZVP\C4H6\BOITTIER\26-Aug-2020\0\\
 #p B2PLYPD3/Def2QZVP\\butadiene\\0,1\C,0,-3.855028,0.204176,-0.024907\
 C,0,-2.71474,-0.458376,0.070131\C,0,-1.369309,0.068826,0.048284\C,0,-0
 .273359,-0.67509,-0.006711\H,0,-4.788955,-0.298927,0.084876\H,0,-3.862
 631,1.261045,-0.101628\H,0,-2.693805,-1.527273,0.200361\H,0,-1.243268,
 1.180918,0.173065\H,0,-0.359916,-1.723477,0.005768\H,0,0.674712,-0.160
 051,-0.010465\\Version=ES64L-G09RevD.01\State=1-A\HF=-155.6962909\MP2=
 -155.9214471\RMSD=4.209e-09\PG=C01 [X(C4H6)]\\@

 Normal termination of Gaussian 09 at Wed Aug 26 10:28:01 2020.
