 Gaussian 09, Revision D.01,
 Gaussian 09:  ES64L-G09RevD.01 24-Apr-2013

 --------------------
 #p B2PLYPD3/Def2QZVP
 --------------------

 ---------
 butadiene
 ---------
 Symbolic Z-matrix:
 Charge =  0 Multiplicity = 1

                         Standard orientation:
 ---------------------------------------------------------------------
 Center     Atomic      Atomic             Coordinates (Angstroms)
 Number     Number       Type             X           Y           Z
 ---------------------------------------------------------------------
      1          6           0       -1.845862    0.110807   -0.019036
      2          6           0       -0.606184   -0.410842    0.024085
      3          6           0        0.602029    0.399564    0.024006
      4          6           0        1.836915   -0.110739   -0.025027
      5          1           0       -2.741604   -0.516491   -0.032686
      6          1           0       -1.962985    1.212537   -0.045956
      7          1           0       -0.429816   -1.470585    0.024773
      8          1           0        0.489183    1.479661    0.078940
      9          1           0        1.994779   -1.170108    0.010269
     10          1           0        2.729056    0.532247   -0.059504
 ---------------------------------------------------------------------

 SCF Done:  E(RB2PLYPD3) =  -155.699419865     A.U. after   11 cycles
 E2(B2PLYPD3) =    -0.2262096662D+00 E(B2PLYPD3) =    -0.15592562953081D+03

 The electronic state is 1-A.
 Alpha  occ. eigenvalues --  -10.62668 -10.62525 -10.62149 -10.61594  -0.92911
 Alpha  occ. eigenvalues --   -0.84632  -0.69896  -0.64195  -0.54348  -0.53684
 Alpha  occ. eigenvalues --   -0.46592  -0.45537  -0.41268  -0.37991  -0.27574
 Alpha virt. eigenvalues --    0.01633   0.06980   0.07378   0.08031   0.09475
 Alpha virt. eigenvalues --    0.11680   0.12417   0.14568   0.15788   0.16129
 Alpha virt. eigenvalues --    0.18727   0.20462   0.21431   0.22944   0.23815

 Mulliken charges:
               1
     1  C   -0.173931
     2  C   -0.038101
     3  C   -0.022640
     4  C   -0.179246
     5  H    0.088891
     6  H    0.065375
     7  H    0.056836
     8  H    0.053575
     9  H    0.065278
    10  H    0.083963
 Sum of Mulliken charges =   0.00000

 Dipole moment (field-independent basis, Debye):
    X=              0.0164    Y=             -0.0218    Z=              0.0125  Tot=              0.0300
 Quadrupole moment (field-independent basis, Debye-Ang):
   XX=            -23.5552   YY=            -23.1073   ZZ=            -29.3629
   XY=             -0.0785   XZ=              0.0672   YZ=             -0.0240

 1\1\GINC-NODE28\SP\RB2PLYPD3-FC\def2QZVP\C4H6\BOITTIER\26-Aug-2020\0\\
 #p B2PLYPD3/Def2QZVP\\butadiene\\0,1\C,0,-3.846346,0.225805,-0.00224\C
 ,0,-2.720376,-0.50848,0.059383\C,0,-1.386277,0.071402,0.038076\C,0,-0.
 263259,-0.653606,0.007237\H,0,-4.840213,-0.230553,0.000644\H,0,-3.7637
 95,1.329361,-0.062244\H,0,-2.737183,-1.58217,0.092059\H,0,-1.30316,1.1
 55352,0.060544\H,0,-0.298099,-1.722576,0.074449\H,0,0.72974,-0.182607,
 -0.044228\\Version=ES64L-G09RevD.01\State=1-A\HF=-155.6994199\MP2=-155
 .9256295\RMSD=4.138e-09\PG=C01 [X(C4H6)]\\@

 Normal termination of Gaussian 09 at Wed Aug 26 22:02:37 2020.
