 Gaussian 09, Revision D.01,
 Gaussian 09:  ES64L-G09RevD.01 24-Apr-2013

 --------------------
 #p B2PLYPD3/Def2QZVP
 --------------------

 ---------
 butadiene
 ---------
 Symbolic Z-matrix:
 Charge =  0 Multiplicity = 1

                         Standard orientation:
 ---------------------------------------------------------------------
 Center     Atomic      Atomic             Coordinates (Angstroms)
 Number     Number       Type             X           Y           Z
 ---------------------------------------------------------------------
      1          6           0        1.891725    0.088047   -0.008474
      2          6           0        0.613604   -0.363249   -0.048686
      3          6           0       -0.620764    0.429785    0.027417
      4          6           0       -1.867367   -0.120288    0.024950
      5          1           0        2.664352   -0.690917    0.052898
      6          1           0        2.145424    1.138878    0.260468
      7          1           0        0.330161   -1.408642   -0.144697
      8          1           0       -0.487011    1.588473   -0.236308
      9          1           0       -1.906787   -1.217880    0.174712
     10          1           0       -2.849324    0.384320   -0.078320
 ---------------------------------------------------------------------

 SCF Done:  E(RB2PLYPD3) =  -155.678808268     A.U. after   11 cycles
 E2(B2PLYPD3) =    -0.2288170016D+00 E(B2PLYPD3) =    -0.15590762526908D+03

 The electronic state is 1-A.
 Alpha  occ. eigenvalues --  -10.64320 -10.63411 -10.63031 -10.62592  -0.92230
 Alpha  occ. eigenvalues --   -0.84201  -0.70113  -0.62620  -0.54173  -0.52641
 Alpha  occ. eigenvalues --   -0.47071  -0.44870  -0.40044  -0.37386  -0.27668
 Alpha virt. eigenvalues --    0.00766   0.06997   0.07133   0.07630   0.08923
 Alpha virt. eigenvalues --    0.11385   0.12350   0.14553   0.15279   0.16030
 Alpha virt. eigenvalues --    0.18920   0.19628   0.21191   0.22446   0.23373

 Mulliken charges:
               1
     1  C   -0.171969
     2  C   -0.035993
     3  C   -0.028570
     4  C   -0.175377
     5  H    0.084639
     6  H    0.076851
     7  H    0.052381
     8  H    0.048961
     9  H    0.055102
    10  H    0.093975
 Sum of Mulliken charges =   0.00000

 Dipole moment (field-independent basis, Debye):
    X=             -0.1646    Y=             -0.1157    Z=              0.0453  Tot=              0.2062
 Quadrupole moment (field-independent basis, Debye-Ang):
   XX=            -23.3525   YY=            -23.6534   ZZ=            -29.5180
   XY=              0.3011   XZ=              0.8328   YZ=             -0.1159

 1\1\GINC-NODE14\SP\RB2PLYPD3-FC\def2QZVP\C4H6\BOITTIER\26-Aug-2020\0\\
 #p B2PLYPD3/Def2QZVP\\butadiene\\0,1\C,0,-3.895445,0.20999,0.017734\C,
 0,-2.72016,-0.464173,0.073299\C,0,-1.362393,0.091893,-0.001665\C,0,-0.
 23573,-0.674192,0.017005\H,0,-4.795721,-0.417334,-0.04119\H,0,-3.95350
 6,1.285936,-0.264946\H,0,-2.630837,-1.54229,0.183244\H,0,-1.286157,1.2
 5887,0.248038\H,0,-0.394383,-1.762631,-0.120189\H,0,0.820608,-0.353975
 ,0.122573\\Version=ES64L-G09RevD.01\State=1-A\HF=-155.6788083\MP2=-155
 .9076253\RMSD=6.388e-09\PG=C01 [X(C4H6)]\\@

 Normal termination of Gaussian 09 at Wed Aug 26 12:46:21 2020.
