 Gaussian 09, Revision D.01,
 Gaussian 09:  ES64L-G09RevD.01 24-Apr-2013

 --------------------
 #p B2PLYPD3/Def2QZVP
 --------------------

 ---------
 butadiene
 ---------
 Symbolic Z-matrix:
 Charge =  0 Multiplicity = 1

                         Standard orientation:
 ---------------------------------------------------------------------
 Center     Atomic      Atomic             Coordinates (Angstroms)
 Number     Number       Type             X           Y           Z
 ---------------------------------------------------------------------
      1          6           0        1.840022   -0.134014   -0.032031
      2          6           0        0.605912    0.405905    0.035320
      3          6           0       -0.603712   -0.355390    0.068776
      4          6           0       -1.848918    0.091655   -0.045179
      5          1           0        2.719678    0.485388   -0.062057
      6          1           0        1.968383   -1.200594   -0.006488
      7          1           0        0.598820    1.509644   -0.007691
      8          1           0       -0.448018   -1.386677   -0.034663
      9          1           0       -2.072721    1.120895    0.009704
     10          1           0       -2.725968   -0.577594   -0.060119
 ---------------------------------------------------------------------

 SCF Done:  E(RB2PLYPD3) =  -155.695490743     A.U. after   11 cycles
 E2(B2PLYPD3) =    -0.2258483147D+00 E(B2PLYPD3) =    -0.15592133905791D+03

 The electronic state is 1-A.
 Alpha  occ. eigenvalues --  -10.62707 -10.61937 -10.61604 -10.61417  -0.93335
 Alpha  occ. eigenvalues --   -0.85041  -0.70700  -0.64310  -0.54802  -0.54275
 Alpha  occ. eigenvalues --   -0.46761  -0.45420  -0.41237  -0.38337  -0.27589
 Alpha virt. eigenvalues --    0.01322   0.06994   0.07651   0.07941   0.09779
 Alpha virt. eigenvalues --    0.11688   0.12495   0.14763   0.15632   0.16364
 Alpha virt. eigenvalues --    0.18919   0.19863   0.21618   0.23188   0.23858

 Mulliken charges:
               1
     1  C   -0.178673
     2  C   -0.026744
     3  C   -0.032683
     4  C   -0.170818
     5  H    0.086978
     6  H    0.063558
     7  H    0.048544
     8  H    0.061292
     9  H    0.068527
    10  H    0.080019
 Sum of Mulliken charges =   0.00000

 Dipole moment (field-independent basis, Debye):
    X=              0.0245    Y=              0.0089    Z=             -0.0650  Tot=              0.0701
 Quadrupole moment (field-independent basis, Debye-Ang):
   XX=            -23.2200   YY=            -23.2785   ZZ=            -29.1901
   XY=              0.0105   XZ=             -0.0193   YZ=              0.0682

 1\1\GINC-NODE14\SP\RB2PLYPD3-FC\def2QZVP\C4H6\BOITTIER\26-Aug-2020\0\\
 #p B2PLYPD3/Def2QZVP\\butadiene\\0,1\C,0,-3.840296,0.240659,-0.019434\
 C,0,-2.720461,-0.505442,0.072099\C,0,-1.395344,0.03114,0.077078\C,0,-0
 .24915,-0.63286,-0.016281\H,0,-4.815575,-0.214471,-0.026086\H,0,-3.778
 343,1.313302,-0.037309\H,0,-2.908427,-1.59393,0.073789\H,0,-1.367195,1
 .068717,-0.068298\H,0,-0.210152,-1.682395,0.080629\H,0,0.732122,-0.130
 053,-0.05658\\Version=ES64L-G09RevD.01\State=1-A\HF=-155.6954907\MP2=-
 155.9213391\RMSD=5.635e-09\PG=C01 [X(C4H6)]\\@

 Normal termination of Gaussian 09 at Wed Aug 26 09:05:28 2020.
