 Gaussian 09, Revision D.01,
 Gaussian 09:  ES64L-G09RevD.01 24-Apr-2013

 --------------------
 #p B2PLYPD3/Def2QZVP
 --------------------

 ---------
 butadiene
 ---------
 Symbolic Z-matrix:
 Charge =  0 Multiplicity = 1

                         Standard orientation:
 ---------------------------------------------------------------------
 Center     Atomic      Atomic             Coordinates (Angstroms)
 Number     Number       Type             X           Y           Z
 ---------------------------------------------------------------------
      1          6           0       -1.828465   -0.124066   -0.027764
      2          6           0       -0.623865    0.394776    0.027434
      3          6           0        0.606802   -0.398096    0.020211
      4          6           0        1.844853    0.118733   -0.039420
      5          1           0       -2.651126    0.567236    0.013327
      6          1           0       -1.989453   -1.166526   -0.080250
      7          1           0       -0.522202    1.493149    0.076617
      8          1           0        0.480544   -1.462004    0.107779
      9          1           0        2.025548    1.153564   -0.039962
     10          1           0        2.660739   -0.533500    0.039723
 ---------------------------------------------------------------------

 SCF Done:  E(RB2PLYPD3) =  -155.698115064     A.U. after   11 cycles
 E2(B2PLYPD3) =    -0.2249112547D+00 E(B2PLYPD3) =    -0.15592302631891D+03

 The electronic state is 1-A.
 Alpha  occ. eigenvalues --  -10.62460 -10.62232 -10.60801 -10.60743  -0.93015
 Alpha  occ. eigenvalues --   -0.85445  -0.70344  -0.64102  -0.54888  -0.54363
 Alpha  occ. eigenvalues --   -0.46569  -0.46481  -0.41080  -0.37954  -0.27889
 Alpha virt. eigenvalues --    0.01988   0.07043   0.07488   0.08089   0.09702
 Alpha virt. eigenvalues --    0.11797   0.12390   0.14984   0.15829   0.16060
 Alpha virt. eigenvalues --    0.18798   0.20463   0.21576   0.22802   0.24288

 Mulliken charges:
               1
     1  C   -0.178977
     2  C   -0.020742
     3  C   -0.038727
     4  C   -0.179087
     5  H    0.085052
     6  H    0.071689
     7  H    0.048989
     8  H    0.055673
     9  H    0.070882
    10  H    0.085248
 Sum of Mulliken charges =   0.00000

 Dipole moment (field-independent basis, Debye):
    X=             -0.0223    Y=             -0.0034    Z=              0.1337  Tot=              0.1356
 Quadrupole moment (field-independent basis, Debye-Ang):
   XX=            -23.7412   YY=            -22.8819   ZZ=            -29.1187
   XY=              0.1483   XZ=              0.1904   YZ=             -0.0135

 1\1\GINC-NODE30\SP\RB2PLYPD3-FC\def2QZVP\C4H6\BOITTIER\26-Aug-2020\0\\
 #p B2PLYPD3/Def2QZVP\\butadiene\\0,1\C,0,-3.829653,0.230479,0.045291\C
 ,0,-2.736109,-0.494732,0.0061\C,0,-1.384578,0.067719,-0.009856\C,0,-0.
 257194,-0.658047,0.065685\H,0,-4.761814,-0.305246,0.024527\H,0,-3.8034
 46,1.286062,0.066559\H,0,-2.830578,-1.594726,-0.010221\H,0,-1.32108,1.
 134131,-0.129206\H,0,-0.262397,-1.70805,0.097202\H,0,0.660801,-0.16310
 1,-0.032567\\Version=ES64L-G09RevD.01\State=1-A\HF=-155.6981151\MP2=-1
 55.9230263\RMSD=6.776e-09\PG=C01 [X(C4H6)]\\@

 Normal termination of Gaussian 09 at Wed Aug 26 08:54:04 2020.
