 Gaussian 09, Revision D.01,
 Gaussian 09:  ES64L-G09RevD.01 24-Apr-2013

 --------------------
 #p B2PLYPD3/Def2QZVP
 --------------------

 ---------
 butadiene
 ---------
 Symbolic Z-matrix:
 Charge =  0 Multiplicity = 1

                         Standard orientation:
 ---------------------------------------------------------------------
 Center     Atomic      Atomic             Coordinates (Angstroms)
 Number     Number       Type             X           Y           Z
 ---------------------------------------------------------------------
      1          6           0       -1.869111   -0.156967    0.084521
      2          6           0       -0.653774    0.454073   -0.070725
      3          6           0        0.600848   -0.366610   -0.097150
      4          6           0        1.876577    0.103708    0.037430
      5          1           0       -2.706807    0.454018   -0.008299
      6          1           0       -1.913934   -1.218131    0.035132
      7          1           0       -0.460428    1.530511    0.049543
      8          1           0        0.574776   -1.459651   -0.071373
      9          1           0        2.068901    1.101941    0.039599
     10          1           0        2.710246   -0.613905    0.230945
 ---------------------------------------------------------------------

 SCF Done:  E(RB2PLYPD3) =  -155.682104288     A.U. after   12 cycles
 E2(B2PLYPD3) =    -0.2275121594D+00 E(B2PLYPD3) =    -0.15590961644736D+03

 The electronic state is 1-A.
 Alpha  occ. eigenvalues --  -10.63993 -10.63160 -10.61689 -10.61477  -0.91862
 Alpha  occ. eigenvalues --   -0.84639  -0.70219  -0.64279  -0.54885  -0.53238
 Alpha  occ. eigenvalues --   -0.47067  -0.45407  -0.41486  -0.37054  -0.27368
 Alpha virt. eigenvalues --    0.01032   0.06962   0.07511   0.08018   0.08755
 Alpha virt. eigenvalues --    0.11742   0.12475   0.14639   0.15386   0.16358
 Alpha virt. eigenvalues --    0.19014   0.19423   0.21513   0.22830   0.24706

 Mulliken charges:
               1
     1  C   -0.167576
     2  C   -0.059886
     3  C   -0.022697
     4  C   -0.185434
     5  H    0.090657
     6  H    0.076804
     7  H    0.065860
     8  H    0.051098
     9  H    0.070331
    10  H    0.080843
 Sum of Mulliken charges =   0.00000

 Dipole moment (field-independent basis, Debye):
    X=             -0.0404    Y=              0.0394    Z=              0.1339  Tot=              0.1453
 Quadrupole moment (field-independent basis, Debye-Ang):
   XX=            -23.8480   YY=            -22.9233   ZZ=            -29.4693
   XY=              0.0459   XZ=              0.7062   YZ=             -0.0480

 1\1\GINC-NODE21\SP\RB2PLYPD3-FC\def2QZVP\C4H6\BOITTIER\26-Aug-2020\0\\
 #p B2PLYPD3/Def2QZVP\\butadiene\\0,1\C,0,-3.86166,0.258123,-0.063531\C
 ,0,-2.766773,-0.545304,0.110375\C,0,-1.390351,0.049379,0.099905\C,0,-0
 .215031,-0.636682,-0.021493\H,0,-4.790259,-0.196851,0.056282\H,0,-3.72
 4309,1.312438,-0.055131\H,0,-2.761142,-1.642691,0.031141\H,0,-1.229885
 ,1.129058,0.031885\H,0,-0.195816,-1.652465,0.014256\H,0,0.72672,-0.079
 813,-0.246042\\Version=ES64L-G09RevD.01\State=1-A\HF=-155.6821043\MP2=
 -155.9096164\RMSD=2.917e-09\PG=C01 [X(C4H6)]\\@

 Normal termination of Gaussian 09 at Wed Aug 26 12:54:49 2020.
