 Gaussian 09, Revision D.01,
 Gaussian 09:  ES64L-G09RevD.01 24-Apr-2013

 --------------------
 #p B2PLYPD3/Def2QZVP
 --------------------

 ---------
 butadiene
 ---------
 Symbolic Z-matrix:
 Charge =  0 Multiplicity = 1

                         Standard orientation:
 ---------------------------------------------------------------------
 Center     Atomic      Atomic             Coordinates (Angstroms)
 Number     Number       Type             X           Y           Z
 ---------------------------------------------------------------------
      1          6           0       -1.833512    0.091590   -0.000232
      2          6           0       -0.590382   -0.381638   -0.020913
      3          6           0        0.600248    0.414739   -0.024031
      4          6           0        1.837409   -0.115713    0.015086
      5          1           0       -2.691404   -0.551390    0.086819
      6          1           0       -2.058544    1.154268    0.019785
      7          1           0       -0.466246   -1.463314   -0.000359
      8          1           0        0.435086    1.505343    0.032539
      9          1           0        1.975269   -1.197244    0.013430
     10          1           0        2.723270    0.498470    0.028326
 ---------------------------------------------------------------------

 SCF Done:  E(RB2PLYPD3) =  -155.699832268     A.U. after   11 cycles
 E2(B2PLYPD3) =    -0.2260454904D+00 E(B2PLYPD3) =    -0.15592587775805D+03

 The electronic state is 1-A.
 Alpha  occ. eigenvalues --  -10.62815 -10.62273 -10.61859 -10.61351  -0.93218
 Alpha  occ. eigenvalues --   -0.84764  -0.70468  -0.63867  -0.54828  -0.53758
 Alpha  occ. eigenvalues --   -0.46690  -0.45419  -0.41156  -0.38344  -0.27508
 Alpha virt. eigenvalues --    0.01487   0.07028   0.07332   0.08050   0.09697
 Alpha virt. eigenvalues --    0.11660   0.12458   0.14775   0.15793   0.16214
 Alpha virt. eigenvalues --    0.18769   0.20352   0.21827   0.22676   0.23805

 Mulliken charges:
               1
     1  C   -0.175811
     2  C   -0.018734
     3  C   -0.033085
     4  C   -0.175553
     5  H    0.083580
     6  H    0.060374
     7  H    0.050401
     8  H    0.053618
     9  H    0.066884
    10  H    0.088326
 Sum of Mulliken charges =   0.00000

 Dipole moment (field-independent basis, Debye):
    X=              0.0110    Y=             -0.0033    Z=              0.1329  Tot=              0.1334
 Quadrupole moment (field-independent basis, Debye-Ang):
   XX=            -23.4051   YY=            -23.1788   ZZ=            -29.2779
   XY=             -0.2118   XZ=             -0.1774   YZ=              0.0084

 1\1\GINC-NODE12\SP\RB2PLYPD3-FC\def2QZVP\C4H6\BOITTIER\26-Aug-2020\0\\
 #p B2PLYPD3/Def2QZVP\\butadiene\\0,1\C,0,-3.839222,0.212355,0.024764\C
 ,0,-2.704637,-0.482208,0.018072\C,0,-1.387725,0.080756,-0.007231\C,0,-
 0.269257,-0.66725,0.047477\H,0,-4.800432,-0.258852,0.129735\H,0,-3.864
 574,1.298437,0.014428\H,0,-2.781756,-1.567227,0.069463\H,0,-1.348911,1
 .18427,0.0182\H,0,-0.332968,-1.755279,0.076668\H,0,0.714626,-0.226676,
 0.043588\\Version=ES64L-G09RevD.01\State=1-A\HF=-155.6998323\MP2=-155.
 9258778\RMSD=5.390e-09\PG=C01 [X(C4H6)]\\@

 Normal termination of Gaussian 09 at Wed Aug 26 18:28:12 2020.
