 Gaussian 09, Revision D.01,
 Gaussian 09:  ES64L-G09RevD.01 24-Apr-2013

 --------------------
 #p B2PLYPD3/Def2QZVP
 --------------------

 ---------
 butadiene
 ---------
 Symbolic Z-matrix:
 Charge =  0 Multiplicity = 1

                         Standard orientation:
 ---------------------------------------------------------------------
 Center     Atomic      Atomic             Coordinates (Angstroms)
 Number     Number       Type             X           Y           Z
 ---------------------------------------------------------------------
      1          6           0        1.856130    0.084975   -0.001463
      2          6           0        0.584009   -0.343384   -0.053054
      3          6           0       -0.623542    0.437662    0.015009
      4          6           0       -1.817188   -0.158612    0.033681
      5          1           0        2.632983   -0.612900   -0.035050
      6          1           0        2.183530    1.058650    0.288050
      7          1           0        0.486660   -1.458557   -0.069976
      8          1           0       -0.540573    1.580745   -0.180370
      9          1           0       -2.023495   -1.209162    0.159862
     10          1           0       -2.735556    0.517376   -0.127556
 ---------------------------------------------------------------------

 SCF Done:  E(RB2PLYPD3) =  -155.683749695     A.U. after   11 cycles
 E2(B2PLYPD3) =    -0.2270156335D+00 E(B2PLYPD3) =    -0.15591076532811D+03

 The electronic state is 1-A.
 Alpha  occ. eigenvalues --  -10.63477 -10.62875 -10.62505 -10.60825  -0.92906
 Alpha  occ. eigenvalues --   -0.84842  -0.70300  -0.63087  -0.54295  -0.53956
 Alpha  occ. eigenvalues --   -0.46686  -0.44622  -0.40575  -0.38060  -0.27507
 Alpha virt. eigenvalues --    0.01246   0.06984   0.07159   0.07710   0.09319
 Alpha virt. eigenvalues --    0.11441   0.12387   0.15037   0.15425   0.16377
 Alpha virt. eigenvalues --    0.18682   0.19835   0.21585   0.22731   0.23718

 Mulliken charges:
               1
     1  C   -0.175158
     2  C   -0.028340
     3  C   -0.033622
     4  C   -0.170423
     5  H    0.078452
     6  H    0.066316
     7  H    0.047243
     8  H    0.063113
     9  H    0.080960
    10  H    0.071458
 Sum of Mulliken charges =   0.00000

 Dipole moment (field-independent basis, Debye):
    X=             -0.0857    Y=             -0.0891    Z=              0.0629  Tot=              0.1387
 Quadrupole moment (field-independent basis, Debye-Ang):
   XX=            -23.6888   YY=            -23.1611   ZZ=            -29.2282
   XY=              0.3500   XZ=              0.7128   YZ=             -0.1448

 1\1\GINC-NODE34\SP\RB2PLYPD3-FC\def2QZVP\C4H6\BOITTIER\26-Aug-2020\0\\
 #p B2PLYPD3/Def2QZVP\\butadiene\\0,1\C,0,-3.863992,0.199433,0.010657\C
 ,0,-2.689591,-0.44925,0.077271\C,0,-1.36121,0.101905,0.010364\C,0,-0.2
 93689,-0.698768,0.007941\H,0,-4.753545,-0.347494,0.045658\H,0,-4.00981
 8,1.212372,-0.292232\H,0,-2.793818,-1.563525,0.107294\H,0,-1.239104,1.
 243674,0.192431\H,0,-0.278285,-1.770755,-0.104957\H,0,0.729994,-0.1963
 28,0.169132\\Version=ES64L-G09RevD.01\State=1-A\HF=-155.6837497\MP2=-1
 55.9107653\RMSD=7.269e-09\PG=C01 [X(C4H6)]\\@

 Normal termination of Gaussian 09 at Wed Aug 26 15:31:50 2020.
