 Gaussian 09, Revision D.01,
 Gaussian 09:  ES64L-G09RevD.01 24-Apr-2013

 --------------------
 #p B2PLYPD3/Def2QZVP
 --------------------

 ---------
 butadiene
 ---------
 Symbolic Z-matrix:
 Charge =  0 Multiplicity = 1

                         Standard orientation:
 ---------------------------------------------------------------------
 Center     Atomic      Atomic             Coordinates (Angstroms)
 Number     Number       Type             X           Y           Z
 ---------------------------------------------------------------------
      1          6           0       -1.834358   -0.124705   -0.020022
      2          6           0       -0.595677    0.428146    0.014229
      3          6           0        0.603986   -0.397457    0.004120
      4          6           0        1.838275    0.100833   -0.007349
      5          1           0       -2.724596    0.491584   -0.008452
      6          1           0       -1.978860   -1.182784   -0.024925
      7          1           0       -0.494098    1.495711    0.103390
      8          1           0        0.416762   -1.461005    0.065489
      9          1           0        1.998162    1.174467   -0.096361
     10          1           0        2.709278   -0.558876    0.014988
 ---------------------------------------------------------------------

 SCF Done:  E(RB2PLYPD3) =  -155.699619514     A.U. after   11 cycles
 E2(B2PLYPD3) =    -0.2260904660D+00 E(B2PLYPD3) =    -0.15592570997983D+03

 The electronic state is 1-A.
 Alpha  occ. eigenvalues --  -10.62736 -10.62427 -10.61650 -10.61594  -0.92885
 Alpha  occ. eigenvalues --   -0.84606  -0.70021  -0.64378  -0.54298  -0.53942
 Alpha  occ. eigenvalues --   -0.46441  -0.45896  -0.41429  -0.37899  -0.27475
 Alpha virt. eigenvalues --    0.01651   0.07040   0.07408   0.08069   0.09331
 Alpha virt. eigenvalues --    0.11719   0.12424   0.14705   0.15869   0.16039
 Alpha virt. eigenvalues --    0.18723   0.20454   0.21509   0.23124   0.23788

 Mulliken charges:
               1
     1  C   -0.180263
     2  C   -0.035862
     3  C   -0.028472
     4  C   -0.178107
     5  H    0.083218
     6  H    0.067577
     7  H    0.060735
     8  H    0.057244
     9  H    0.068368
    10  H    0.085564
 Sum of Mulliken charges =   0.00000

 Dipole moment (field-independent basis, Debye):
    X=             -0.0325    Y=             -0.0050    Z=              0.0590  Tot=              0.0675
 Quadrupole moment (field-independent basis, Debye-Ang):
   XX=            -23.6551   YY=            -22.9997   ZZ=            -29.3240
   XY=              0.1892   XZ=             -0.0995   YZ=             -0.0574

 1\1\GINC-NODE31\SP\RB2PLYPD3-FC\def2QZVP\C4H6\BOITTIER\26-Aug-2020\0\\
 #p B2PLYPD3/Def2QZVP\\butadiene\\0,1\C,0,-3.834624,0.241437,0.034156\C
 ,0,-2.716845,-0.527676,0.020608\C,0,-1.387327,0.066587,0.008436\C,0,-0
 .263841,-0.646679,0.038877\H,0,-4.821894,-0.203245,0.039236\H,0,-3.784
 832,1.307809,0.005756\H,0,-2.810809,-1.598207,-0.035035\H,0,-1.378746,
 1.144022,-0.086495\H,0,-0.301055,-1.728212,0.161674\H,0,0.71229,-0.156
 884,-0.001497\\Version=ES64L-G09RevD.01\State=1-A\HF=-155.6996195\MP2=
 -155.92571\RMSD=6.054e-09\PG=C01 [X(C4H6)]\\@

 Normal termination of Gaussian 09 at Wed Aug 26 21:34:40 2020.
