 Gaussian 09, Revision D.01,
 Gaussian 09:  ES64L-G09RevD.01 24-Apr-2013

 --------------------
 #p B2PLYPD3/Def2QZVP
 --------------------

 ---------
 butadiene
 ---------
 Symbolic Z-matrix:
 Charge =  0 Multiplicity = 1

                         Standard orientation:
 ---------------------------------------------------------------------
 Center     Atomic      Atomic             Coordinates (Angstroms)
 Number     Number       Type             X           Y           Z
 ---------------------------------------------------------------------
      1          6           0       -1.844011    0.097090    0.012558
      2          6           0       -0.609540   -0.371861   -0.057840
      3          6           0        0.618228    0.431564   -0.019486
      4          6           0        1.843733   -0.141872    0.031797
      5          1           0       -2.680788   -0.620639    0.037049
      6          1           0       -2.113559    1.135799    0.204764
      7          1           0       -0.416796   -1.464310   -0.059817
      8          1           0        0.498180    1.521596   -0.099848
      9          1           0        1.990300   -1.202823    0.152923
     10          1           0        2.672203    0.540848   -0.037239
 ---------------------------------------------------------------------

 SCF Done:  E(RB2PLYPD3) =  -155.695634544     A.U. after   11 cycles
 E2(B2PLYPD3) =    -0.2263165093D+00 E(B2PLYPD3) =    -0.15592195105328D+03

 The electronic state is 1-A.
 Alpha  occ. eigenvalues --  -10.62999 -10.62653 -10.61767 -10.61594  -0.92626
 Alpha  occ. eigenvalues --   -0.84826  -0.69925  -0.63587  -0.54405  -0.53541
 Alpha  occ. eigenvalues --   -0.46338  -0.46182  -0.40521  -0.37814  -0.27711
 Alpha virt. eigenvalues --    0.01643   0.06966   0.07309   0.07979   0.09405
 Alpha virt. eigenvalues --    0.11636   0.12221   0.14989   0.15600   0.16044
 Alpha virt. eigenvalues --    0.18799   0.20343   0.21337   0.22636   0.23734

 Mulliken charges:
               1
     1  C   -0.172341
     2  C   -0.025489
     3  C   -0.039699
     4  C   -0.182475
     5  H    0.078473
     6  H    0.069332
     7  H    0.050631
     8  H    0.058379
     9  H    0.076678
    10  H    0.086510
 Sum of Mulliken charges =   0.00000

 Dipole moment (field-independent basis, Debye):
    X=              0.0332    Y=              0.0119    Z=              0.1489  Tot=              0.1530
 Quadrupole moment (field-independent basis, Debye-Ang):
   XX=            -23.8892   YY=            -22.9464   ZZ=            -29.3151
   XY=             -0.3322   XZ=             -0.4174   YZ=             -0.0918

 1\1\GINC-NODE14\SP\RB2PLYPD3-FC\def2QZVP\C4H6\BOITTIER\26-Aug-2020\0\\
 #p B2PLYPD3/Def2QZVP\\butadiene\\0,1\C,0,-3.849686,0.212513,0.039644\C
 ,0,-2.72055,-0.473724,-0.014391\C,0,-1.367845,0.095961,-0.009338\C,0,-
 0.265305,-0.686724,0.062302\H,0,-4.801833,-0.34107,0.093424\H,0,-3.926
 031,1.289351,0.191649\H,0,-2.727796,-1.582292,0.025905\H,0,-1.290239,1
 .185909,-0.131932\H,0,-0.311238,-1.751321,0.224454\H,0,0.671981,-0.167
 747,-0.034611\\Version=ES64L-G09RevD.01\State=1-A\HF=-155.6956345\MP2=
 -155.9219511\RMSD=7.127e-09\PG=C01 [X(C4H6)]\\@

 Normal termination of Gaussian 09 at Wed Aug 26 09:22:36 2020.
