 Gaussian 09, Revision D.01,
 Gaussian 09:  ES64L-G09RevD.01 24-Apr-2013

 --------------------
 #p B2PLYPD3/Def2QZVP
 --------------------

 ---------
 butadiene
 ---------
 Symbolic Z-matrix:
 Charge =  0 Multiplicity = 1

                         Standard orientation:
 ---------------------------------------------------------------------
 Center     Atomic      Atomic             Coordinates (Angstroms)
 Number     Number       Type             X           Y           Z
 ---------------------------------------------------------------------
      1          6           0        1.840075    0.113075    0.014181
      2          6           0        0.612029   -0.399241   -0.024600
      3          6           0       -0.615321    0.389954   -0.020315
      4          6           0       -1.845234   -0.111089    0.014931
      5          1           0        2.737845   -0.509974    0.002760
      6          1           0        1.981772    1.182479    0.092159
      7          1           0        0.489664   -1.478582   -0.038928
      8          1           0       -0.462008    1.479630   -0.046379
      9          1           0       -2.008289   -1.183914    0.089054
     10          1           0       -2.688279    0.554168   -0.003853
 ---------------------------------------------------------------------

 SCF Done:  E(RB2PLYPD3) =  -155.700955494     A.U. after   11 cycles
 E2(B2PLYPD3) =    -0.2255676568D+00 E(B2PLYPD3) =    -0.15592652315034D+03

 The electronic state is 1-A.
 Alpha  occ. eigenvalues --  -10.62603 -10.62470 -10.61595 -10.61436  -0.92947
 Alpha  occ. eigenvalues --   -0.85097  -0.70029  -0.63806  -0.54530  -0.53942
 Alpha  occ. eigenvalues --   -0.46832  -0.45621  -0.40835  -0.38117  -0.27873
 Alpha virt. eigenvalues --    0.01833   0.06998   0.07383   0.08031   0.09706
 Alpha virt. eigenvalues --    0.11694   0.12360   0.14707   0.15886   0.16016
 Alpha virt. eigenvalues --    0.18799   0.20578   0.21412   0.22709   0.23836

 Mulliken charges:
               1
     1  C   -0.174355
     2  C   -0.028427
     3  C   -0.028104
     4  C   -0.178545
     5  H    0.086609
     6  H    0.063710
     7  H    0.051896
     8  H    0.049061
     9  H    0.068624
    10  H    0.089530
 Sum of Mulliken charges =   0.00000

 Dipole moment (field-independent basis, Debye):
    X=              0.0112    Y=             -0.0026    Z=              0.0633  Tot=              0.0643
 Quadrupole moment (field-independent basis, Debye-Ang):
   XX=            -23.4861   YY=            -23.1353   ZZ=            -29.2562
   XY=              0.0768   XZ=              0.0267   YZ=             -0.0139

 1\1\GINC-NODE31\SP\RB2PLYPD3-FC\def2QZVP\C4H6\BOITTIER\26-Aug-2020\0\\
 #p B2PLYPD3/Def2QZVP\\butadiene\\0,1\C,0,-3.843683,0.223795,0.00233\C,
 0,-2.726177,-0.497407,0.058154\C,0,-1.378083,0.060515,0.033628\C,0,-0.
 256972,-0.652043,0.015136\H,0,-4.837886,-0.2291,0.029866\H,0,-3.79323,
 1.298683,-0.106538\H,0,-2.797624,-1.58045,0.103647\H,0,-1.335124,1.160
 38,0.028155\H,0,-0.287501,-1.738436,-0.027894\H,0,0.690979,-0.147036,0
 .016477\\Version=ES64L-G09RevD.01\State=1-A\HF=-155.7009555\MP2=-155.9
 265232\RMSD=2.287e-09\PG=C01 [X(C4H6)]\\@

 Normal termination of Gaussian 09 at Wed Aug 26 20:49:46 2020.
