 Gaussian 09, Revision D.01,
 Gaussian 09:  ES64L-G09RevD.01 24-Apr-2013

 --------------------
 #p B2PLYPD3/Def2QZVP
 --------------------

 ---------
 butadiene
 ---------
 Symbolic Z-matrix:
 Charge =  0 Multiplicity = 1

                         Standard orientation:
 ---------------------------------------------------------------------
 Center     Atomic      Atomic             Coordinates (Angstroms)
 Number     Number       Type             X           Y           Z
 ---------------------------------------------------------------------
      1          6           0        1.831388    0.104434    0.024133
      2          6           0        0.589196   -0.371192   -0.013232
      3          6           0       -0.601619    0.415775   -0.049467
      4          6           0       -1.823697   -0.128874    0.047352
      5          1           0        2.632953   -0.588651   -0.043647
      6          1           0        2.047312    1.136446    0.122870
      7          1           0        0.559556   -1.471386   -0.079062
      8          1           0       -0.488122    1.524077   -0.067120
      9          1           0       -1.954319   -1.168059    0.043537
     10          1           0       -2.768984    0.446714   -0.029290
 ---------------------------------------------------------------------

 SCF Done:  E(RB2PLYPD3) =  -155.695085514     A.U. after   11 cycles
 E2(B2PLYPD3) =    -0.2259143593D+00 E(B2PLYPD3) =    -0.15592099987367D+03

 The electronic state is 1-A.
 Alpha  occ. eigenvalues --  -10.62923 -10.62248 -10.61580 -10.60758  -0.93336
 Alpha  occ. eigenvalues --   -0.85074  -0.70466  -0.63907  -0.54946  -0.54142
 Alpha  occ. eigenvalues --   -0.46478  -0.45240  -0.41413  -0.38336  -0.27514
 Alpha virt. eigenvalues --    0.01511   0.07034   0.07399   0.07913   0.09750
 Alpha virt. eigenvalues --    0.11672   0.12493   0.14828   0.15821   0.16326
 Alpha virt. eigenvalues --    0.18750   0.20279   0.21906   0.22089   0.24291

 Mulliken charges:
               1
     1  C   -0.184086
     2  C   -0.013417
     3  C   -0.039792
     4  C   -0.164087
     5  H    0.083530
     6  H    0.067324
     7  H    0.047807
     8  H    0.056546
     9  H    0.068227
    10  H    0.077949
 Sum of Mulliken charges =   0.00000

 Dipole moment (field-independent basis, Debye):
    X=             -0.0243    Y=             -0.0277    Z=             -0.0829  Tot=              0.0907
 Quadrupole moment (field-independent basis, Debye-Ang):
   XX=            -23.5144   YY=            -23.0854   ZZ=            -29.1969
   XY=              0.0927   XZ=              0.1034   YZ=              0.1399

 1\1\GINC-NODE23\SP\RB2PLYPD3-FC\def2QZVP\C4H6\BOITTIER\26-Aug-2020\0\\
 #p B2PLYPD3/Def2QZVP\\butadiene\\0,1\C,0,-3.836745,0.2112,-0.007027\C,
 0,-2.698974,-0.476336,0.051519\C,0,-1.386933,0.086782,0.062359\C,0,-0.
 281729,-0.669971,-0.01071\H,0,-4.748667,-0.325101,0.08379\H,0,-3.86580
 4,1.260836,-0.144288\H,0,-2.865481,-1.561053,0.157844\H,0,-1.301198,1.
 197469,0.038911\H,0,-0.338228,-1.714955,0.031701\H,0,0.751215,-0.26950
 1,0.047547\\Version=ES64L-G09RevD.01\State=1-A\HF=-155.6950855\MP2=-15
 5.9209999\RMSD=6.589e-09\PG=C01 [X(C4H6)]\\@

 Normal termination of Gaussian 09 at Wed Aug 26 11:02:56 2020.
