 Gaussian 09, Revision D.01,
 Gaussian 09:  ES64L-G09RevD.01 24-Apr-2013

 --------------------
 #p B2PLYPD3/Def2QZVP
 --------------------

 ---------
 butadiene
 ---------
 Symbolic Z-matrix:
 Charge =  0 Multiplicity = 1

                         Standard orientation:
 ---------------------------------------------------------------------
 Center     Atomic      Atomic             Coordinates (Angstroms)
 Number     Number       Type             X           Y           Z
 ---------------------------------------------------------------------
      1          6           0        1.829791   -0.118862    0.008263
      2          6           0        0.603789    0.410978   -0.007758
      3          6           0       -0.596398   -0.394644   -0.035248
      4          6           0       -1.834818    0.097376    0.018005
      5          1           0        2.703219    0.532336    0.070224
      6          1           0        1.979870   -1.186609    0.012852
      7          1           0        0.468562    1.494661   -0.043339
      8          1           0       -0.408690   -1.432620   -0.008620
      9          1           0       -2.036983    1.164286   -0.000676
     10          1           0       -2.720157   -0.541146    0.069994
 ---------------------------------------------------------------------

 SCF Done:  E(RB2PLYPD3) =  -155.699984588     A.U. after   11 cycles
 E2(B2PLYPD3) =    -0.2256899495D+00 E(B2PLYPD3) =    -0.15592567453723D+03

 The electronic state is 1-A.
 Alpha  occ. eigenvalues --  -10.62451 -10.62110 -10.61656 -10.61575  -0.93215
 Alpha  occ. eigenvalues --   -0.84799  -0.70197  -0.64387  -0.54572  -0.53850
 Alpha  occ. eigenvalues --   -0.46776  -0.45708  -0.41096  -0.38227  -0.27623
 Alpha virt. eigenvalues --    0.01725   0.06996   0.07415   0.08108   0.09583
 Alpha virt. eigenvalues --    0.11730   0.12410   0.14787   0.15722   0.16169
 Alpha virt. eigenvalues --    0.18724   0.20352   0.21770   0.23028   0.23729

 Mulliken charges:
               1
     1  C   -0.180459
     2  C   -0.024841
     3  C   -0.032764
     4  C   -0.174391
     5  H    0.084935
     6  H    0.067243
     7  H    0.053839
     8  H    0.058792
     9  H    0.065249
    10  H    0.082398
 Sum of Mulliken charges =   0.00000

 Dipole moment (field-independent basis, Debye):
    X=              0.0036    Y=             -0.0011    Z=              0.0605  Tot=              0.0606
 Quadrupole moment (field-independent basis, Debye-Ang):
   XX=            -23.5548   YY=            -23.0951   ZZ=            -29.2436
   XY=             -0.2740   XZ=             -0.0070   YZ=             -0.0731

 1\1\GINC-NODE17\SP\RB2PLYPD3-FC\def2QZVP\C4H6\BOITTIER\26-Aug-2020\0\\
 #p B2PLYPD3/Def2QZVP\\butadiene\\0,1\C,0,-3.828831,0.236831,0.02897\C,
 0,-2.720821,-0.509077,0.027188\C,0,-1.393325,0.061952,-0.016542\C,0,-0
 .266003,-0.64749,0.050092\H,0,-4.806708,-0.241572,0.104218\H,0,-3.7805
 55,1.313817,0.008959\H,0,-2.786696,-1.599704,0.016553\H,0,-1.387445,1.
 117081,-0.013908\H,0,-0.262958,-1.733525,0.056088\H,0,0.721537,-0.1811
 39,0.089074\\Version=ES64L-G09RevD.01\State=1-A\HF=-155.6999846\MP2=-1
 55.9256745\RMSD=3.530e-09\PG=C01 [X(C4H6)]\\@

 Normal termination of Gaussian 09 at Wed Aug 26 21:39:37 2020.
