 Gaussian 09, Revision D.01,
 Gaussian 09:  ES64L-G09RevD.01 24-Apr-2013

 --------------------
 #p B2PLYPD3/Def2QZVP
 --------------------

 ---------
 butadiene
 ---------
 Symbolic Z-matrix:
 Charge =  0 Multiplicity = 1

                         Standard orientation:
 ---------------------------------------------------------------------
 Center     Atomic      Atomic             Coordinates (Angstroms)
 Number     Number       Type             X           Y           Z
 ---------------------------------------------------------------------
      1          6           0       -1.813395   -0.138811    0.052720
      2          6           0       -0.597258    0.428317   -0.089343
      3          6           0        0.582968   -0.338635   -0.077253
      4          6           0        1.797514    0.070161    0.016003
      5          1           0       -2.680280    0.452037    0.232934
      6          1           0       -1.918728   -1.184430   -0.064287
      7          1           0       -0.481221    1.431454   -0.017512
      8          1           0        0.483002   -1.415296    0.103559
      9          1           0        2.001326    1.127786    0.167411
     10          1           0        2.776924   -0.537747    0.165131
 ---------------------------------------------------------------------

 SCF Done:  E(RB2PLYPD3) =  -155.679848411     A.U. after   11 cycles
 E2(B2PLYPD3) =    -0.2254958518D+00 E(B2PLYPD3) =    -0.15590534426253D+03

 The electronic state is 1-A.
 Alpha  occ. eigenvalues --  -10.61718 -10.61491 -10.61453 -10.61296  -0.94382
 Alpha  occ. eigenvalues --   -0.85423  -0.70643  -0.64794  -0.55468  -0.53883
 Alpha  occ. eigenvalues --   -0.46930  -0.45816  -0.40754  -0.38356  -0.27714
 Alpha virt. eigenvalues --    0.01583   0.06956   0.07613   0.08001   0.09756
 Alpha virt. eigenvalues --    0.11699   0.12678   0.14537   0.15603   0.16616
 Alpha virt. eigenvalues --    0.18793   0.19479   0.22159   0.22956   0.24073

 Mulliken charges:
               1
     1  C   -0.177205
     2  C   -0.046571
     3  C   -0.006731
     4  C   -0.160247
     5  H    0.084045
     6  H    0.077621
     7  H    0.064942
     8  H    0.047315
     9  H    0.044043
    10  H    0.072787
 Sum of Mulliken charges =   0.00000

 Dipole moment (field-independent basis, Debye):
    X=             -0.0982    Y=              0.0546    Z=              0.4014  Tot=              0.4169
 Quadrupole moment (field-independent basis, Debye-Ang):
   XX=            -23.3906   YY=            -23.5345   ZZ=            -28.8387
   XY=              0.0411   XZ=              0.2772   YZ=              0.1658

 1\1\GINC-NODE08\SP\RB2PLYPD3-FC\def2QZVP\C4H6\BOITTIER\26-Aug-2020\0\\
 #p B2PLYPD3/Def2QZVP\\butadiene\\0,1\C,0,-3.806422,0.250152,-0.040725\
 C,0,-2.71241,-0.523761,0.117399\C,0,-1.412687,0.015223,0.078526\C,0,-0
 .29328,-0.610164,-0.003646\H,0,-4.767508,-0.178712,-0.200281\H,0,-3.71
 9289,1.300652,0.042713\H,0,-2.780963,-1.533035,0.077726\H,0,-1.3169,1.
 085916,-0.13671\H,0,-0.286014,-1.691436,-0.121253\H,0,0.779057,-0.1953
 09,-0.174008\\Version=ES64L-G09RevD.01\State=1-A\HF=-155.6798484\MP2=-
 155.9053443\RMSD=7.521e-09\PG=C01 [X(C4H6)]\\@

 Normal termination of Gaussian 09 at Wed Aug 26 15:41:08 2020.
