 Gaussian 09, Revision D.01,
 Gaussian 09:  ES64L-G09RevD.01 24-Apr-2013

 --------------------
 #p B2PLYPD3/Def2QZVP
 --------------------

 ---------
 butadiene
 ---------
 Symbolic Z-matrix:
 Charge =  0 Multiplicity = 1

                         Standard orientation:
 ---------------------------------------------------------------------
 Center     Atomic      Atomic             Coordinates (Angstroms)
 Number     Number       Type             X           Y           Z
 ---------------------------------------------------------------------
      1          6           0       -1.842374    0.103206    0.022282
      2          6           0       -0.609242   -0.389808   -0.032764
      3          6           0        0.606827    0.406356   -0.022125
      4          6           0        1.847885   -0.108788    0.011311
      5          1           0       -2.710132   -0.561418    0.062639
      6          1           0       -2.056808    1.161563   -0.019330
      7          1           0       -0.467181   -1.461039   -0.029640
      8          1           0        0.445891    1.494100    0.030882
      9          1           0        2.007918   -1.183116    0.060710
     10          1           0        2.761741    0.484115    0.022516
 ---------------------------------------------------------------------

 SCF Done:  E(RB2PLYPD3) =  -155.699918279     A.U. after   11 cycles
 E2(B2PLYPD3) =    -0.2259497893D+00 E(B2PLYPD3) =    -0.15592586806792D+03

 The electronic state is 1-A.
 Alpha  occ. eigenvalues --  -10.62933 -10.62431 -10.61908 -10.61597  -0.92909
 Alpha  occ. eigenvalues --   -0.84791  -0.70238  -0.63986  -0.54650  -0.53644
 Alpha  occ. eigenvalues --   -0.46964  -0.45413  -0.40837  -0.38107  -0.27702
 Alpha virt. eigenvalues --    0.01594   0.06973   0.07396   0.08049   0.09593
 Alpha virt. eigenvalues --    0.11622   0.12454   0.14664   0.15821   0.16169
 Alpha virt. eigenvalues --    0.18865   0.20453   0.21766   0.22730   0.23562

 Mulliken charges:
               1
     1  C   -0.174773
     2  C   -0.026437
     3  C   -0.033453
     4  C   -0.172180
     5  H    0.082786
     6  H    0.067368
     7  H    0.054789
     8  H    0.053462
     9  H    0.062348
    10  H    0.086091
 Sum of Mulliken charges =   0.00000

 Dipole moment (field-independent basis, Debye):
    X=             -0.0018    Y=             -0.0114    Z=              0.0752  Tot=              0.0761
 Quadrupole moment (field-independent basis, Debye-Ang):
   XX=            -23.2627   YY=            -23.2437   ZZ=            -29.3095
   XY=             -0.2818   XZ=              0.0760   YZ=             -0.0600

 1\1\GINC-NODE11\SP\RB2PLYPD3-FC\def2QZVP\C4H6\BOITTIER\26-Aug-2020\0\\
 #p B2PLYPD3/Def2QZVP\\butadiene\\0,1\C,0,-3.845706,0.220225,0.041285\C
 ,0,-2.722552,-0.48968,0.00568\C,0,-1.382289,0.072777,-0.006614\C,0,-0.
 255054,-0.65742,0.046962\H,0,-4.819415,-0.27441,0.101146\H,0,-3.864895
 ,1.29798,-0.035588\H,0,-2.776999,-1.56823,0.044318\H,0,-1.343222,1.172
 816,0.010258\H,0,-0.292232,-1.740757,0.131999\H,0,0.751164,-0.239947,0
 .041109\\Version=ES64L-G09RevD.01\State=1-A\HF=-155.6999183\MP2=-155.9
 258681\RMSD=4.338e-09\PG=C01 [X(C4H6)]\\@

 Normal termination of Gaussian 09 at Wed Aug 26 21:35:55 2020.
