 Gaussian 09, Revision D.01,
 Gaussian 09:  ES64L-G09RevD.01 24-Apr-2013

 --------------------
 #p B2PLYPD3/Def2QZVP
 --------------------

 ---------
 butadiene
 ---------
 Symbolic Z-matrix:
 Charge =  0 Multiplicity = 1

                         Standard orientation:
 ---------------------------------------------------------------------
 Center     Atomic      Atomic             Coordinates (Angstroms)
 Number     Number       Type             X           Y           Z
 ---------------------------------------------------------------------
      1          6           0        1.849761    0.113776    0.022982
      2          6           0        0.621088   -0.414627   -0.067514
      3          6           0       -0.594109    0.371918   -0.031122
      4          6           0       -1.849680   -0.093846    0.027286
      5          1           0        2.764619   -0.442988    0.134642
      6          1           0        1.940364    1.234245    0.064952
      7          1           0        0.466412   -1.481489    0.001615
      8          1           0       -0.552244    1.444456   -0.052603
      9          1           0       -2.044589   -1.162867    0.069196
     10          1           0       -2.736923    0.545314    0.072411
 ---------------------------------------------------------------------

 SCF Done:  E(RB2PLYPD3) =  -155.696453288     A.U. after   11 cycles
 E2(B2PLYPD3) =    -0.2262920568D+00 E(B2PLYPD3) =    -0.15592274534513D+03

 The electronic state is 1-A.
 Alpha  occ. eigenvalues --  -10.62865 -10.62408 -10.62281 -10.61687  -0.92968
 Alpha  occ. eigenvalues --   -0.84800  -0.70152  -0.64103  -0.54852  -0.53642
 Alpha  occ. eigenvalues --   -0.47010  -0.44735  -0.41065  -0.38170  -0.27651
 Alpha virt. eigenvalues --    0.01442   0.06982   0.07452   0.07998   0.09625
 Alpha virt. eigenvalues --    0.11551   0.12537   0.14415   0.15754   0.16434
 Alpha virt. eigenvalues --    0.18894   0.20294   0.21453   0.22500   0.23864

 Mulliken charges:
               1
     1  C   -0.162796
     2  C   -0.041801
     3  C   -0.019284
     4  C   -0.176571
     5  H    0.090112
     6  H    0.059211
     7  H    0.058830
     8  H    0.051449
     9  H    0.056537
    10  H    0.084313
 Sum of Mulliken charges =   0.00000

 Dipole moment (field-independent basis, Debye):
    X=              0.0433    Y=             -0.0095    Z=              0.1991  Tot=              0.2040
 Quadrupole moment (field-independent basis, Debye-Ang):
   XX=            -23.1808   YY=            -23.3574   ZZ=            -29.3096
   XY=             -0.1005   XZ=              0.2535   YZ=             -0.1102

 1\1\GINC-NODE32\SP\RB2PLYPD3-FC\def2QZVP\C4H6\BOITTIER\26-Aug-2020\0\\
 #p B2PLYPD3/Def2QZVP\\butadiene\\0,1\C,0,-3.84878,0.225716,-0.01264\C,
 0,-2.733054,-0.509497,0.095312\C,0,-1.397772,0.048143,0.04297\C,0,-0.2
 44661,-0.634017,0.000565\H,0,-4.847948,-0.162848,-0.113145\H,0,-3.7394
 82,1.343067,-0.08336\H,0,-2.769934,-1.5883,0.053819\H,0,-1.24892,1.111
 327,0.037059\H,0,-0.242293,-1.721375,-0.01353\H,0,0.741732,-0.163508,-
 0.057849\\Version=ES64L-G09RevD.01\State=1-A\HF=-155.6964533\MP2=-155.
 9227453\RMSD=5.040e-09\PG=C01 [X(C4H6)]\\@

 Normal termination of Gaussian 09 at Wed Aug 26 09:56:53 2020.
