 Gaussian 09, Revision D.01,
 Gaussian 09:  ES64L-G09RevD.01 24-Apr-2013

 --------------------
 #p B2PLYPD3/Def2QZVP
 --------------------

 ---------
 butadiene
 ---------
 Symbolic Z-matrix:
 Charge =  0 Multiplicity = 1

                         Standard orientation:
 ---------------------------------------------------------------------
 Center     Atomic      Atomic             Coordinates (Angstroms)
 Number     Number       Type             X           Y           Z
 ---------------------------------------------------------------------
      1          6           0       -1.825733    0.102619   -0.074464
      2          6           0       -0.583994   -0.413786    0.050723
      3          6           0        0.585950    0.462659    0.098211
      4          6           0        1.813766   -0.122944   -0.047252
      5          1           0       -2.675445   -0.619950   -0.011516
      6          1           0       -2.023848    1.233528    0.003463
      7          1           0       -0.462296   -1.506741    0.066965
      8          1           0        0.450130    1.510167   -0.047795
      9          1           0        1.931757   -1.195667   -0.060520
     10          1           0        2.839769    0.407378   -0.113902
 ---------------------------------------------------------------------

 SCF Done:  E(RB2PLYPD3) =  -155.682631988     A.U. after   11 cycles
 E2(B2PLYPD3) =    -0.2283887883D+00 E(B2PLYPD3) =    -0.15591102077576D+03

 The electronic state is 1-A.
 Alpha  occ. eigenvalues --  -10.63230 -10.63073 -10.62912 -10.62477  -0.92663
 Alpha  occ. eigenvalues --   -0.83770  -0.69025  -0.64188  -0.53806  -0.52887
 Alpha  occ. eigenvalues --   -0.46039  -0.44569  -0.41284  -0.37783  -0.27203
 Alpha virt. eigenvalues --    0.01361   0.06927   0.07147   0.07849   0.08528
 Alpha virt. eigenvalues --    0.11625   0.12392   0.14250   0.15462   0.16301
 Alpha virt. eigenvalues --    0.18691   0.19832   0.21607   0.22772   0.24020

 Mulliken charges:
               1
     1  C   -0.175163
     2  C   -0.032196
     3  C   -0.041825
     4  C   -0.162221
     5  H    0.076628
     6  H    0.063515
     7  H    0.061004
     8  H    0.075989
     9  H    0.063559
    10  H    0.070712
 Sum of Mulliken charges =   0.00000

 Dipole moment (field-independent basis, Debye):
    X=              0.1360    Y=             -0.0778    Z=             -0.0285  Tot=              0.1592
 Quadrupole moment (field-independent basis, Debye-Ang):
   XX=            -24.1137   YY=            -22.8872   ZZ=            -29.6336
   XY=             -0.3032   XZ=             -0.5703   YZ=             -0.1360

 1\1\GINC-NODE36\SP\RB2PLYPD3-FC\def2QZVP\C4H6\BOITTIER\26-Aug-2020\0\\
 #p B2PLYPD3/Def2QZVP\\butadiene\\0,1\C,0,-3.827911,0.216161,-0.051116\
 C,0,-2.701124,-0.515636,0.087038\C,0,-1.389782,0.131877,0.104078\C,0,-
 0.291621,-0.673556,-0.026081\H,0,-4.79531,-0.335677,0.036592\H,0,-3.81
 434,1.366051,-0.008154\H,0,-2.782063,-1.611335,0.137203\H,0,-1.33214,1
 .181585,-0.074327\H,0,-0.372732,-1.749591,-0.006035\H,0,0.813733,-0.34
 3113,-0.111914\\Version=ES64L-G09RevD.01\State=1-A\HF=-155.682632\MP2=
 -155.9110208\RMSD=8.825e-09\PG=C01 [X(C4H6)]\\@

 Normal termination of Gaussian 09 at Wed Aug 26 11:31:46 2020.
