 Gaussian 09, Revision D.01,
 Gaussian 09:  ES64L-G09RevD.01 24-Apr-2013

 --------------------
 #p B2PLYPD3/Def2QZVP
 --------------------

 ---------
 butadiene
 ---------
 Symbolic Z-matrix:
 Charge =  0 Multiplicity = 1

                         Standard orientation:
 ---------------------------------------------------------------------
 Center     Atomic      Atomic             Coordinates (Angstroms)
 Number     Number       Type             X           Y           Z
 ---------------------------------------------------------------------
      1          6           0        1.828077   -0.097971    0.011305
      2          6           0        0.596912    0.381638   -0.019450
      3          6           0       -0.599037   -0.419282   -0.027576
      4          6           0       -1.821440    0.118581    0.011877
      5          1           0        2.652556    0.559160    0.076184
      6          1           0        2.015038   -1.170749    0.036846
      7          1           0        0.491809    1.489502   -0.024467
      8          1           0       -0.470863   -1.497023   -0.056600
      9          1           0       -1.975377    1.192008   -0.013289
     10          1           0       -2.740236   -0.470700    0.124391
 ---------------------------------------------------------------------

 SCF Done:  E(RB2PLYPD3) =  -155.699263324     A.U. after   11 cycles
 E2(B2PLYPD3) =    -0.2256122067D+00 E(B2PLYPD3) =    -0.15592487553074D+03

 The electronic state is 1-A.
 Alpha  occ. eigenvalues --  -10.62560 -10.62341 -10.61753 -10.60944  -0.93299
 Alpha  occ. eigenvalues --   -0.85051  -0.70160  -0.63806  -0.54830  -0.53960
 Alpha  occ. eigenvalues --   -0.46784  -0.45098  -0.41236  -0.38337  -0.27673
 Alpha virt. eigenvalues --    0.01827   0.07036   0.07325   0.08014   0.09695
 Alpha virt. eigenvalues --    0.11673   0.12472   0.14703   0.15882   0.16192
 Alpha virt. eigenvalues --    0.18720   0.20514   0.21704   0.22621   0.23951

 Mulliken charges:
               1
     1  C   -0.179441
     2  C   -0.016957
     3  C   -0.036050
     4  C   -0.169654
     5  H    0.087687
     6  H    0.062456
     7  H    0.046551
     8  H    0.058367
     9  H    0.065187
    10  H    0.081853
 Sum of Mulliken charges =   0.00000

 Dipole moment (field-independent basis, Debye):
    X=             -0.0273    Y=              0.0071    Z=              0.0987  Tot=              0.1026
 Quadrupole moment (field-independent basis, Debye-Ang):
   XX=            -23.5451   YY=            -23.0924   ZZ=            -29.2017
   XY=             -0.1237   XZ=             -0.0385   YZ=             -0.0391

 1\1\GINC-NODE31\SP\RB2PLYPD3-FC\def2QZVP\C4H6\BOITTIER\26-Aug-2020\0\\
 #p B2PLYPD3/Def2QZVP\\butadiene\\0,1\C,0,-3.831898,0.211947,0.032075\C
 ,0,-2.708379,-0.483927,0.017817\C,0,-1.386923,0.085946,-0.011011\C,0,-
 0.282373,-0.66357,0.046579\H,0,-4.761772,-0.2824,0.114243\H,0,-3.82089
 3,1.301122,0.02612\H,0,-2.806186,-1.592133,0.045133\H,0,-1.317382,1.16
 775,-0.071529\H,0,-0.325969,-1.747376,0.052859\H,0,0.728499,-0.247918,
 0.143894\\Version=ES64L-G09RevD.01\State=1-A\HF=-155.6992633\MP2=-155.
 9248755\RMSD=5.586e-09\PG=C01 [X(C4H6)]\\@

 Normal termination of Gaussian 09 at Wed Aug 26 20:31:15 2020.
