 Gaussian 09, Revision D.01,
 Gaussian 09:  ES64L-G09RevD.01 24-Apr-2013

 --------------------
 #p B2PLYPD3/Def2QZVP
 --------------------

 ---------
 butadiene
 ---------
 Symbolic Z-matrix:
 Charge =  0 Multiplicity = 1

                         Standard orientation:
 ---------------------------------------------------------------------
 Center     Atomic      Atomic             Coordinates (Angstroms)
 Number     Number       Type             X           Y           Z
 ---------------------------------------------------------------------
      1          6           0       -1.828199   -0.121635    0.025057
      2          6           0       -0.602227    0.399366   -0.021781
      3          6           0        0.600608   -0.385317   -0.043564
      4          6           0        1.838767    0.114042    0.039742
      5          1           0       -2.749462    0.494551    0.089585
      6          1           0       -2.000439   -1.156196   -0.039532
      7          1           0       -0.542357    1.491407   -0.031194
      8          1           0        0.522188   -1.452958   -0.028239
      9          1           0        2.058355    1.167158   -0.076909
     10          1           0        2.658017   -0.582692    0.089558
 ---------------------------------------------------------------------

 SCF Done:  E(RB2PLYPD3) =  -155.697513373     A.U. after   11 cycles
 E2(B2PLYPD3) =    -0.2256994801D+00 E(B2PLYPD3) =    -0.15592321285294D+03

 The electronic state is 1-A.
 Alpha  occ. eigenvalues --  -10.62479 -10.62277 -10.61390 -10.61377  -0.93239
 Alpha  occ. eigenvalues --   -0.85038  -0.70248  -0.64278  -0.54851  -0.54058
 Alpha  occ. eigenvalues --   -0.46188  -0.45634  -0.41520  -0.38212  -0.27543
 Alpha virt. eigenvalues --    0.01601   0.06986   0.07541   0.07925   0.09663
 Alpha virt. eigenvalues --    0.11678   0.12412   0.14847   0.15903   0.16311
 Alpha virt. eigenvalues --    0.18800   0.20256   0.21591   0.22846   0.24029

 Mulliken charges:
               1
     1  C   -0.172658
     2  C   -0.025942
     3  C   -0.037129
     4  C   -0.174689
     5  H    0.078291
     6  H    0.066276
     7  H    0.056006
     8  H    0.057916
     9  H    0.072063
    10  H    0.079865
 Sum of Mulliken charges =   0.00000

 Dipole moment (field-independent basis, Debye):
    X=             -0.0282    Y=             -0.0377    Z=             -0.0591  Tot=              0.0755
 Quadrupole moment (field-independent basis, Debye-Ang):
   XX=            -23.5339   YY=            -23.0530   ZZ=            -29.1990
   XY=              0.0628   XZ=             -0.0769   YZ=             -0.0754

 1\1\GINC-NODE28\SP\RB2PLYPD3-FC\def2QZVP\C4H6\BOITTIER\26-Aug-2020\0\\
 #p B2PLYPD3/Def2QZVP\\butadiene\\0,1\C,0,-3.830872,0.228485,-0.009449\
 C,0,-2.716482,-0.499564,0.059277\C,0,-1.393538,0.05974,0.05589\C,0,-0.
 26382,-0.653856,-0.006191\H,0,-4.847004,-0.216548,-0.054121\H,0,-3.816
 768,1.278835,0.017401\H,0,-2.85108,-1.583871,0.108161\H,0,-1.281545,1.
 123125,0.001929\H,0,-0.233917,-1.724342,0.148871\H,0,0.665752,-0.11562
 4,-0.078952\\Version=ES64L-G09RevD.01\State=1-A\HF=-155.6975134\MP2=-1
 55.9232129\RMSD=4.771e-09\PG=C01 [X(C4H6)]\\@

 Normal termination of Gaussian 09 at Wed Aug 26 08:54:28 2020.
