 Gaussian 09, Revision D.01,
 Gaussian 09:  ES64L-G09RevD.01 24-Apr-2013

 --------------------
 #p B2PLYPD3/Def2QZVP
 --------------------

 ---------
 butadiene
 ---------
 Symbolic Z-matrix:
 Charge =  0 Multiplicity = 1

                         Standard orientation:
 ---------------------------------------------------------------------
 Center     Atomic      Atomic             Coordinates (Angstroms)
 Number     Number       Type             X           Y           Z
 ---------------------------------------------------------------------
      1          6           0        1.833613   -0.121142   -0.029519
      2          6           0        0.615953    0.408300    0.037365
      3          6           0       -0.600064   -0.378328    0.020380
      4          6           0       -1.835288    0.103918   -0.020172
      5          1           0        2.728633    0.489206    0.001731
      6          1           0        1.970415   -1.196630   -0.029264
      7          1           0        0.493934    1.495047   -0.005270
      8          1           0       -0.515187   -1.455820    0.033907
      9          1           0       -2.060645    1.152335   -0.035312
     10          1           0       -2.702436   -0.560630   -0.014116
 ---------------------------------------------------------------------

 SCF Done:  E(RB2PLYPD3) =  -155.700688855     A.U. after   11 cycles
 E2(B2PLYPD3) =    -0.2254048959D+00 E(B2PLYPD3) =    -0.15592609375088D+03

 The electronic state is 1-A.
 Alpha  occ. eigenvalues --  -10.62569 -10.62238 -10.61539 -10.61292  -0.93149
 Alpha  occ. eigenvalues --   -0.85138  -0.70117  -0.64053  -0.54623  -0.54135
 Alpha  occ. eigenvalues --   -0.46703  -0.45404  -0.41007  -0.38287  -0.27830
 Alpha virt. eigenvalues --    0.01820   0.06990   0.07467   0.07988   0.09754
 Alpha virt. eigenvalues --    0.11667   0.12447   0.14748   0.15753   0.16268
 Alpha virt. eigenvalues --    0.18846   0.20312   0.21764   0.22536   0.23986

 Mulliken charges:
               1
     1  C   -0.169419
     2  C   -0.036135
     3  C   -0.023792
     4  C   -0.175553
     5  H    0.085313
     6  H    0.065344
     7  H    0.056076
     8  H    0.052937
     9  H    0.064414
    10  H    0.080814
 Sum of Mulliken charges =   0.00000

 Dipole moment (field-independent basis, Debye):
    X=              0.0211    Y=              0.0045    Z=             -0.0024  Tot=              0.0217
 Quadrupole moment (field-independent basis, Debye-Ang):
   XX=            -23.3894   YY=            -23.1375   ZZ=            -29.2132
   XY=             -0.1075   XZ=              0.0312   YZ=             -0.0535

 1\1\GINC-NODE36\SP\RB2PLYPD3-FC\def2QZVP\C4H6\BOITTIER\26-Aug-2020\0\\
 #p B2PLYPD3/Def2QZVP\\butadiene\\0,1\C,0,-3.833079,0.230526,-0.011131\
 C,0,-2.728789,-0.505156,0.071279\C,0,-1.392309,0.051878,0.035164\C,0,-
 0.262705,-0.643314,0.008955\H,0,-4.822279,-0.209833,0.035019\H,0,-3.77
 64,1.312829,-0.039398\H,0,-2.802162,-1.597013,0.057458\H,0,-1.284131,1
 .127261,0.02018\H,0,-0.227477,-1.715129,0.021745\H,0,0.708835,-0.14370
 3,-0.001367\\Version=ES64L-G09RevD.01\State=1-A\HF=-155.7006889\MP2=-1
 55.9260938\RMSD=4.412e-09\PG=C01 [X(C4H6)]\\@

 Normal termination of Gaussian 09 at Wed Aug 26 19:49:07 2020.
