 Gaussian 09, Revision D.01,
 Gaussian 09:  ES64L-G09RevD.01 24-Apr-2013

 --------------------
 #p B2PLYPD3/Def2QZVP
 --------------------

 ---------
 butadiene
 ---------
 Symbolic Z-matrix:
 Charge =  0 Multiplicity = 1

                         Standard orientation:
 ---------------------------------------------------------------------
 Center     Atomic      Atomic             Coordinates (Angstroms)
 Number     Number       Type             X           Y           Z
 ---------------------------------------------------------------------
      1          6           0       -1.838613    0.096650    0.010355
      2          6           0       -0.607550   -0.400076   -0.032129
      3          6           0        0.602679    0.430415   -0.007979
      4          6           0        1.834551   -0.121281    0.016954
      5          1           0       -2.700900   -0.546942    0.017359
      6          1           0       -2.018202    1.192119    0.060132
      7          1           0       -0.418278   -1.463016    0.008713
      8          1           0        0.488833    1.498739   -0.029591
      9          1           0        1.967093   -1.206388    0.038401
     10          1           0        2.735052    0.491244   -0.018223
 ---------------------------------------------------------------------

 SCF Done:  E(RB2PLYPD3) =  -155.699500882     A.U. after   11 cycles
 E2(B2PLYPD3) =    -0.2260417563D+00 E(B2PLYPD3) =    -0.15592554263877D+03

 The electronic state is 1-A.
 Alpha  occ. eigenvalues --  -10.62718 -10.62488 -10.61903 -10.61633  -0.92772
 Alpha  occ. eigenvalues --   -0.84660  -0.69753  -0.64217  -0.54466  -0.53579
 Alpha  occ. eigenvalues --   -0.46681  -0.45516  -0.41155  -0.37916  -0.27647
 Alpha virt. eigenvalues --    0.01820   0.07023   0.07311   0.08123   0.09318
 Alpha virt. eigenvalues --    0.11688   0.12380   0.14589   0.15776   0.16159
 Alpha virt. eigenvalues --    0.18751   0.20440   0.21478   0.23069   0.23764

 Mulliken charges:
               1
     1  C   -0.173712
     2  C   -0.031393
     3  C   -0.035280
     4  C   -0.176636
     5  H    0.086534
     6  H    0.064148
     7  H    0.057455
     8  H    0.060117
     9  H    0.064390
    10  H    0.084379
 Sum of Mulliken charges =   0.00000

 Dipole moment (field-independent basis, Debye):
    X=              0.0101    Y=              0.0010    Z=              0.0415  Tot=              0.0427
 Quadrupole moment (field-independent basis, Debye-Ang):
   XX=            -23.6214   YY=            -23.0098   ZZ=            -29.3606
   XY=             -0.1747   XZ=             -0.1973   YZ=             -0.0576

 1\1\GINC-NODE10\SP\RB2PLYPD3-FC\def2QZVP\C4H6\BOITTIER\26-Aug-2020\0\\
 #p B2PLYPD3/Def2QZVP\\butadiene\\0,1\C,0,-3.841687,0.213702,0.032511\C
 ,0,-2.72148,-0.499427,0.007179\C,0,-1.380508,0.097846,0.003961\C,0,-0.
 269098,-0.66723,0.047851\H,0,-4.806404,-0.262031,0.060739\H,0,-3.81919
 2,1.324606,0.045481\H,0,-2.728033,-1.577126,0.083691\H,0,-1.298696,1.1
 67776,-0.053482\H,0,-0.335571,-1.757055,0.105699\H,0,0.727399,-0.22989
 9,-0.007479\\Version=ES64L-G09RevD.01\State=1-A\HF=-155.6995009\MP2=-1
 55.9255426\RMSD=5.592e-09\PG=C01 [X(C4H6)]\\@

 Normal termination of Gaussian 09 at Wed Aug 26 08:49:44 2020.
