 Gaussian 09, Revision D.01,
 Gaussian 09:  ES64L-G09RevD.01 24-Apr-2013

 --------------------
 #p B2PLYPD3/Def2QZVP
 --------------------

 ---------
 butadiene
 ---------
 Symbolic Z-matrix:
 Charge =  0 Multiplicity = 1

                         Standard orientation:
 ---------------------------------------------------------------------
 Center     Atomic      Atomic             Coordinates (Angstroms)
 Number     Number       Type             X           Y           Z
 ---------------------------------------------------------------------
      1          6           0        1.825505   -0.119321    0.006383
      2          6           0        0.604643    0.405090   -0.003826
      3          6           0       -0.604930   -0.391038   -0.010227
      4          6           0       -1.840299    0.103451   -0.003980
      5          1           0        2.712449    0.510631   -0.032719
      6          1           0        1.969085   -1.174471    0.067358
      7          1           0        0.511086    1.472710   -0.011353
      8          1           0       -0.423659   -1.442667   -0.039132
      9          1           0       -1.972749    1.184774    0.054925
     10          1           0       -2.705723   -0.540061    0.030824
 ---------------------------------------------------------------------

 SCF Done:  E(RB2PLYPD3) =  -155.700792812     A.U. after   11 cycles
 E2(B2PLYPD3) =    -0.2252800326D+00 E(B2PLYPD3) =    -0.15592607284440D+03

 The electronic state is 1-A.
 Alpha  occ. eigenvalues --  -10.62170 -10.62090 -10.61485 -10.61274  -0.93289
 Alpha  occ. eigenvalues --   -0.85086  -0.70145  -0.64465  -0.54627  -0.54119
 Alpha  occ. eigenvalues --   -0.46783  -0.45765  -0.41235  -0.38261  -0.27743
 Alpha virt. eigenvalues --    0.01841   0.07015   0.07484   0.08107   0.09693
 Alpha virt. eigenvalues --    0.11761   0.12462   0.14750   0.15827   0.16140
 Alpha virt. eigenvalues --    0.18715   0.20433   0.21574   0.23006   0.23973

 Mulliken charges:
               1
     1  C   -0.178783
     2  C   -0.023778
     3  C   -0.032287
     4  C   -0.176962
     5  H    0.083910
     6  H    0.065275
     7  H    0.053721
     8  H    0.054585
     9  H    0.065476
    10  H    0.088844
 Sum of Mulliken charges =   0.00000

 Dipole moment (field-independent basis, Debye):
    X=              0.0417    Y=             -0.0126    Z=              0.0606  Tot=              0.0746
 Quadrupole moment (field-independent basis, Debye-Ang):
   XX=            -23.5609   YY=            -23.0985   ZZ=            -29.1752
   XY=             -0.0399   XZ=             -0.1665   YZ=             -0.0260

 1\1\GINC-NODE04\SP\RB2PLYPD3-FC\def2QZVP\C4H6\BOITTIER\26-Aug-2020\0\\
 #p B2PLYPD3/Def2QZVP\\butadiene\\0,1\C,0,-3.828285,0.230054,0.023264\C
 ,0,-2.721386,-0.505007,0.031852\C,0,-1.388588,0.060612,0.006294\C,0,-0
 .262012,-0.647155,0.030516\H,0,-4.813967,-0.231365,-0.000446\H,0,-3.78
 0037,1.295152,0.053477\H,0,-2.820969,-1.571852,0.05527\H,0,-1.378243,1
 .126423,-0.05335\H,0,-0.32565,-1.732541,0.120851\H,0,0.704924,-0.16866
 4,0.049475\\Version=ES64L-G09RevD.01\State=1-A\HF=-155.7007928\MP2=-15
 5.9260728\RMSD=2.570e-09\PG=C01 [X(C4H6)]\\@

 Normal termination of Gaussian 09 at Wed Aug 26 18:47:49 2020.
