 Gaussian 09, Revision D.01,
 Gaussian 09:  ES64L-G09RevD.01 24-Apr-2013

 --------------------
 #p B2PLYPD3/Def2QZVP
 --------------------

 ---------
 butadiene
 ---------
 Symbolic Z-matrix:
 Charge =  0 Multiplicity = 1

                         Standard orientation:
 ---------------------------------------------------------------------
 Center     Atomic      Atomic             Coordinates (Angstroms)
 Number     Number       Type             X           Y           Z
 ---------------------------------------------------------------------
      1          6           0       -1.854303    0.090153    0.037185
      2          6           0       -0.607125   -0.352593   -0.020326
      3          6           0        0.612281    0.409945   -0.043138
      4          6           0        1.833678   -0.138760    0.015048
      5          1           0       -2.687371   -0.629816   -0.111403
      6          1           0       -1.992866    1.162745    0.152616
      7          1           0       -0.446313   -1.407213   -0.071341
      8          1           0        0.514180    1.522261   -0.069409
      9          1           0        2.005381   -1.215690    0.157624
     10          1           0        2.699802    0.515242    0.009299
 ---------------------------------------------------------------------

 SCF Done:  E(RB2PLYPD3) =  -155.695524211     A.U. after   11 cycles
 E2(B2PLYPD3) =    -0.2261370739D+00 E(B2PLYPD3) =    -0.15592166128492D+03

 The electronic state is 1-A.
 Alpha  occ. eigenvalues --  -10.62879 -10.62009 -10.61844 -10.61643  -0.93206
 Alpha  occ. eigenvalues --   -0.85012  -0.70107  -0.63625  -0.54348  -0.53764
 Alpha  occ. eigenvalues --   -0.46657  -0.45529  -0.40859  -0.38185  -0.27712
 Alpha virt. eigenvalues --    0.01484   0.06945   0.07366   0.07901   0.09892
 Alpha virt. eigenvalues --    0.11762   0.12126   0.14822   0.15771   0.15898
 Alpha virt. eigenvalues --    0.18819   0.20397   0.20973   0.22403   0.24111

 Mulliken charges:
               1
     1  C   -0.185594
     2  C   -0.013841
     3  C   -0.035644
     4  C   -0.174760
     5  H    0.092055
     6  H    0.066591
     7  H    0.049768
     8  H    0.046024
     9  H    0.069976
    10  H    0.085424
 Sum of Mulliken charges =   0.00000

 Dipole moment (field-independent basis, Debye):
    X=              0.1019    Y=             -0.0239    Z=              0.0310  Tot=              0.1092
 Quadrupole moment (field-independent basis, Debye-Ang):
   XX=            -23.7900   YY=            -23.1180   ZZ=            -29.2414
   XY=              0.0250   XZ=              0.4159   YZ=              0.0939

 1\1\GINC-NODE15\SP\RB2PLYPD3-FC\def2QZVP\C4H6\BOITTIER\26-Aug-2020\0\\
 #p B2PLYPD3/Def2QZVP\\butadiene\\0,1\C,0,-3.859533,0.203168,0.051542\C
 ,0,-2.710818,-0.455387,0.012233\C,0,-1.3754,0.077622,-0.026416\C,0,-0.
 270817,-0.677292,0.052786\H,0,-4.807275,-0.361428,-0.080563\H,0,-3.805
 382,1.286169,0.136125\H,0,-2.739852,-1.522823,-0.008364\H,0,-1.274444,
 1.188481,-0.084409\H,0,-0.293001,-1.763092,0.22638\H,0,0.69767,-0.1878
 54,0.032624\\Version=ES64L-G09RevD.01\State=1-A\HF=-155.6955242\MP2=-1
 55.9216613\RMSD=6.617e-09\PG=C01 [X(C4H6)]\\@

 Normal termination of Gaussian 09 at Wed Aug 26 08:58:40 2020.
