 Gaussian 09, Revision D.01,
 Gaussian 09:  ES64L-G09RevD.01 24-Apr-2013

 --------------------
 #p B2PLYPD3/Def2QZVP
 --------------------

 ---------
 butadiene
 ---------
 Symbolic Z-matrix:
 Charge =  0 Multiplicity = 1

                         Standard orientation:
 ---------------------------------------------------------------------
 Center     Atomic      Atomic             Coordinates (Angstroms)
 Number     Number       Type             X           Y           Z
 ---------------------------------------------------------------------
      1          6           0       -1.832765   -0.116965   -0.031909
      2          6           0       -0.607695    0.410088    0.019648
      3          6           0        0.598034   -0.389441    0.020464
      4          6           0        1.828074    0.103555   -0.015031
      5          1           0       -2.727951    0.497587    0.015284
      6          1           0       -1.931265   -1.193112   -0.006546
      7          1           0       -0.439787    1.499228    0.031584
      8          1           0        0.478861   -1.463573    0.068790
      9          1           0        2.022740    1.165750   -0.007638
     10          1           0        2.683511   -0.549304   -0.060503
 ---------------------------------------------------------------------

 SCF Done:  E(RB2PLYPD3) =  -155.700626600     A.U. after   11 cycles
 E2(B2PLYPD3) =    -0.2255740838D+00 E(B2PLYPD3) =    -0.15592620068383D+03

 The electronic state is 1-A.
 Alpha  occ. eigenvalues --  -10.62621 -10.62179 -10.61572 -10.61224  -0.93220
 Alpha  occ. eigenvalues --   -0.85036  -0.70112  -0.63996  -0.54615  -0.53987
 Alpha  occ. eigenvalues --   -0.46717  -0.45606  -0.41118  -0.38245  -0.27740
 Alpha virt. eigenvalues --    0.01822   0.07030   0.07357   0.08067   0.09675
 Alpha virt. eigenvalues --    0.11735   0.12460   0.14744   0.15766   0.16170
 Alpha virt. eigenvalues --    0.18717   0.20296   0.21724   0.22753   0.24075

 Mulliken charges:
               1
     1  C   -0.173672
     2  C   -0.031138
     3  C   -0.021672
     4  C   -0.178876
     5  H    0.088062
     6  H    0.065337
     7  H    0.051298
     8  H    0.051391
     9  H    0.064605
    10  H    0.084667
 Sum of Mulliken charges =   0.00000

 Dipole moment (field-independent basis, Debye):
    X=              0.0185    Y=             -0.0022    Z=              0.0675  Tot=              0.0700
 Quadrupole moment (field-independent basis, Debye-Ang):
   XX=            -23.5546   YY=            -23.1097   ZZ=            -29.2260
   XY=              0.1071   XZ=             -0.2194   YZ=              0.0044

 1\1\GINC-NODE30\SP\RB2PLYPD3-FC\def2QZVP\C4H6\BOITTIER\26-Aug-2020\0\\
 #p B2PLYPD3/Def2QZVP\\butadiene\\0,1\C,0,-3.831729,0.232323,0.045697\C
 ,0,-2.72213,-0.508642,0.014048\C,0,-1.391803,0.059559,-0.006123\C,0,-0
 .271001,-0.646238,0.048253\H,0,-4.823295,-0.211547,0.013514\H,0,-3.734
 242,1.307325,-0.01178\H,0,-2.753768,-1.610063,0.034871\H,0,-1.315056,1
 .135634,-0.086567\H,0,-0.271445,-1.725867,0.072915\H,0,0.688387,-0.157
 58,0.077444\\Version=ES64L-G09RevD.01\State=1-A\HF=-155.7006266\MP2=-1
 55.9262007\RMSD=4.792e-09\PG=C01 [X(C4H6)]\\@

 Normal termination of Gaussian 09 at Wed Aug 26 19:14:50 2020.
