 Gaussian 09, Revision D.01,
 Gaussian 09:  ES64L-G09RevD.01 24-Apr-2013

 --------------------
 #p B2PLYPD3/Def2QZVP
 --------------------

 ---------
 butadiene
 ---------
 Symbolic Z-matrix:
 Charge =  0 Multiplicity = 1

                         Standard orientation:
 ---------------------------------------------------------------------
 Center     Atomic      Atomic             Coordinates (Angstroms)
 Number     Number       Type             X           Y           Z
 ---------------------------------------------------------------------
      1          6           0        1.835426   -0.113980    0.030170
      2          6           0        0.624792    0.430269   -0.030911
      3          6           0       -0.594768   -0.396121   -0.019379
      4          6           0       -1.846331    0.097959    0.013064
      5          1           0        2.741555    0.460903    0.038776
      6          1           0        1.897375   -1.232548    0.099827
      7          1           0        0.433749    1.493676   -0.183404
      8          1           0       -0.411744   -1.430040   -0.114335
      9          1           0       -2.054337    1.173767    0.216244
     10          1           0       -2.721315   -0.574526   -0.014773
 ---------------------------------------------------------------------

 SCF Done:  E(RB2PLYPD3) =  -155.695220964     A.U. after   11 cycles
 E2(B2PLYPD3) =    -0.2263009164D+00 E(B2PLYPD3) =    -0.15592152188010D+03

 The electronic state is 1-A.
 Alpha  occ. eigenvalues --  -10.62668 -10.62484 -10.62192 -10.61912  -0.92797
 Alpha  occ. eigenvalues --   -0.84607  -0.69696  -0.64133  -0.54644  -0.53041
 Alpha  occ. eigenvalues --   -0.47152  -0.45309  -0.40804  -0.37721  -0.27800
 Alpha virt. eigenvalues --    0.01778   0.07050   0.07286   0.08084   0.09199
 Alpha virt. eigenvalues --    0.11690   0.12363   0.14517   0.15565   0.16022
 Alpha virt. eigenvalues --    0.18688   0.20212   0.21328   0.22726   0.23864

 Mulliken charges:
               1
     1  C   -0.171715
     2  C   -0.034293
     3  C   -0.035221
     4  C   -0.180202
     5  H    0.091403
     6  H    0.059107
     7  H    0.060263
     8  H    0.061240
     9  H    0.067480
    10  H    0.081938
 Sum of Mulliken charges =   0.00000

 Dipole moment (field-independent basis, Debye):
    X=              0.0648    Y=              0.0003    Z=              0.0093  Tot=              0.0655
 Quadrupole moment (field-independent basis, Debye-Ang):
   XX=            -23.6079   YY=            -23.2208   ZZ=            -29.2945
   XY=             -0.1519   XZ=             -0.1366   YZ=              0.1022

 1\1\GINC-NODE13\SP\RB2PLYPD3-FC\def2QZVP\C4H6\BOITTIER\26-Aug-2020\0\\
 #p B2PLYPD3/Def2QZVP\\butadiene\\0,1\C,0,-3.833511,0.233064,0.044967\C
 ,0,-2.742134,-0.523796,0.004569\C,0,-1.392634,0.067087,-0.00477\C,0,-0
 .25169,-0.645058,0.046932\H,0,-4.829035,-0.166986,0.067887\H,0,-3.6909
 16,1.345849,0.080471\H,0,-2.747935,-1.608353,-0.114961\H,0,-1.384837,1
 .113673,-0.131653\H,0,-0.242305,-1.734063,0.283344\H,0,0.730913,-0.144
 002,0.001725\\Version=ES64L-G09RevD.01\State=1-A\HF=-155.695221\MP2=-1
 55.9215219\RMSD=5.165e-09\PG=C01 [X(C4H6)]\\@

 Normal termination of Gaussian 09 at Wed Aug 26 09:37:23 2020.
