 Gaussian 09, Revision D.01,
 Gaussian 09:  ES64L-G09RevD.01 24-Apr-2013

 --------------------
 #p B2PLYPD3/Def2QZVP
 --------------------

 ---------
 butadiene
 ---------
 Symbolic Z-matrix:
 Charge =  0 Multiplicity = 1

                         Standard orientation:
 ---------------------------------------------------------------------
 Center     Atomic      Atomic             Coordinates (Angstroms)
 Number     Number       Type             X           Y           Z
 ---------------------------------------------------------------------
      1          6           0       -1.822786   -0.133485   -0.015810
      2          6           0       -0.604944    0.443907    0.012933
      3          6           0        0.594652   -0.398253    0.000027
      4          6           0        1.846323    0.086426   -0.003258
      5          1           0       -2.728836    0.485529   -0.040485
      6          1           0       -1.954527   -1.221074   -0.059025
      7          1           0       -0.479984    1.547850    0.181239
      8          1           0        0.394243   -1.436057    0.100936
      9          1           0        1.995306    1.203197   -0.178517
     10          1           0        2.694328   -0.571010    0.032506
 ---------------------------------------------------------------------

 SCF Done:  E(RB2PLYPD3) =  -155.693303240     A.U. after   11 cycles
 E2(B2PLYPD3) =    -0.2269083697D+00 E(B2PLYPD3) =    -0.15592021160939D+03

 The electronic state is 1-A.
 Alpha  occ. eigenvalues --  -10.63251 -10.62424 -10.62105 -10.62002  -0.92707
 Alpha  occ. eigenvalues --   -0.84392  -0.69552  -0.63804  -0.54362  -0.53162
 Alpha  occ. eigenvalues --   -0.46526  -0.45206  -0.41234  -0.37681  -0.27531
 Alpha virt. eigenvalues --    0.01684   0.07075   0.07177   0.07948   0.09025
 Alpha virt. eigenvalues --    0.11712   0.12284   0.14499   0.15561   0.16013
 Alpha virt. eigenvalues --    0.18637   0.20056   0.21356   0.23123   0.23818

 Mulliken charges:
               1
     1  C   -0.177733
     2  C   -0.034856
     3  C   -0.032158
     4  C   -0.181572
     5  H    0.083078
     6  H    0.067739
     7  H    0.061670
     8  H    0.060308
     9  H    0.064443
    10  H    0.089079
 Sum of Mulliken charges =   0.00000

 Dipole moment (field-independent basis, Debye):
    X=             -0.0844    Y=             -0.0591    Z=              0.0409  Tot=              0.1108
 Quadrupole moment (field-independent basis, Debye-Ang):
   XX=            -23.8823   YY=            -23.0067   ZZ=            -29.4034
   XY=              0.1226   XZ=             -0.0488   YZ=             -0.0897

 1\1\GINC-NODE28\SP\RB2PLYPD3-FC\def2QZVP\C4H6\BOITTIER\26-Aug-2020\0\\
 #p B2PLYPD3/Def2QZVP\\butadiene\\0,1\C,0,-3.821213,0.249215,0.029888\C
 ,0,-2.729396,-0.541493,0.02193\C,0,-1.396132,0.067405,0.012915\C,0,-0.
 254035,-0.637409,0.034281\H,0,-4.825011,-0.192878,0.070591\H,0,-3.7519
 78,1.34337,0.040047\H,0,-2.808625,-1.65424,-0.112791\H,0,-1.403895,1.1
 20847,-0.119683\H,0,-0.311054,-1.756828,0.243421\H,0,0.699682,-0.14728
 9,-0.018824\\Version=ES64L-G09RevD.01\State=1-A\HF=-155.6933032\MP2=-1
 55.9202116\RMSD=6.691e-09\PG=C01 [X(C4H6)]\\@

 Normal termination of Gaussian 09 at Wed Aug 26 09:36:40 2020.
