 Gaussian 09, Revision D.01,
 Gaussian 09:  ES64L-G09RevD.01 24-Apr-2013

 --------------------
 #p B2PLYPD3/Def2QZVP
 --------------------

 ---------
 butadiene
 ---------
 Symbolic Z-matrix:
 Charge =  0 Multiplicity = 1

                         Standard orientation:
 ---------------------------------------------------------------------
 Center     Atomic      Atomic             Coordinates (Angstroms)
 Number     Number       Type             X           Y           Z
 ---------------------------------------------------------------------
      1          6           0       -1.819073    0.097135    0.026398
      2          6           0       -0.555358   -0.437331   -0.064531
      3          6           0        0.582285    0.406034   -0.102268
      4          6           0        1.807754   -0.101064    0.065704
      5          1           0       -2.774317   -0.416500    0.199749
      6          1           0       -1.991453    1.169626    0.215329
      7          1           0       -0.448887   -1.540537   -0.033335
      8          1           0        0.355062    1.539095   -0.213166
      9          1           0        2.094437   -1.143355   -0.025043
     10          1           0        2.671513    0.603024    0.304654
 ---------------------------------------------------------------------

 SCF Done:  E(RB2PLYPD3) =  -155.679420912     A.U. after   11 cycles
 E2(B2PLYPD3) =    -0.2285648075D+00 E(B2PLYPD3) =    -0.15590798571944D+03

 The electronic state is 1-A.
 Alpha  occ. eigenvalues --  -10.63464 -10.63381 -10.62369 -10.62276  -0.93307
 Alpha  occ. eigenvalues --   -0.83827  -0.70098  -0.63512  -0.54428  -0.53203
 Alpha  occ. eigenvalues --   -0.46014  -0.44412  -0.41395  -0.37984  -0.26810
 Alpha virt. eigenvalues --    0.00982   0.06876   0.07062   0.07787   0.08922
 Alpha virt. eigenvalues --    0.11477   0.12538   0.14406   0.15822   0.16456
 Alpha virt. eigenvalues --    0.18554   0.20159   0.21839   0.22711   0.22944

 Mulliken charges:
               1
     1  C   -0.171062
     2  C   -0.031700
     3  C   -0.020750
     4  C   -0.177758
     5  H    0.074365
     6  H    0.050358
     7  H    0.061325
     8  H    0.062002
     9  H    0.080542
    10  H    0.072678
 Sum of Mulliken charges =   0.00000

 Dipole moment (field-independent basis, Debye):
    X=              0.0670    Y=             -0.0571    Z=              0.2717  Tot=              0.2856
 Quadrupole moment (field-independent basis, Debye-Ang):
   XX=            -23.8526   YY=            -23.2523   ZZ=            -29.3562
   XY=             -0.6326   XZ=             -0.3221   YZ=              0.1803

 1\1\GINC-NODE37\SP\RB2PLYPD3-FC\def2QZVP\C4H6\BOITTIER\26-Aug-2020\0\\
 #p B2PLYPD3/Def2QZVP\\butadiene\\0,1\C,0,-3.81919,0.236201,0.059517\C,
 0,-2.683028,-0.533847,-0.024506\C,0,-1.403947,0.07294,-0.076283\C,0,-0
 .298996,-0.659031,0.098184\H,0,-4.855027,-0.080383,0.241666\H,0,-3.780
 205,1.32446,0.232203\H,0,-2.791747,-1.636233,0.023445\H,0,-1.408242,1.
 226785,-0.204261\H,0,-0.219608,-1.738314,0.023094\H,0,0.685535,-0.1318
 14,0.325469\\Version=ES64L-G09RevD.01\State=1-A\HF=-155.6794209\MP2=-1
 55.9079857\RMSD=9.732e-09\PG=C01 [X(C4H6)]\\@

 Normal termination of Gaussian 09 at Wed Aug 26 14:26:41 2020.
