 Gaussian 09, Revision D.01,
 Gaussian 09:  ES64L-G09RevD.01 24-Apr-2013

 --------------------
 #p B2PLYPD3/Def2QZVP
 --------------------

 ---------
 butadiene
 ---------
 Symbolic Z-matrix:
 Charge =  0 Multiplicity = 1

                         Standard orientation:
 ---------------------------------------------------------------------
 Center     Atomic      Atomic             Coordinates (Angstroms)
 Number     Number       Type             X           Y           Z
 ---------------------------------------------------------------------
      1          6           0       -1.868166    0.135573   -0.048676
      2          6           0       -0.614911   -0.449190    0.053419
      3          6           0        0.587563    0.372274    0.029297
      4          6           0        1.844227   -0.090059   -0.082217
      5          1           0       -2.670462   -0.503848   -0.033907
      6          1           0       -1.930867    1.187422   -0.158119
      7          1           0       -0.364213   -1.484650    0.264889
      8          1           0        0.513464    1.468385    0.226401
      9          1           0        2.186849   -1.116896   -0.177619
     10          1           0        2.572948    0.637998    0.167420
 ---------------------------------------------------------------------

 SCF Done:  E(RB2PLYPD3) =  -155.683370725     A.U. after   12 cycles
 E2(B2PLYPD3) =    -0.2273237911D+00 E(B2PLYPD3) =    -0.15591069451645D+03

 The electronic state is 1-A.
 Alpha  occ. eigenvalues --  -10.63362 -10.62718 -10.61761 -10.61141  -0.92482
 Alpha  occ. eigenvalues --   -0.84551  -0.70987  -0.63609  -0.54933  -0.53491
 Alpha  occ. eigenvalues --   -0.47269  -0.46062  -0.41176  -0.36900  -0.27254
 Alpha virt. eigenvalues --    0.00956   0.07117   0.07354   0.07944   0.09283
 Alpha virt. eigenvalues --    0.11562   0.12315   0.15058   0.15451   0.16068
 Alpha virt. eigenvalues --    0.18973   0.19698   0.21493   0.21965   0.24061

 Mulliken charges:
               1
     1  C   -0.182557
     2  C   -0.058433
     3  C   -0.012903
     4  C   -0.185865
     5  H    0.095868
     6  H    0.084272
     7  H    0.067215
     8  H    0.051164
     9  H    0.065801
    10  H    0.075438
 Sum of Mulliken charges =   0.00000

 Dipole moment (field-independent basis, Debye):
    X=             -0.0523    Y=             -0.0517    Z=              0.2930  Tot=              0.3021
 Quadrupole moment (field-independent basis, Debye-Ang):
   XX=            -24.0130   YY=            -22.9689   ZZ=            -29.2557
   XY=             -0.5022   XZ=              0.5481   YZ=              0.0979

 1\1\GINC-NODE25\SP\RB2PLYPD3-FC\def2QZVP\C4H6\BOITTIER\26-Aug-2020\0\\
 #p B2PLYPD3/Def2QZVP\\butadiene\\0,1\C,0,-3.855871,0.265993,-0.031598\
 C,0,-2.733167,-0.538121,0.094712\C,0,-1.398958,0.044567,0.0536\C,0,-0.
 250095,-0.64628,-0.037152\H,0,-4.763037,-0.212524,-0.002832\H,0,-3.721
 95,1.307458,-0.171997\H,0,-2.679346,-1.595385,0.3377\H,0,-1.268086,1.1
 40724,0.218258\H,0,-0.104273,-1.721265,-0.100622\H,0,0.601187,-0.05918
 9,0.195365\\Version=ES64L-G09RevD.01\State=1-A\HF=-155.6833707\MP2=-15
 5.9106945\RMSD=3.354e-09\PG=C01 [X(C4H6)]\\@

 Normal termination of Gaussian 09 at Wed Aug 26 14:51:01 2020.
