 Gaussian 09, Revision D.01,
 Gaussian 09:  ES64L-G09RevD.01 24-Apr-2013

 --------------------
 #p B2PLYPD3/Def2QZVP
 --------------------

 ---------
 butadiene
 ---------
 Symbolic Z-matrix:
 Charge =  0 Multiplicity = 1

                         Standard orientation:
 ---------------------------------------------------------------------
 Center     Atomic      Atomic             Coordinates (Angstroms)
 Number     Number       Type             X           Y           Z
 ---------------------------------------------------------------------
      1          6           0        1.847812    0.094071   -0.018043
      2          6           0        0.598785   -0.381359    0.007282
      3          6           0       -0.612604    0.413338    0.016103
      4          6           0       -1.839739   -0.115840   -0.024240
      5          1           0        2.691005   -0.543050    0.007099
      6          1           0        2.072016    1.148695   -0.029282
      7          1           0        0.463467   -1.445267    0.078443
      8          1           0       -0.462003    1.467583    0.062202
      9          1           0       -1.987475   -1.183208   -0.019165
     10          1           0       -2.742536    0.493981    0.014093
 ---------------------------------------------------------------------

 SCF Done:  E(RB2PLYPD3) =  -155.700610013     A.U. after   11 cycles
 E2(B2PLYPD3) =    -0.2254343073D+00 E(B2PLYPD3) =    -0.15592604431991D+03

 The electronic state is 1-A.
 Alpha  occ. eigenvalues --  -10.62398 -10.62311 -10.61690 -10.61192  -0.93064
 Alpha  occ. eigenvalues --   -0.84932  -0.70579  -0.64457  -0.54893  -0.53946
 Alpha  occ. eigenvalues --   -0.47142  -0.45671  -0.41187  -0.38054  -0.27665
 Alpha virt. eigenvalues --    0.01602   0.07010   0.07516   0.08143   0.09685
 Alpha virt. eigenvalues --    0.11655   0.12517   0.14801   0.15874   0.16192
 Alpha virt. eigenvalues --    0.18887   0.20537   0.21814   0.22666   0.23794

 Mulliken charges:
               1
     1  C   -0.179235
     2  C   -0.025669
     3  C   -0.036754
     4  C   -0.170609
     5  H    0.085841
     6  H    0.062505
     7  H    0.054127
     8  H    0.059687
     9  H    0.066060
    10  H    0.084046
 Sum of Mulliken charges =   0.00000

 Dipole moment (field-independent basis, Debye):
    X=             -0.0137    Y=              0.0036    Z=              0.1193  Tot=              0.1202
 Quadrupole moment (field-independent basis, Debye-Ang):
   XX=            -23.2544   YY=            -23.1942   ZZ=            -29.2066
   XY=              0.2467   XZ=             -0.0312   YZ=             -0.0295

 1\1\GINC-NODE37\SP\RB2PLYPD3-FC\def2QZVP\C4H6\BOITTIER\26-Aug-2020\0\\
 #p B2PLYPD3/Def2QZVP\\butadiene\\0,1\C,0,-3.852887,0.213359,0.034949\C
 ,0,-2.711339,-0.481989,0.024804\C,0,-1.375597,0.078382,-0.004567\C,0,-
 0.265115,-0.66398,0.052407\H,0,-4.798032,-0.260095,0.026481\H,0,-3.881
 38,1.291071,0.016242\H,0,-2.772157,-1.554319,-0.016256\H,0,-1.331997,1
 .140726,-0.080472\H,0,-0.314109,-1.740128,0.077523\H,0,0.733437,-0.229
 978,-0.001722\\Version=ES64L-G09RevD.01\State=1-A\HF=-155.70061\MP2=-1
 55.9260443\RMSD=4.185e-09\PG=C01 [X(C4H6)]\\@

 Normal termination of Gaussian 09 at Wed Aug 26 20:01:10 2020.
