 Gaussian 09, Revision D.01,
 Gaussian 09:  ES64L-G09RevD.01 24-Apr-2013

 --------------------
 #p B2PLYPD3/Def2QZVP
 --------------------

 ---------
 butadiene
 ---------
 Symbolic Z-matrix:
 Charge =  0 Multiplicity = 1

                         Standard orientation:
 ---------------------------------------------------------------------
 Center     Atomic      Atomic             Coordinates (Angstroms)
 Number     Number       Type             X           Y           Z
 ---------------------------------------------------------------------
      1          6           0       -1.835795   -0.109862    0.020862
      2          6           0       -0.594300    0.379045   -0.007827
      3          6           0        0.613729   -0.402900   -0.017934
      4          6           0        1.828423    0.120743   -0.005881
      5          1           0       -2.678459    0.557829   -0.089574
      6          1           0       -2.059001   -1.131257    0.107706
      7          1           0       -0.543273    1.489150   -0.030405
      8          1           0        0.477064   -1.513078   -0.072263
      9          1           0        2.011942    1.187273    0.103932
     10          1           0        2.719380   -0.512065    0.045282
 ---------------------------------------------------------------------

 SCF Done:  E(RB2PLYPD3) =  -155.697132520     A.U. after   11 cycles
 E2(B2PLYPD3) =    -0.2257259083D+00 E(B2PLYPD3) =    -0.15592285842868D+03

 The electronic state is 1-A.
 Alpha  occ. eigenvalues --  -10.62778 -10.62553 -10.61598 -10.61002  -0.93178
 Alpha  occ. eigenvalues --   -0.85150  -0.70283  -0.63607  -0.54460  -0.54354
 Alpha  occ. eigenvalues --   -0.46522  -0.45287  -0.40898  -0.38368  -0.27727
 Alpha virt. eigenvalues --    0.01688   0.06999   0.07338   0.07894   0.09765
 Alpha virt. eigenvalues --    0.11641   0.12418   0.14875   0.15775   0.16303
 Alpha virt. eigenvalues --    0.18744   0.20114   0.21876   0.22522   0.23860

 Mulliken charges:
               1
     1  C   -0.179941
     2  C   -0.019388
     3  C   -0.035104
     4  C   -0.165825
     5  H    0.081897
     6  H    0.066811
     7  H    0.049076
     8  H    0.053590
     9  H    0.067685
    10  H    0.081198
 Sum of Mulliken charges =   0.00000

 Dipole moment (field-independent basis, Debye):
    X=              0.0138    Y=             -0.0149    Z=              0.0567  Tot=              0.0602
 Quadrupole moment (field-independent basis, Debye-Ang):
   XX=            -23.4787   YY=            -23.1299   ZZ=            -29.1995
   XY=              0.1766   XZ=              0.3837   YZ=             -0.0410

 1\1\GINC-NODE36\SP\RB2PLYPD3-FC\def2QZVP\C4H6\BOITTIER\26-Aug-2020\0\\
 #p B2PLYPD3/Def2QZVP\\butadiene\\0,1\C,0,-3.840736,0.219229,0.00222\C,
 0,-2.706315,-0.482578,0.04367\C,0,-1.378051,0.070945,0.029439\C,0,-0.2
 76463,-0.6614,0.031213\H,0,-4.78834,-0.283756,0.133156\H,0,-3.878556,1
 .261166,-0.11417\H,0,-2.854154,-1.582838,0.098625\H,0,-1.313965,1.1887
 69,0.051461\H,0,-0.287013,-1.746251,-0.047602\H,0,0.712809,-0.199659,-
 0.039515\\Version=ES64L-G09RevD.01\State=1-A\HF=-155.6971325\MP2=-155.
 9228584\RMSD=4.571e-09\PG=C01 [X(C4H6)]\\@

 Normal termination of Gaussian 09 at Wed Aug 26 08:45:22 2020.
