 Gaussian 09, Revision D.01,
 Gaussian 09:  ES64L-G09RevD.01 24-Apr-2013

 --------------------
 #p B2PLYPD3/Def2QZVP
 --------------------

 ---------
 butadiene
 ---------
 Symbolic Z-matrix:
 Charge =  0 Multiplicity = 1

                         Standard orientation:
 ---------------------------------------------------------------------
 Center     Atomic      Atomic             Coordinates (Angstroms)
 Number     Number       Type             X           Y           Z
 ---------------------------------------------------------------------
      1          6           0        1.833073    0.116875    0.055985
      2          6           0        0.595625   -0.454928   -0.049261
      3          6           0       -0.583557    0.384773   -0.112441
      4          6           0       -1.830309   -0.098676    0.020881
      5          1           0        2.711541   -0.451276    0.206054
      6          1           0        1.978397    1.239151    0.018020
      7          1           0        0.371465   -1.486465   -0.150173
      8          1           0       -0.488097    1.504957   -0.049114
      9          1           0       -2.073091   -1.197216    0.168775
     10          1           0       -2.589204    0.702589    0.315453
 ---------------------------------------------------------------------

 SCF Done:  E(RB2PLYPD3) =  -155.681333170     A.U. after   11 cycles
 E2(B2PLYPD3) =    -0.2282094873D+00 E(B2PLYPD3) =    -0.15590954265692D+03

 The electronic state is 1-A.
 Alpha  occ. eigenvalues --  -10.63119 -10.62925 -10.62560 -10.62475  -0.92846
 Alpha  occ. eigenvalues --   -0.84069  -0.69880  -0.63486  -0.54067  -0.53096
 Alpha  occ. eigenvalues --   -0.46042  -0.45101  -0.41110  -0.37813  -0.27188
 Alpha virt. eigenvalues --    0.01205   0.06793   0.07106   0.07931   0.08855
 Alpha virt. eigenvalues --    0.11605   0.12280   0.14625   0.15407   0.16131
 Alpha virt. eigenvalues --    0.18620   0.20116   0.21237   0.22342   0.24463

 Mulliken charges:
               1
     1  C   -0.171867
     2  C   -0.052023
     3  C   -0.010515
     4  C   -0.170764
     5  H    0.086511
     6  H    0.067262
     7  H    0.069494
     8  H    0.051064
     9  H    0.061087
    10  H    0.069751
 Sum of Mulliken charges =   0.00000

 Dipole moment (field-independent basis, Debye):
    X=              0.1635    Y=             -0.0247    Z=              0.3469  Tot=              0.3843
 Quadrupole moment (field-independent basis, Debye-Ang):
   XX=            -24.5730   YY=            -22.8604   ZZ=            -29.4034
   XY=              0.3578   XZ=             -0.6444   YZ=              0.1290

 1\1\GINC-NODE40\SP\RB2PLYPD3-FC\def2QZVP\C4H6\BOITTIER\26-Aug-2020\0\\
 #p B2PLYPD3/Def2QZVP\\butadiene\\0,1\C,0,-3.828398,0.246774,-0.040195\
 C,0,-2.719282,-0.542423,0.087637\C,0,-1.402634,0.062226,0.10762\C,0,-0
 .270642,-0.652854,-0.007016\H,0,-4.799723,-0.152022,-0.160655\H,0,-3.7
 5976,1.376887,-0.054288\H,0,-2.691773,-1.592063,0.235954\H,0,-1.286635
 ,1.176307,-0.007719\H,0,-0.240425,-1.783012,-0.104159\H,0,0.621717,-0.
 022995,-0.341221\\Version=ES64L-G09RevD.01\State=1-A\HF=-155.6813332\M
 P2=-155.9095427\RMSD=9.482e-09\PG=C01 [X(C4H6)]\\@

 Normal termination of Gaussian 09 at Wed Aug 26 12:33:28 2020.
