 Gaussian 09, Revision D.01,
 Gaussian 09:  ES64L-G09RevD.01 24-Apr-2013

 --------------------
 #p B2PLYPD3/Def2QZVP
 --------------------

 ---------
 butadiene
 ---------
 Symbolic Z-matrix:
 Charge =  0 Multiplicity = 1

                         Standard orientation:
 ---------------------------------------------------------------------
 Center     Atomic      Atomic             Coordinates (Angstroms)
 Number     Number       Type             X           Y           Z
 ---------------------------------------------------------------------
      1          6           0        1.842657   -0.120959    0.020888
      2          6           0        0.617634    0.405529   -0.059611
      3          6           0       -0.618757   -0.384308   -0.031686
      4          6           0       -1.863996    0.115836    0.040306
      5          1           0        2.772292    0.473299    0.111510
      6          1           0        1.987743   -1.223204    0.026933
      7          1           0        0.588641    1.539223    0.050184
      8          1           0       -0.488507   -1.476743   -0.028534
      9          1           0       -2.018436    1.153879   -0.039916
     10          1           0       -2.706960   -0.563041    0.060439
 ---------------------------------------------------------------------

 SCF Done:  E(RB2PLYPD3) =  -155.694297613     A.U. after   11 cycles
 E2(B2PLYPD3) =    -0.2265919116D+00 E(B2PLYPD3) =    -0.15592088952451D+03

 The electronic state is 1-A.
 Alpha  occ. eigenvalues --  -10.63326 -10.63109 -10.62224 -10.61377  -0.92543
 Alpha  occ. eigenvalues --   -0.84909  -0.69806  -0.63321  -0.54327  -0.53830
 Alpha  occ. eigenvalues --   -0.46375  -0.45256  -0.40747  -0.37952  -0.27790
 Alpha virt. eigenvalues --    0.01598   0.06984   0.07304   0.07837   0.09414
 Alpha virt. eigenvalues --    0.11595   0.12392   0.14438   0.15686   0.16293
 Alpha virt. eigenvalues --    0.18840   0.19987   0.21540   0.23024   0.23755

 Mulliken charges:
               1
     1  C   -0.166754
     2  C   -0.028882
     3  C   -0.033865
     4  C   -0.177886
     5  H    0.084720
     6  H    0.057539
     7  H    0.049396
     8  H    0.052695
     9  H    0.074993
    10  H    0.088044
 Sum of Mulliken charges =   0.00000

 Dipole moment (field-independent basis, Debye):
    X=              0.0540    Y=             -0.0179    Z=              0.0933  Tot=              0.1093
 Quadrupole moment (field-independent basis, Debye-Ang):
   XX=            -23.3765   YY=            -23.1983   ZZ=            -29.4129
   XY=              0.0720   XZ=              0.3816   YZ=              0.0577

 1\1\GINC-NODE24\SP\RB2PLYPD3-FC\def2QZVP\C4H6\BOITTIER\26-Aug-2020\0\\
 #p B2PLYPD3/Def2QZVP\\butadiene\\0,1\C,0,-3.848436,0.224149,0.0475\C,0
 ,-2.732915,-0.507809,-0.017315\C,0,-1.378851,0.057695,-0.016662\C,0,-0
 .237839,-0.646947,0.07005\H,0,-4.865853,-0.197871,0.158581\H,0,-3.8015
 61,1.334532,0.01781\H,0,-2.89877,-1.625462,0.129321\H,0,-1.31907,1.155
 773,-0.048942\H,0,-0.264955,-1.698098,0.023499\H,0,0.709526,-0.123155,
 0.067015\\Version=ES64L-G09RevD.01\State=1-A\HF=-155.6942976\MP2=-155.
 9208895\RMSD=7.349e-09\PG=C01 [X(C4H6)]\\@

 Normal termination of Gaussian 09 at Wed Aug 26 10:51:07 2020.
