 Gaussian 09, Revision D.01,
 Gaussian 09:  ES64L-G09RevD.01 24-Apr-2013

 --------------------
 #p B2PLYPD3/Def2QZVP
 --------------------

 ---------
 butadiene
 ---------
 Symbolic Z-matrix:
 Charge =  0 Multiplicity = 1

                         Standard orientation:
 ---------------------------------------------------------------------
 Center     Atomic      Atomic             Coordinates (Angstroms)
 Number     Number       Type             X           Y           Z
 ---------------------------------------------------------------------
      1          6           0        1.843825    0.099229    0.041082
      2          6           0        0.600452   -0.396561   -0.051295
      3          6           0       -0.610189    0.423857   -0.046690
      4          6           0       -1.834968   -0.126661    0.052148
      5          1           0        2.736566   -0.488525    0.167194
      6          1           0        2.035611    1.161470   -0.054115
      7          1           0        0.482311   -1.458587   -0.116197
      8          1           0       -0.566315    1.532181   -0.031341
      9          1           0       -1.927073   -1.234520   -0.002404
     10          1           0       -2.755821    0.488793    0.065391
 ---------------------------------------------------------------------

 SCF Done:  E(RB2PLYPD3) =  -155.695271717     A.U. after   11 cycles
 E2(B2PLYPD3) =    -0.2266112920D+00 E(B2PLYPD3) =    -0.15592188300888D+03

 The electronic state is 1-A.
 Alpha  occ. eigenvalues --  -10.63117 -10.62795 -10.62221 -10.61539  -0.92701
 Alpha  occ. eigenvalues --   -0.84611  -0.69702  -0.63950  -0.54421  -0.53730
 Alpha  occ. eigenvalues --   -0.46375  -0.44965  -0.41607  -0.37728  -0.27497
 Alpha virt. eigenvalues --    0.01610   0.07008   0.07361   0.07918   0.09234
 Alpha virt. eigenvalues --    0.11585   0.12530   0.14373   0.15796   0.16488
 Alpha virt. eigenvalues --    0.18816   0.19944   0.21519   0.23090   0.23744

 Mulliken charges:
               1
     1  C   -0.172869
     2  C   -0.036801
     3  C   -0.033960
     4  C   -0.168903
     5  H    0.083333
     6  H    0.064530
     7  H    0.062255
     8  H    0.057404
     9  H    0.060716
    10  H    0.084295
 Sum of Mulliken charges =   0.00000

 Dipole moment (field-independent basis, Debye):
    X=              0.0189    Y=              0.0175    Z=             -0.0481  Tot=              0.0546
 Quadrupole moment (field-independent basis, Debye-Ang):
   XX=            -23.4434   YY=            -23.1481   ZZ=            -29.3812
   XY=             -0.0794   XZ=              0.1700   YZ=             -0.0144

 1\1\GINC-NODE38\SP\RB2PLYPD3-FC\def2QZVP\C4H6\BOITTIER\26-Aug-2020\0\\
 #p B2PLYPD3/Def2QZVP\\butadiene\\0,1\C,0,-3.850098,0.205973,-0.024944\
 C,0,-2.713136,-0.498007,0.084809\C,0,-1.377085,0.096281,0.061357\C,0,-
 0.268403,-0.663557,-0.018585\H,0,-4.832524,-0.218878,-0.137581\H,0,-3.
 851899,1.287601,0.040449\H,0,-2.7835,-1.562058,0.179224\H,0,-1.225378,
 1.194196,0.01543\H,0,-0.372477,-1.768416,0.066664\H,0,0.746313,-0.2202
 36,-0.045925\\Version=ES64L-G09RevD.01\State=1-A\HF=-155.6952717\MP2=-
 155.921883\RMSD=4.583e-09\PG=C01 [X(C4H6)]\\@

 Normal termination of Gaussian 09 at Wed Aug 26 09:52:31 2020.
