 Gaussian 09, Revision D.01,
 Gaussian 09:  ES64L-G09RevD.01 24-Apr-2013

 --------------------
 #p B2PLYPD3/Def2QZVP
 --------------------

 ---------
 butadiene
 ---------
 Symbolic Z-matrix:
 Charge =  0 Multiplicity = 1

                         Standard orientation:
 ---------------------------------------------------------------------
 Center     Atomic      Atomic             Coordinates (Angstroms)
 Number     Number       Type             X           Y           Z
 ---------------------------------------------------------------------
      1          6           0       -1.848392   -0.109095    0.005322
      2          6           0       -0.618492    0.408826   -0.018717
      3          6           0        0.609239   -0.395512   -0.016811
      4          6           0        1.852034    0.104984    0.019998
      5          1           0       -2.734355    0.498262    0.083915
      6          1           0       -1.973349   -1.200542    0.032698
      7          1           0       -0.468153    1.478256   -0.059823
      8          1           0        0.441280   -1.458987   -0.043982
      9          1           0        2.049574    1.182427    0.026183
     10          1           0        2.718672   -0.554635    0.022260
 ---------------------------------------------------------------------

 SCF Done:  E(RB2PLYPD3) =  -155.700369100     A.U. after   11 cycles
 E2(B2PLYPD3) =    -0.2258938589D+00 E(B2PLYPD3) =    -0.15592626295856D+03

 The electronic state is 1-A.
 Alpha  occ. eigenvalues --  -10.62675 -10.62581 -10.61888 -10.61717  -0.92735
 Alpha  occ. eigenvalues --   -0.84805  -0.70039  -0.64081  -0.54622  -0.53522
 Alpha  occ. eigenvalues --   -0.47038  -0.45546  -0.40911  -0.37894  -0.27782
 Alpha virt. eigenvalues --    0.01707   0.06983   0.07381   0.08120   0.09515
 Alpha virt. eigenvalues --    0.11655   0.12398   0.14607   0.15840   0.16054
 Alpha virt. eigenvalues --    0.18835   0.20484   0.21517   0.22887   0.23666

 Mulliken charges:
               1
     1  C   -0.173341
     2  C   -0.030326
     3  C   -0.033738
     4  C   -0.176209
     5  H    0.088981
     6  H    0.061076
     7  H    0.055266
     8  H    0.055360
     9  H    0.066998
    10  H    0.085932
 Sum of Mulliken charges =   0.00000

 Dipole moment (field-independent basis, Debye):
    X=             -0.0102    Y=              0.0140    Z=              0.0347  Tot=              0.0387
 Quadrupole moment (field-independent basis, Debye-Ang):
   XX=            -23.4219   YY=            -23.1563   ZZ=            -29.3310
   XY=              0.1729   XZ=             -0.2027   YZ=              0.0118

 1\1\GINC-NODE40\SP\RB2PLYPD3-FC\def2QZVP\C4H6\BOITTIER\26-Aug-2020\0\\
 #p B2PLYPD3/Def2QZVP\\butadiene\\0,1\C,0,-3.849892,0.225506,0.00907\C,
 0,-2.733234,-0.50431,0.052875\C,0,-1.3808,0.065527,0.030661\C,0,-0.248
 455,-0.651327,0.013161\H,0,-4.830865,-0.214609,-0.054015\H,0,-3.77644,
 1.320276,-0.05179\H,0,-2.777726,-1.581583,0.126876\H,0,-1.354562,1.142
 192,0.025027\H,0,-0.248062,-1.746411,0.040292\H,0,0.722737,-0.15881,-0
 .00622\\Version=ES64L-G09RevD.01\State=1-A\HF=-155.7003691\MP2=-155.92
 6263\RMSD=3.078e-09\PG=C01 [X(C4H6)]\\@

 Normal termination of Gaussian 09 at Wed Aug 26 16:28:08 2020.
