 Gaussian 09, Revision D.01,
 Gaussian 09:  ES64L-G09RevD.01 24-Apr-2013

 --------------------
 #p B2PLYPD3/Def2QZVP
 --------------------

 ---------
 butadiene
 ---------
 Symbolic Z-matrix:
 Charge =  0 Multiplicity = 1

                         Standard orientation:
 ---------------------------------------------------------------------
 Center     Atomic      Atomic             Coordinates (Angstroms)
 Number     Number       Type             X           Y           Z
 ---------------------------------------------------------------------
      1          6           0       -1.844855    0.098536   -0.012554
      2          6           0       -0.612174   -0.391678    0.036580
      3          6           0        0.605124    0.410001    0.014358
      4          6           0        1.834564   -0.119618   -0.022797
      5          1           0       -2.706807   -0.513773   -0.046946
      6          1           0       -2.009478    1.171755   -0.022323
      7          1           0       -0.460958   -1.449768   -0.040959
      8          1           0        0.547500    1.518882    0.012005
      9          1           0        1.993753   -1.194073    0.021547
     10          1           0        2.740037    0.483527   -0.016841
 ---------------------------------------------------------------------

 SCF Done:  E(RB2PLYPD3) =  -155.699561755     A.U. after   11 cycles
 E2(B2PLYPD3) =    -0.2256424228D+00 E(B2PLYPD3) =    -0.15592520417802D+03

 The electronic state is 1-A.
 Alpha  occ. eigenvalues --  -10.62896 -10.62394 -10.61649 -10.61210  -0.92934
 Alpha  occ. eigenvalues --   -0.85024  -0.70158  -0.63969  -0.54877  -0.53906
 Alpha  occ. eigenvalues --   -0.46788  -0.45273  -0.41119  -0.38120  -0.27771
 Alpha virt. eigenvalues --    0.01775   0.07042   0.07429   0.08028   0.09553
 Alpha virt. eigenvalues --    0.11632   0.12527   0.14595   0.15753   0.16378
 Alpha virt. eigenvalues --    0.18841   0.20310   0.21700   0.22978   0.23728

 Mulliken charges:
               1
     1  C   -0.172091
     2  C   -0.033210
     3  C   -0.029710
     4  C   -0.172770
     5  H    0.088079
     6  H    0.064278
     7  H    0.058792
     8  H    0.051949
     9  H    0.061216
    10  H    0.083466
 Sum of Mulliken charges =   0.00000

 Dipole moment (field-independent basis, Debye):
    X=              0.0006    Y=             -0.0141    Z=             -0.0471  Tot=              0.0492
 Quadrupole moment (field-independent basis, Debye-Ang):
   XX=            -23.2782   YY=            -23.1802   ZZ=            -29.2589
   XY=             -0.0538   XZ=              0.2338   YZ=              0.0427

 1\1\GINC-NODE37\SP\RB2PLYPD3-FC\def2QZVP\C4H6\BOITTIER\26-Aug-2020\0\\
 #p B2PLYPD3/Def2QZVP\\butadiene\\0,1\C,0,-3.848012,0.210051,0.00142\C,
 0,-2.722194,-0.49026,0.067193\C,0,-1.381685,0.08121,0.029063\C,0,-0.26
 6158,-0.659478,0.009555\H,0,-4.805206,-0.239796,-0.020567\H,0,-3.81902
 9,1.294836,-0.035934\H,0,-2.761768,-1.559995,0.01684\H,0,-1.241057,1.1
 82227,-0.001401\H,0,-0.300673,-1.743635,0.081485\H,0,0.732202,-0.22711
 2,0.003499\\Version=ES64L-G09RevD.01\State=1-A\HF=-155.6995618\MP2=-15
 5.9252042\RMSD=3.556e-09\PG=C01 [X(C4H6)]\\@

 Normal termination of Gaussian 09 at Wed Aug 26 22:10:54 2020.
