 Gaussian 09, Revision D.01,
 Gaussian 09:  ES64L-G09RevD.01 24-Apr-2013

 --------------------
 #p B2PLYPD3/Def2QZVP
 --------------------

 ---------
 butadiene
 ---------
 Symbolic Z-matrix:
 Charge =  0 Multiplicity = 1

                         Standard orientation:
 ---------------------------------------------------------------------
 Center     Atomic      Atomic             Coordinates (Angstroms)
 Number     Number       Type             X           Y           Z
 ---------------------------------------------------------------------
      1          6           0       -1.843219   -0.120248   -0.005779
      2          6           0       -0.614965    0.403777   -0.008817
      3          6           0        0.617368   -0.395000    0.001202
      4          6           0        1.847005    0.110679    0.000643
      5          1           0       -2.701443    0.520031    0.015703
      6          1           0       -1.998962   -1.189194    0.047981
      7          1           0       -0.542618    1.499537   -0.008204
      8          1           0        0.471607   -1.477955   -0.003140
      9          1           0        2.002215    1.160852    0.052986
     10          1           0        2.732068   -0.508516   -0.028823
 ---------------------------------------------------------------------

 SCF Done:  E(RB2PLYPD3) =  -155.700772344     A.U. after   11 cycles
 E2(B2PLYPD3) =    -0.2254683963D+00 E(B2PLYPD3) =    -0.15592624074050D+03

 The electronic state is 1-A.
 Alpha  occ. eigenvalues --  -10.62749 -10.62687 -10.61353 -10.61236  -0.92760
 Alpha  occ. eigenvalues --   -0.85144  -0.70066  -0.63924  -0.54596  -0.54136
 Alpha  occ. eigenvalues --   -0.46717  -0.45672  -0.41051  -0.37978  -0.27850
 Alpha virt. eigenvalues --    0.01866   0.07016   0.07441   0.08030   0.09584
 Alpha virt. eigenvalues --    0.11668   0.12459   0.14673   0.15922   0.16154
 Alpha virt. eigenvalues --    0.18828   0.20546   0.21591   0.22813   0.23860

 Mulliken charges:
               1
     1  C   -0.176098
     2  C   -0.030059
     3  C   -0.032252
     4  C   -0.173314
     5  H    0.086443
     6  H    0.065502
     7  H    0.051685
     8  H    0.054058
     9  H    0.067682
    10  H    0.086352
 Sum of Mulliken charges =   0.00000

 Dipole moment (field-independent basis, Debye):
    X=              0.0007    Y=              0.0162    Z=              0.0706  Tot=              0.0724
 Quadrupole moment (field-independent basis, Debye-Ang):
   XX=            -23.3925   YY=            -23.0921   ZZ=            -29.2627
   XY=              0.0615   XZ=             -0.1348   YZ=              0.0335

 1\1\GINC-NODE23\SP\RB2PLYPD3-FC\def2QZVP\C4H6\BOITTIER\26-Aug-2020\0\\
 #p B2PLYPD3/Def2QZVP\\butadiene\\0,1\C,0,-3.846233,0.227019,0.020928\C
 ,0,-2.729078,-0.504245,0.041846\C,0,-1.375655,0.065138,0.012876\C,0,-0
 .253922,-0.648384,0.030809\H,0,-4.8036,-0.25296,0.014995\H,0,-3.811972
 ,1.304782,-0.063004\H,0,-2.85027,-1.595268,0.07195\H,0,-1.328976,1.156
 555,-0.01334\H,0,-0.285651,-1.710539,0.008155\H,0,0.726182,-0.193643,0
 .045382\\Version=ES64L-G09RevD.01\State=1-A\HF=-155.7007723\MP2=-155.9
 262407\RMSD=2.787e-09\PG=C01 [X(C4H6)]\\@

 Normal termination of Gaussian 09 at Wed Aug 26 19:31:38 2020.
