 Gaussian 09, Revision D.01,
 Gaussian 09:  ES64L-G09RevD.01 24-Apr-2013

 --------------------
 #p B2PLYPD3/Def2QZVP
 --------------------

 ---------
 butadiene
 ---------
 Symbolic Z-matrix:
 Charge =  0 Multiplicity = 1

                         Standard orientation:
 ---------------------------------------------------------------------
 Center     Atomic      Atomic             Coordinates (Angstroms)
 Number     Number       Type             X           Y           Z
 ---------------------------------------------------------------------
      1          6           0        1.831956   -0.107886   -0.029775
      2          6           0        0.603853    0.415252    0.007941
      3          6           0       -0.592388   -0.413080    0.027922
      4          6           0       -1.840511    0.104728   -0.021582
      5          1           0        2.738303    0.514118    0.026078
      6          1           0        1.976077   -1.200143   -0.034343
      7          1           0        0.463947    1.489782    0.097815
      8          1           0       -0.448988   -1.473907    0.068821
      9          1           0       -2.023487    1.174005   -0.052498
     10          1           0       -2.723318   -0.497935   -0.012908
 ---------------------------------------------------------------------

 SCF Done:  E(RB2PLYPD3) =  -155.699436051     A.U. after   11 cycles
 E2(B2PLYPD3) =    -0.2261925183D+00 E(B2PLYPD3) =    -0.15592562856983D+03

 The electronic state is 1-A.
 Alpha  occ. eigenvalues --  -10.62720 -10.62594 -10.61903 -10.61630  -0.92873
 Alpha  occ. eigenvalues --   -0.84529  -0.70031  -0.64286  -0.54553  -0.53635
 Alpha  occ. eigenvalues --   -0.46680  -0.45411  -0.41370  -0.37935  -0.27501
 Alpha virt. eigenvalues --    0.01627   0.07033   0.07353   0.08069   0.09357
 Alpha virt. eigenvalues --    0.11647   0.12490   0.14608   0.15851   0.16200
 Alpha virt. eigenvalues --    0.18796   0.20469   0.21611   0.22926   0.23634

 Mulliken charges:
               1
     1  C   -0.172976
     2  C   -0.028643
     3  C   -0.037287
     4  C   -0.175155
     5  H    0.083585
     6  H    0.062610
     7  H    0.059638
     8  H    0.060210
     9  H    0.063752
    10  H    0.084266
 Sum of Mulliken charges =   0.00000

 Dipole moment (field-independent basis, Debye):
    X=             -0.0099    Y=              0.0028    Z=              0.1115  Tot=              0.1119
 Quadrupole moment (field-independent basis, Debye-Ang):
   XX=            -23.4784   YY=            -23.0898   ZZ=            -29.3501
   XY=             -0.2189   XZ=              0.1968   YZ=              0.0464

 1\1\GINC-NODE35\SP\RB2PLYPD3-FC\def2QZVP\C4H6\BOITTIER\26-Aug-2020\0\\
 #p B2PLYPD3/Def2QZVP\\butadiene\\0,1\C,0,-3.833285,0.224823,-0.006832\
 C,0,-2.72123,-0.512489,0.048275\C,0,-1.393701,0.083455,0.041758\C,0,-0
 .261478,-0.655069,0.009525\H,0,-4.837685,-0.218936,0.068878\H,0,-3.775
 46,1.324308,-0.046917\H,0,-2.779483,-1.591056,0.173043\H,0,-1.340655,1
 .153378,0.048138\H,0,-0.277102,-1.74021,0.013412\H,0,0.716607,-0.22394
 9,-0.001072\\Version=ES64L-G09RevD.01\State=1-A\HF=-155.6994361\MP2=-1
 55.9256286\RMSD=6.060e-09\PG=C01 [X(C4H6)]\\@

 Normal termination of Gaussian 09 at Wed Aug 26 20:25:46 2020.
