 Gaussian 09, Revision D.01,
 Gaussian 09:  ES64L-G09RevD.01 24-Apr-2013

 --------------------
 #p B2PLYPD3/Def2QZVP
 --------------------

 ---------
 butadiene
 ---------
 Symbolic Z-matrix:
 Charge =  0 Multiplicity = 1

                         Standard orientation:
 ---------------------------------------------------------------------
 Center     Atomic      Atomic             Coordinates (Angstroms)
 Number     Number       Type             X           Y           Z
 ---------------------------------------------------------------------
      1          6           0        1.838530   -0.127418   -0.015248
      2          6           0        0.609060    0.412932    0.003499
      3          6           0       -0.604247   -0.390415    0.024506
      4          6           0       -1.852655    0.098655   -0.025700
      5          1           0        2.663074    0.569029   -0.064821
      6          1           0        2.020399   -1.199934    0.045990
      7          1           0        0.522115    1.498607    0.064148
      8          1           0       -0.434000   -1.432917    0.026808
      9          1           0       -2.062378    1.153314    0.052637
     10          1           0       -2.653334   -0.550622   -0.047105
 ---------------------------------------------------------------------

 SCF Done:  E(RB2PLYPD3) =  -155.697201374     A.U. after   11 cycles
 E2(B2PLYPD3) =    -0.2256947055D+00 E(B2PLYPD3) =    -0.15592289607937D+03

 The electronic state is 1-A.
 Alpha  occ. eigenvalues --  -10.62569 -10.62241 -10.61665 -10.60948  -0.92872
 Alpha  occ. eigenvalues --   -0.84951  -0.70513  -0.64216  -0.54577  -0.54261
 Alpha  occ. eigenvalues --   -0.46463  -0.46241  -0.41533  -0.37800  -0.27507
 Alpha virt. eigenvalues --    0.01599   0.07026   0.07457   0.08138   0.09518
 Alpha virt. eigenvalues --    0.11733   0.12317   0.14929   0.15760   0.16170
 Alpha virt. eigenvalues --    0.18764   0.20346   0.21631   0.23036   0.24066

 Mulliken charges:
               1
     1  C   -0.182042
     2  C   -0.027940
     3  C   -0.037787
     4  C   -0.177484
     5  H    0.083979
     6  H    0.072263
     7  H    0.055160
     8  H    0.058268
     9  H    0.068903
    10  H    0.086680
 Sum of Mulliken charges =   0.00000

 Dipole moment (field-independent basis, Debye):
    X=              0.0097    Y=             -0.0099    Z=              0.0992  Tot=              0.1001
 Quadrupole moment (field-independent basis, Debye-Ang):
   XX=            -23.7133   YY=            -22.8847   ZZ=            -29.2507
   XY=             -0.1849   XZ=             -0.0267   YZ=              0.0528

 1\1\GINC-NODE15\SP\RB2PLYPD3-FC\def2QZVP\C4H6\BOITTIER\26-Aug-2020\0\\
 #p B2PLYPD3/Def2QZVP\\butadiene\\0,1\C,0,-3.838028,0.242879,0.002793\C
 ,0,-2.727018,-0.510769,0.042755\C,0,-1.387955,0.059157,0.038776\C,0,-0
 .249296,-0.649889,0.008105\H,0,-4.775502,-0.293554,-0.024608\H,0,-3.82
 1915,1.332045,0.026753\H,0,-2.838365,-1.591466,0.140857\H,0,-1.366104,
 1.114702,0.004891\H,0,-0.234203,-1.721793,0.123084\H,0,0.655855,-0.157
 907,-0.033861\\Version=ES64L-G09RevD.01\State=1-A\HF=-155.6972014\MP2=
 -155.9228961\RMSD=3.302e-09\PG=C01 [X(C4H6)]\\@

 Normal termination of Gaussian 09 at Wed Aug 26 08:39:20 2020.
