 Gaussian 09, Revision D.01,
 Gaussian 09:  ES64L-G09RevD.01 24-Apr-2013

 --------------------
 #p B2PLYPD3/Def2QZVP
 --------------------

 ---------
 butadiene
 ---------
 Symbolic Z-matrix:
 Charge =  0 Multiplicity = 1

                         Standard orientation:
 ---------------------------------------------------------------------
 Center     Atomic      Atomic             Coordinates (Angstroms)
 Number     Number       Type             X           Y           Z
 ---------------------------------------------------------------------
      1          6           0       -1.888769    0.062076    0.093833
      2          6           0       -0.616422   -0.342973   -0.075476
      3          6           0        0.630334    0.447916   -0.077657
      4          6           0        1.881726   -0.152138    0.047076
      5          1           0       -2.708369   -0.547494    0.029635
      6          1           0       -2.049041    1.133816    0.026897
      7          1           0       -0.442330   -1.390626   -0.084803
      8          1           0        0.453286    1.434364   -0.154342
      9          1           0        1.943124   -1.246297   -0.008863
     10          1           0        2.762118    0.526948    0.264820
 ---------------------------------------------------------------------

 SCF Done:  E(RB2PLYPD3) =  -155.678327903     A.U. after   12 cycles
 E2(B2PLYPD3) =    -0.2274537550D+00 E(B2PLYPD3) =    -0.15590578165853D+03

 The electronic state is 1-A.
 Alpha  occ. eigenvalues --  -10.63650 -10.63043 -10.62468 -10.61013  -0.92362
 Alpha  occ. eigenvalues --   -0.84353  -0.70761  -0.65142  -0.54575  -0.53485
 Alpha  occ. eigenvalues --   -0.47828  -0.45496  -0.41271  -0.37100  -0.27298
 Alpha virt. eigenvalues --    0.00688   0.06876   0.07608   0.08190   0.09219
 Alpha virt. eigenvalues --    0.11601   0.12424   0.14546   0.15484   0.16297
 Alpha virt. eigenvalues --    0.18790   0.19432   0.21781   0.23427   0.23735

 Mulliken charges:
               1
     1  C   -0.174292
     2  C   -0.022823
     3  C   -0.055349
     4  C   -0.178045
     5  H    0.090220
     6  H    0.049848
     7  H    0.047026
     8  H    0.070790
     9  H    0.082000
    10  H    0.090626
 Sum of Mulliken charges =   0.00000

 Dipole moment (field-independent basis, Debye):
    X=              0.0848    Y=              0.0108    Z=             -0.0446  Tot=              0.0964
 Quadrupole moment (field-independent basis, Debye-Ang):
   XX=            -23.5833   YY=            -23.2265   ZZ=            -29.3871
   XY=              0.0292   XZ=              0.6719   YZ=              0.0885

 1\1\GINC-NODE32\SP\RB2PLYPD3-FC\def2QZVP\C4H6\BOITTIER\26-Aug-2020\0\\
 #p B2PLYPD3/Def2QZVP\\butadiene\\0,1\C,0,-3.901627,0.183205,0.104883\C
 ,0,-2.721247,-0.447121,-0.039989\C,0,-1.354142,0.1099,-0.06572\C,0,-0.
 228695,-0.696611,0.090852\H,0,-4.816269,-0.273784,0.059795\H,0,-3.8696
 26,1.262802,-0.00576\H,0,-2.735439,-1.508556,-0.006419\H,0,-1.353763,1
 .108196,-0.18281\H,0,-0.36207,-1.785718,0.078981\H,0,0.758205,-0.17581
 9,0.286978\\Version=ES64L-G09RevD.01\State=1-A\HF=-155.6783279\MP2=-15
 5.9057817\RMSD=4.864e-09\PG=C01 [X(C4H6)]\\@

 Normal termination of Gaussian 09 at Wed Aug 26 13:46:41 2020.
