 Gaussian 09, Revision D.01,
 Gaussian 09:  ES64L-G09RevD.01 24-Apr-2013

 --------------------
 #p B2PLYPD3/Def2QZVP
 --------------------

 ---------
 butadiene
 ---------
 Symbolic Z-matrix:
 Charge =  0 Multiplicity = 1

                         Standard orientation:
 ---------------------------------------------------------------------
 Center     Atomic      Atomic             Coordinates (Angstroms)
 Number     Number       Type             X           Y           Z
 ---------------------------------------------------------------------
      1          6           0       -1.829743   -0.105998    0.014483
      2          6           0       -0.598003    0.397197   -0.013087
      3          6           0        0.599375   -0.405127   -0.026474
      4          6           0        1.833051    0.110672   -0.001899
      5          1           0       -2.722432    0.533706    0.002867
      6          1           0       -2.002684   -1.162704    0.020712
      7          1           0       -0.431611    1.490270    0.013280
      8          1           0        0.429885   -1.475684    0.012951
      9          1           0        2.009533    1.179342    0.034960
     10          1           0        2.689226   -0.545393    0.077097
 ---------------------------------------------------------------------

 SCF Done:  E(RB2PLYPD3) =  -155.700149767     A.U. after   11 cycles
 E2(B2PLYPD3) =    -0.2258459866D+00 E(B2PLYPD3) =    -0.15592599575332D+03

 The electronic state is 1-A.
 Alpha  occ. eigenvalues --  -10.62517 -10.62421 -10.61591 -10.61505  -0.93210
 Alpha  occ. eigenvalues --   -0.84835  -0.70244  -0.63978  -0.54570  -0.53835
 Alpha  occ. eigenvalues --   -0.46653  -0.45714  -0.40983  -0.38300  -0.27625
 Alpha virt. eigenvalues --    0.01682   0.07007   0.07320   0.08068   0.09637
 Alpha virt. eigenvalues --    0.11739   0.12406   0.14825   0.15870   0.15977
 Alpha virt. eigenvalues --    0.18721   0.20457   0.21712   0.22967   0.23686

 Mulliken charges:
               1
     1  C   -0.177879
     2  C   -0.021513
     3  C   -0.029542
     4  C   -0.177194
     5  H    0.084428
     6  H    0.065323
     7  H    0.049496
     8  H    0.053840
     9  H    0.068091
    10  H    0.084951
 Sum of Mulliken charges =   0.00000

 Dipole moment (field-independent basis, Debye):
    X=             -0.0051    Y=             -0.0203    Z=              0.1207  Tot=              0.1225
 Quadrupole moment (field-independent basis, Debye-Ang):
   XX=            -23.5799   YY=            -23.1057   ZZ=            -29.2650
   XY=              0.2979   XZ=              0.2745   YZ=             -0.0383

 1\1\GINC-NODE38\SP\RB2PLYPD3-FC\def2QZVP\C4H6\BOITTIER\26-Aug-2020\0\\
 #p B2PLYPD3/Def2QZVP\\butadiene\\0,1\C,0,-3.831935,0.224953,0.004317\C
 ,0,-2.713581,-0.495184,0.047156\C,0,-1.389034,0.073195,0.035469\C,0,-0
 .271402,-0.661264,0.026578\H,0,-4.826945,-0.238952,0.0359\H,0,-3.80765
 9,1.294755,-0.034537\H,0,-2.751174,-1.600499,0.054554\H,0,-1.359014,1.
 154962,-0.036993\H,0,-0.294652,-1.744779,0.022732\H,0,0.690327,-0.1766
 12,-0.072851\\Version=ES64L-G09RevD.01\State=1-A\HF=-155.7001498\MP2=-
 155.9259958\RMSD=4.568e-09\PG=C01 [X(C4H6)]\\@

 Normal termination of Gaussian 09 at Wed Aug 26 19:56:16 2020.
