 Gaussian 09, Revision D.01,
 Gaussian 09:  ES64L-G09RevD.01 24-Apr-2013

 --------------------
 #p B2PLYPD3/Def2QZVP
 --------------------

 ---------
 butadiene
 ---------
 Symbolic Z-matrix:
 Charge =  0 Multiplicity = 1

                         Standard orientation:
 ---------------------------------------------------------------------
 Center     Atomic      Atomic             Coordinates (Angstroms)
 Number     Number       Type             X           Y           Z
 ---------------------------------------------------------------------
      1          6           0       -1.852248    0.104295    0.025394
      2          6           0       -0.618721   -0.367025   -0.020744
      3          6           0        0.608201    0.393140   -0.001097
      4          6           0        1.847942   -0.107095   -0.006294
      5          1           0       -2.663543   -0.687486   -0.084185
      6          1           0       -2.243882    1.141574    0.094107
      7          1           0       -0.399331   -1.395698   -0.155523
      8          1           0        0.505712    1.482095    0.002443
      9          1           0        2.056072   -1.158358    0.321025
     10          1           0        2.833930    0.477982   -0.161422
 ---------------------------------------------------------------------

 SCF Done:  E(RB2PLYPD3) =  -155.681805368     A.U. after   11 cycles
 E2(B2PLYPD3) =    -0.2269086314D+00 E(B2PLYPD3) =    -0.15590871399989D+03

 The electronic state is 1-A.
 Alpha  occ. eigenvalues --  -10.62872 -10.62624 -10.62581 -10.62320  -0.93177
 Alpha  occ. eigenvalues --   -0.84733  -0.69960  -0.63744  -0.54364  -0.53315
 Alpha  occ. eigenvalues --   -0.47309  -0.44430  -0.40044  -0.37874  -0.27730
 Alpha virt. eigenvalues --    0.01197   0.06793   0.07348   0.07921   0.09504
 Alpha virt. eigenvalues --    0.11318   0.12207   0.14728   0.15605   0.16234
 Alpha virt. eigenvalues --    0.19031   0.19883   0.21224   0.22138   0.23400

 Mulliken charges:
               1
     1  C   -0.167252
     2  C   -0.037704
     3  C   -0.031688
     4  C   -0.174299
     5  H    0.069604
     6  H    0.080593
     7  H    0.066428
     8  H    0.055801
     9  H    0.060881
    10  H    0.077635
 Sum of Mulliken charges =   0.00000

 Dipole moment (field-independent basis, Debye):
    X=             -0.0238    Y=              0.0490    Z=              0.0321  Tot=              0.0632
 Quadrupole moment (field-independent basis, Debye-Ang):
   XX=            -23.2915   YY=            -23.5917   ZZ=            -29.2054
   XY=             -0.5783   XZ=              0.2113   YZ=             -0.0930

 1\1\GINC-NODE17\SP\RB2PLYPD3-FC\def2QZVP\C4H6\BOITTIER\26-Aug-2020\0\\
 #p B2PLYPD3/Def2QZVP\\butadiene\\0,1\C,0,-3.852353,0.225099,0.038511\C
 ,0,-2.726106,-0.465433,0.014137\C,0,-1.380688,0.057462,0.011759\C,0,-0
 .253525,-0.661157,0.029352\H,0,-4.795188,-0.408157,-0.046178\H,0,-4.04
 7253,1.318326,0.068767\H,0,-2.699128,-1.521025,-0.083147\H,0,-1.282035
 ,1.146197,-0.023779\H,0,-0.240589,-1.720409,0.394627\H,0,0.822533,-0.2
 72395,-0.14245\\Version=ES64L-G09RevD.01\State=1-A\HF=-155.6818054\MP2
 =-155.908714\RMSD=6.350e-09\PG=C01 [X(C4H6)]\\@

 Normal termination of Gaussian 09 at Wed Aug 26 12:09:07 2020.
