 Gaussian 09, Revision D.01,
 Gaussian 09:  ES64L-G09RevD.01 24-Apr-2013

 --------------------
 #p B2PLYPD3/Def2QZVP
 --------------------

 ---------
 butadiene
 ---------
 Symbolic Z-matrix:
 Charge =  0 Multiplicity = 1

                         Standard orientation:
 ---------------------------------------------------------------------
 Center     Atomic      Atomic             Coordinates (Angstroms)
 Number     Number       Type             X           Y           Z
 ---------------------------------------------------------------------
      1          6           0       -1.837663   -0.142751    0.022986
      2          6           0       -0.630276    0.421448   -0.032654
      3          6           0        0.610093   -0.363397   -0.008442
      4          6           0        1.846064    0.097119    0.011596
      5          1           0       -2.686589    0.514118    0.010647
      6          1           0       -1.973678   -1.211662    0.073413
      7          1           0       -0.519473    1.496929   -0.099949
      8          1           0        0.495019   -1.447257   -0.054523
      9          1           0        2.031113    1.159619    0.169240
     10          1           0        2.724307   -0.586269   -0.059745
 ---------------------------------------------------------------------

 SCF Done:  E(RB2PLYPD3) =  -155.698464923     A.U. after   11 cycles
 E2(B2PLYPD3) =    -0.2254995297D+00 E(B2PLYPD3) =    -0.15592396445261D+03

 The electronic state is 1-A.
 Alpha  occ. eigenvalues --  -10.62673 -10.62245 -10.61558 -10.61504  -0.92884
 Alpha  occ. eigenvalues --   -0.85225  -0.69741  -0.63839  -0.54407  -0.53917
 Alpha  occ. eigenvalues --   -0.46819  -0.45613  -0.40713  -0.37990  -0.27963
 Alpha virt. eigenvalues --    0.01944   0.06971   0.07447   0.07956   0.09648
 Alpha virt. eigenvalues --    0.11722   0.12232   0.14745   0.15803   0.16031
 Alpha virt. eigenvalues --    0.18817   0.20421   0.21244   0.22496   0.24077

 Mulliken charges:
               1
     1  C   -0.173486
     2  C   -0.044214
     3  C   -0.019618
     4  C   -0.179567
     5  H    0.086190
     6  H    0.074790
     7  H    0.057797
     8  H    0.049386
     9  H    0.064421
    10  H    0.084302
 Sum of Mulliken charges =   0.00000

 Dipole moment (field-independent basis, Debye):
    X=             -0.0732    Y=              0.0032    Z=              0.0206  Tot=              0.0761
 Quadrupole moment (field-independent basis, Debye-Ang):
   XX=            -23.6825   YY=            -23.0408   ZZ=            -29.2240
   XY=              0.0096   XZ=             -0.0046   YZ=              0.1056

 1\1\GINC-NODE30\SP\RB2PLYPD3-FC\def2QZVP\C4H6\BOITTIER\26-Aug-2020\0\\
 #p B2PLYPD3/Def2QZVP\\butadiene\\0,1\C,0,-3.834994,0.246099,-0.004157\
 C,0,-2.744258,-0.518368,0.067158\C,0,-1.38616,0.037367,0.024591\C,0,-0
 .249451,-0.63192,0.017666\H,0,-4.785374,-0.252198,0.023771\H,0,-3.7827
 73,1.320747,-0.081745\H,0,-2.822395,-1.594664,0.161744\H,0,-1.310401,1
 .125501,0.043127\H,0,-0.252944,-1.714026,-0.112855\H,0,0.734692,-0.110
 529,0.072755\\Version=ES64L-G09RevD.01\State=1-A\HF=-155.6984649\MP2=-
 155.9239645\RMSD=6.455e-09\PG=C01 [X(C4H6)]\\@

 Normal termination of Gaussian 09 at Wed Aug 26 08:52:54 2020.
