 Gaussian 09, Revision D.01,
 Gaussian 09:  ES64L-G09RevD.01 24-Apr-2013

 --------------------
 #p B2PLYPD3/Def2QZVP
 --------------------

 ---------
 butadiene
 ---------
 Symbolic Z-matrix:
 Charge =  0 Multiplicity = 1

                         Standard orientation:
 ---------------------------------------------------------------------
 Center     Atomic      Atomic             Coordinates (Angstroms)
 Number     Number       Type             X           Y           Z
 ---------------------------------------------------------------------
      1          6           0       -1.831739   -0.121268   -0.002823
      2          6           0       -0.613765    0.407795   -0.005345
      3          6           0        0.617482   -0.394009   -0.021312
      4          6           0        1.859741    0.102395    0.017432
      5          1           0       -2.751242    0.484543   -0.053414
      6          1           0       -2.029741   -1.189296    0.172448
      7          1           0       -0.589048    1.528855   -0.015550
      8          1           0        0.468302   -1.451096   -0.072345
      9          1           0        2.015464    1.156874    0.072601
     10          1           0        2.695948   -0.499359   -0.031454
 ---------------------------------------------------------------------

 SCF Done:  E(RB2PLYPD3) =  -155.695645944     A.U. after   11 cycles
 E2(B2PLYPD3) =    -0.2256225344D+00 E(B2PLYPD3) =    -0.15592126847797D+03

 The electronic state is 1-A.
 Alpha  occ. eigenvalues --  -10.62989 -10.62665 -10.61778 -10.60877  -0.92733
 Alpha  occ. eigenvalues --   -0.85149  -0.70234  -0.63841  -0.55055  -0.53829
 Alpha  occ. eigenvalues --   -0.46830  -0.45419  -0.41007  -0.37862  -0.27819
 Alpha virt. eigenvalues --    0.01764   0.07020   0.07459   0.07991   0.09476
 Alpha virt. eigenvalues --    0.11597   0.12500   0.14617   0.15927   0.16357
 Alpha virt. eigenvalues --    0.18865   0.20487   0.21694   0.22646   0.23662

 Mulliken charges:
               1
     1  C   -0.168400
     2  C   -0.029785
     3  C   -0.039377
     4  C   -0.173566
     5  H    0.078123
     6  H    0.061465
     7  H    0.052514
     8  H    0.061008
     9  H    0.067652
    10  H    0.090366
 Sum of Mulliken charges =   0.00000

 Dipole moment (field-independent basis, Debye):
    X=             -0.0138    Y=             -0.0131    Z=              0.0562  Tot=              0.0593
 Quadrupole moment (field-independent basis, Debye-Ang):
   XX=            -23.2187   YY=            -23.2044   ZZ=            -29.2261
   XY=              0.0557   XZ=             -0.1688   YZ=             -0.0586

 1\1\GINC-NODE40\SP\RB2PLYPD3-FC\def2QZVP\C4H6\BOITTIER\26-Aug-2020\0\\
 #p B2PLYPD3/Def2QZVP\\butadiene\\0,1\C,0,-3.837656,0.226113,0.016578\C
 ,0,-2.731649,-0.508405,0.041211\C,0,-1.378587,0.064551,0.033626\C,0,-0
 .24305,-0.643523,0.015974\H,0,-4.849187,-0.206531,0.084962\H,0,-3.8453
 27,1.30565,-0.195903\H,0,-2.904357,-1.615331,0.089984\H,0,-1.339475,1.
 132522,0.047847\H,0,-0.275275,-1.710219,-0.002449\H,0,0.686053,-0.1968
 09,0.046878\\Version=ES64L-G09RevD.01\State=1-A\HF=-155.6956459\MP2=-1
 55.9212685\RMSD=6.234e-09\PG=C01 [X(C4H6)]\\@

 Normal termination of Gaussian 09 at Wed Aug 26 08:45:44 2020.
