 Gaussian 09, Revision D.01,
 Gaussian 09:  ES64L-G09RevD.01 24-Apr-2013

 --------------------
 #p B2PLYPD3/Def2QZVP
 --------------------

 ---------
 butadiene
 ---------
 Symbolic Z-matrix:
 Charge =  0 Multiplicity = 1

                         Standard orientation:
 ---------------------------------------------------------------------
 Center     Atomic      Atomic             Coordinates (Angstroms)
 Number     Number       Type             X           Y           Z
 ---------------------------------------------------------------------
      1          6           0        1.879862   -0.144055   -0.033666
      2          6           0        0.632227    0.451330    0.019665
      3          6           0       -0.603831   -0.345886    0.107337
      4          6           0       -1.888910    0.059046   -0.075622
      5          1           0        2.735293    0.498190   -0.014214
      6          1           0        1.970063   -1.281157   -0.085735
      7          1           0        0.452739    1.488902    0.020898
      8          1           0       -0.421944   -1.350906   -0.017633
      9          1           0       -2.114579    1.084974    0.002489
     10          1           0       -2.737660   -0.562617   -0.012090
 ---------------------------------------------------------------------

 SCF Done:  E(RB2PLYPD3) =  -155.681321331     A.U. after   12 cycles
 E2(B2PLYPD3) =    -0.2275530608D+00 E(B2PLYPD3) =    -0.15590887439146D+03

 The electronic state is 1-A.
 Alpha  occ. eigenvalues --  -10.63354 -10.63173 -10.62295 -10.61335  -0.92297
 Alpha  occ. eigenvalues --   -0.84278  -0.70963  -0.64951  -0.54757  -0.53220
 Alpha  occ. eigenvalues --   -0.47096  -0.45926  -0.41283  -0.37256  -0.27324
 Alpha virt. eigenvalues --    0.00589   0.06940   0.07493   0.08342   0.08970
 Alpha virt. eigenvalues --    0.11643   0.12472   0.14546   0.15514   0.16185
 Alpha virt. eigenvalues --    0.18789   0.19591   0.22220   0.23004   0.23697

 Mulliken charges:
               1
     1  C   -0.177805
     2  C   -0.050646
     3  C   -0.033857
     4  C   -0.169206
     5  H    0.094353
     6  H    0.073613
     7  H    0.063091
     8  H    0.062539
     9  H    0.055320
    10  H    0.082598
 Sum of Mulliken charges =   0.00000

 Dipole moment (field-independent basis, Debye):
    X=              0.0332    Y=              0.0418    Z=             -0.0039  Tot=              0.0535
 Quadrupole moment (field-independent basis, Debye-Ang):
   XX=            -23.2297   YY=            -23.2591   ZZ=            -29.4544
   XY=             -0.1891   XZ=             -0.1194   YZ=              0.2191

 1\1\GINC-NODE37\SP\RB2PLYPD3-FC\def2QZVP\C4H6\BOITTIER\26-Aug-2020\0\\
 #p B2PLYPD3/Def2QZVP\\butadiene\\0,1\C,0,-3.872096,0.265253,-0.02503\C
 ,0,-2.752095,-0.541732,0.066043\C,0,-1.391833,0.022746,0.112206\C,0,-0
 .202307,-0.617339,-0.043334\H,0,-4.829254,-0.20976,0.028165\H,0,-3.755
 905,1.395156,-0.141937\H,0,-2.762862,-1.592904,0.126825\H,0,-1.390184,
 1.035398,-0.07027\H,0,-0.165003,-1.661077,0.093687\H,0,0.745156,-0.156
 642,-0.012531\\Version=ES64L-G09RevD.01\State=1-A\HF=-155.6813213\MP2=
 -155.9088744\RMSD=4.040e-09\PG=C01 [X(C4H6)]\\@

 Normal termination of Gaussian 09 at Wed Aug 26 12:46:59 2020.
