 Gaussian 09, Revision D.01,
 Gaussian 09:  ES64L-G09RevD.01 24-Apr-2013

 --------------------
 #p B2PLYPD3/Def2QZVP
 --------------------

 ---------
 butadiene
 ---------
 Symbolic Z-matrix:
 Charge =  0 Multiplicity = 1

                         Standard orientation:
 ---------------------------------------------------------------------
 Center     Atomic      Atomic             Coordinates (Angstroms)
 Number     Number       Type             X           Y           Z
 ---------------------------------------------------------------------
      1          6           0        1.840777   -0.121763    0.004767
      2          6           0        0.606079    0.410224   -0.006171
      3          6           0       -0.611580   -0.394216   -0.028095
      4          6           0       -1.845517    0.100708    0.012842
      5          1           0        2.687098    0.524707    0.082578
      6          1           0        2.023960   -1.166823    0.004381
      7          1           0        0.495126    1.500402   -0.044703
      8          1           0       -0.438735   -1.441954   -0.018630
      9          1           0       -2.037058    1.165362   -0.006682
     10          1           0       -2.668947   -0.551411    0.082997
 ---------------------------------------------------------------------

 SCF Done:  E(RB2PLYPD3) =  -155.699791213     A.U. after   11 cycles
 E2(B2PLYPD3) =    -0.2253688174D+00 E(B2PLYPD3) =    -0.15592516003042D+03

 The electronic state is 1-A.
 Alpha  occ. eigenvalues --  -10.62718 -10.62179 -10.61241 -10.61108  -0.92895
 Alpha  occ. eigenvalues --   -0.85038  -0.70512  -0.64288  -0.54782  -0.54156
 Alpha  occ. eigenvalues --   -0.46681  -0.46260  -0.41263  -0.37920  -0.27644
 Alpha virt. eigenvalues --    0.01728   0.07032   0.07484   0.08167   0.09556
 Alpha virt. eigenvalues --    0.11721   0.12422   0.14893   0.15811   0.16143
 Alpha virt. eigenvalues --    0.18820   0.20476   0.21727   0.23077   0.23866

 Mulliken charges:
               1
     1  C   -0.180706
     2  C   -0.029883
     3  C   -0.033666
     4  C   -0.176770
     5  H    0.084407
     6  H    0.068889
     7  H    0.054033
     8  H    0.057949
     9  H    0.068526
    10  H    0.087220
 Sum of Mulliken charges =   0.00000

 Dipole moment (field-independent basis, Debye):
    X=              0.0062    Y=             -0.0232    Z=              0.0685  Tot=              0.0726
 Quadrupole moment (field-independent basis, Debye-Ang):
   XX=            -23.5362   YY=            -22.9873   ZZ=            -29.2073
   XY=             -0.2578   XZ=             -0.0078   YZ=             -0.0624

 1\1\GINC-NODE01\SP\RB2PLYPD3-FC\def2QZVP\C4H6\BOITTIER\26-Aug-2020\0\\
 #p B2PLYPD3/Def2QZVP\\butadiene\\0,1\C,0,-3.841495,0.23829,0.025379\C,
 0,-2.723862,-0.509031,0.029257\C,0,-1.380509,0.06033,-0.009855\C,0,-0.
 256759,-0.64918,0.044995\H,0,-4.790861,-0.241823,0.117208\H,0,-3.83200
 3,1.29893,-0.000321\H,0,-2.812675,-1.601846,0.017008\H,0,-1.360338,1.1
 2196,-0.025754\H,0,-0.26164,-1.731074,0.051274\H,0,0.671518,-0.155832,
 0.100915\\Version=ES64L-G09RevD.01\State=1-A\HF=-155.6997912\MP2=-155.
 92516\RMSD=5.073e-09\PG=C01 [X(C4H6)]\\@

 Normal termination of Gaussian 09 at Wed Aug 26 20:47:03 2020.
