 Gaussian 09, Revision D.01,
 Gaussian 09:  ES64L-G09RevD.01 24-Apr-2013

 --------------------
 #p B2PLYPD3/Def2QZVP
 --------------------

 ---------
 butadiene
 ---------
 Symbolic Z-matrix:
 Charge =  0 Multiplicity = 1

                         Standard orientation:
 ---------------------------------------------------------------------
 Center     Atomic      Atomic             Coordinates (Angstroms)
 Number     Number       Type             X           Y           Z
 ---------------------------------------------------------------------
      1          6           0        1.828464   -0.118163    0.008771
      2          6           0        0.601040    0.405547   -0.029241
      3          6           0       -0.607669   -0.402373   -0.019549
      4          6           0       -1.832328    0.109618    0.024425
      5          1           0        2.713970    0.527156    0.073205
      6          1           0        1.991024   -1.185433    0.001303
      7          1           0        0.516195    1.485144   -0.000284
      8          1           0       -0.466280   -1.454102    0.023850
      9          1           0       -1.985201    1.166688    0.005899
     10          1           0       -2.706756   -0.507221   -0.010410
 ---------------------------------------------------------------------

 SCF Done:  E(RB2PLYPD3) =  -155.700685999     A.U. after   11 cycles
 E2(B2PLYPD3) =    -0.2253171286D+00 E(B2PLYPD3) =    -0.15592600312721D+03

 The electronic state is 1-A.
 Alpha  occ. eigenvalues --  -10.62404 -10.62166 -10.61550 -10.61064  -0.93141
 Alpha  occ. eigenvalues --   -0.85041  -0.70051  -0.64469  -0.54556  -0.54264
 Alpha  occ. eigenvalues --   -0.46578  -0.45712  -0.41358  -0.38168  -0.27709
 Alpha virt. eigenvalues --    0.01883   0.07022   0.07496   0.08076   0.09557
 Alpha virt. eigenvalues --    0.11740   0.12496   0.14740   0.15835   0.16218
 Alpha virt. eigenvalues --    0.18772   0.20282   0.21738   0.23023   0.23980

 Mulliken charges:
               1
     1  C   -0.177146
     2  C   -0.028948
     3  C   -0.034449
     4  C   -0.173210
     5  H    0.082154
     6  H    0.065826
     7  H    0.055983
     8  H    0.059908
     9  H    0.065635
    10  H    0.084247
 Sum of Mulliken charges =   0.00000

 Dipole moment (field-independent basis, Debye):
    X=             -0.0050    Y=             -0.0054    Z=              0.0475  Tot=              0.0481
 Quadrupole moment (field-independent basis, Debye-Ang):
   XX=            -23.5491   YY=            -23.0309   ZZ=            -29.1993
   XY=             -0.0975   XZ=              0.2475   YZ=              0.0355

 1\1\GINC-NODE29\SP\RB2PLYPD3-FC\def2QZVP\C4H6\BOITTIER\26-Aug-2020\0\\
 #p B2PLYPD3/Def2QZVP\\butadiene\\0,1\C,0,-3.831198,0.227994,0.032114\C
 ,0,-2.717389,-0.50768,0.009763\C,0,-1.383693,0.070974,-0.005134\C,0,-0
 .270055,-0.650246,0.05411\H,0,-4.817424,-0.246354,0.116143\H,0,-3.8003
 99,1.30643,-0.007571\H,0,-2.826734,-1.583702,0.07131\H,0,-1.33456,1.13
 185,0.006492\H,0,-0.308706,-1.717691,0.067506\H,0,0.700345,-0.201047,0
 .000529\\Version=ES64L-G09RevD.01\State=1-A\HF=-155.700686\MP2=-155.92
 60031\RMSD=3.001e-09\PG=C01 [X(C4H6)]\\@

 Normal termination of Gaussian 09 at Wed Aug 26 16:03:38 2020.
