 Gaussian 09, Revision D.01,
 Gaussian 09:  ES64L-G09RevD.01 24-Apr-2013

 --------------------
 #p B2PLYPD3/Def2QZVP
 --------------------

 ---------
 butadiene
 ---------
 Symbolic Z-matrix:
 Charge =  0 Multiplicity = 1

                         Standard orientation:
 ---------------------------------------------------------------------
 Center     Atomic      Atomic             Coordinates (Angstroms)
 Number     Number       Type             X           Y           Z
 ---------------------------------------------------------------------
      1          6           0       -1.844582    0.115962   -0.037489
      2          6           0       -0.618929   -0.412680    0.024830
      3          6           0        0.607311    0.422513    0.066808
      4          6           0        1.853516   -0.121321   -0.054412
      5          1           0       -2.676709   -0.557891   -0.084982
      6          1           0       -1.995043    1.190455   -0.012553
      7          1           0       -0.508145   -1.465033    0.112986
      8          1           0        0.436851    1.478741    0.045478
      9          1           0        1.991836   -1.179289    0.015162
     10          1           0        2.767315    0.506174   -0.074511
 ---------------------------------------------------------------------

 SCF Done:  E(RB2PLYPD3) =  -155.696009094     A.U. after   11 cycles
 E2(B2PLYPD3) =    -0.2263851851D+00 E(B2PLYPD3) =    -0.15592239427900D+03

 The electronic state is 1-A.
 Alpha  occ. eigenvalues --  -10.63116 -10.62442 -10.62138 -10.61384  -0.92432
 Alpha  occ. eigenvalues --   -0.84528  -0.69799  -0.64609  -0.54317  -0.53581
 Alpha  occ. eigenvalues --   -0.46504  -0.46173  -0.41362  -0.37456  -0.27529
 Alpha virt. eigenvalues --    0.01633   0.06995   0.07460   0.08104   0.09052
 Alpha virt. eigenvalues --    0.11706   0.12398   0.14616   0.15575   0.16339
 Alpha virt. eigenvalues --    0.18772   0.19940   0.21677   0.23187   0.24111

 Mulliken charges:
               1
     1  C   -0.181578
     2  C   -0.029052
     3  C   -0.048085
     4  C   -0.172344
     5  H    0.085778
     6  H    0.069502
     7  H    0.061030
     8  H    0.063252
     9  H    0.070625
    10  H    0.080872
 Sum of Mulliken charges =   0.00000

 Dipole moment (field-independent basis, Debye):
    X=             -0.0218    Y=             -0.0274    Z=              0.0718  Tot=              0.0799
 Quadrupole moment (field-independent basis, Debye-Ang):
   XX=            -23.7430   YY=            -22.9127   ZZ=            -29.4012
   XY=             -0.1613   XZ=              0.0088   YZ=             -0.1244

 1\1\GINC-NODE17\SP\RB2PLYPD3-FC\def2QZVP\C4H6\BOITTIER\26-Aug-2020\0\\
 #p B2PLYPD3/Def2QZVP\\butadiene\\0,1\C,0,-3.84666,0.224959,-0.020188\C
 ,0,-2.734081,-0.510335,0.063971\C,0,-1.378843,0.094744,0.077558\C,0,-0
 .249583,-0.665859,-0.021096\H,0,-4.785429,-0.291658,-0.044457\H,0,-3.8
 03816,1.309272,-0.03515\H,0,-2.811517,-1.561688,0.191055\H,0,-1.359137
 ,1.162954,0.016995\H,0,-0.301004,-1.728305,0.087679\H,0,0.761015,-0.21
 1812,-0.062505\\Version=ES64L-G09RevD.01\State=1-A\HF=-155.6960091\MP2
 =-155.9223943\RMSD=7.930e-09\PG=C01 [X(C4H6)]\\@

 Normal termination of Gaussian 09 at Wed Aug 26 09:22:07 2020.
