 Gaussian 09, Revision D.01,
 Gaussian 09:  ES64L-G09RevD.01 24-Apr-2013

 --------------------
 #p B2PLYPD3/Def2QZVP
 --------------------

 ---------
 butadiene
 ---------
 Symbolic Z-matrix:
 Charge =  0 Multiplicity = 1

                         Standard orientation:
 ---------------------------------------------------------------------
 Center     Atomic      Atomic             Coordinates (Angstroms)
 Number     Number       Type             X           Y           Z
 ---------------------------------------------------------------------
      1          6           0        1.877356    0.091745    0.036282
      2          6           0        0.643423   -0.366015   -0.094437
      3          6           0       -0.632936    0.399524   -0.079634
      4          6           0       -1.854086   -0.138068    0.091533
      5          1           0        2.772277   -0.535143    0.219344
      6          1           0        1.853799    1.271023    0.046040
      7          1           0        0.474723   -1.481623   -0.055996
      8          1           0       -0.522048    1.488255    0.068969
      9          1           0       -2.018896   -1.170431    0.051916
     10          1           0       -2.762398    0.504801   -0.052745
 ---------------------------------------------------------------------

 SCF Done:  E(RB2PLYPD3) =  -155.678267938     A.U. after   12 cycles
 E2(B2PLYPD3) =    -0.2276107208D+00 E(B2PLYPD3) =    -0.15590587865910D+03

 The electronic state is 1-A.
 Alpha  occ. eigenvalues --  -10.63533 -10.63162 -10.62911 -10.61979  -0.92476
 Alpha  occ. eigenvalues --   -0.85101  -0.69539  -0.62978  -0.54630  -0.52691
 Alpha  occ. eigenvalues --   -0.47397  -0.44364  -0.39800  -0.37725  -0.28244
 Alpha virt. eigenvalues --    0.01313   0.06839   0.07227   0.07788   0.09322
 Alpha virt. eigenvalues --    0.11661   0.12351   0.14147   0.15292   0.16054
 Alpha virt. eigenvalues --    0.18299   0.19166   0.21877   0.23122   0.23692

 Mulliken charges:
               1
     1  C   -0.168410
     2  C   -0.021899
     3  C   -0.035770
     4  C   -0.164584
     5  H    0.104958
     6  H    0.050396
     7  H    0.035876
     8  H    0.052857
     9  H    0.067595
    10  H    0.078981
 Sum of Mulliken charges =   0.00000

 Dipole moment (field-independent basis, Debye):
    X=             -0.0362    Y=             -0.1113    Z=              0.1415  Tot=              0.1837
 Quadrupole moment (field-independent basis, Debye-Ang):
   XX=            -23.5003   YY=            -23.5642   ZZ=            -29.4283
   XY=             -0.3319   XZ=              0.8254   YZ=             -0.0764

 1\1\GINC-NODE20\SP\RB2PLYPD3-FC\def2QZVP\C4H6\BOITTIER\26-Aug-2020\0\\
 #p B2PLYPD3/Def2QZVP\\butadiene\\0,1\C,0,-3.883129,0.191151,-0.033394\
 C,0,-2.74424,-0.463771,0.119025\C,0,-1.357189,0.075463,0.092995\C,0,-0
 .243483,-0.664456,-0.054274\H,0,-4.870285,-0.28118,-0.206053\H,0,-3.66
 1363,1.34892,-0.075077\H,0,-2.765639,-1.592494,0.112242\H,0,-1.282797,
 1.162722,-0.086024\H,0,-0.254924,-1.708305,0.014675\H,0,0.759673,-0.17
 9721,0.079283\\Version=ES64L-G09RevD.01\State=1-A\HF=-155.6782679\MP2=
 -155.9058787\RMSD=3.130e-09\PG=C01 [X(C4H6)]\\@

 Normal termination of Gaussian 09 at Wed Aug 26 15:13:27 2020.
