 Gaussian 09, Revision D.01,
 Gaussian 09:  ES64L-G09RevD.01 24-Apr-2013

 --------------------
 #p B2PLYPD3/Def2QZVP
 --------------------

 ---------
 butadiene
 ---------
 Symbolic Z-matrix:
 Charge =  0 Multiplicity = 1

                         Standard orientation:
 ---------------------------------------------------------------------
 Center     Atomic      Atomic             Coordinates (Angstroms)
 Number     Number       Type             X           Y           Z
 ---------------------------------------------------------------------
      1          6           0       -1.839753    0.141517    0.050354
      2          6           0       -0.638535   -0.404050   -0.083907
      3          6           0        0.611613    0.332845   -0.047487
      4          6           0        1.841133   -0.116120    0.089086
      5          1           0       -2.760195   -0.494716    0.203676
      6          1           0       -1.893255    1.270746   -0.015622
      7          1           0       -0.618283   -1.559903   -0.083749
      8          1           0        0.554085    1.456235   -0.136075
      9          1           0        2.250427   -1.043467   -0.064828
     10          1           0        2.620473    0.645953    0.048324
 ---------------------------------------------------------------------

 SCF Done:  E(RB2PLYPD3) =  -155.679788791     A.U. after   11 cycles
 E2(B2PLYPD3) =    -0.2265805413D+00 E(B2PLYPD3) =    -0.15590636933210D+03

 The electronic state is 1-A.
 Alpha  occ. eigenvalues --  -10.63203 -10.63055 -10.62666 -10.60615  -0.93015
 Alpha  occ. eigenvalues --   -0.85529  -0.70045  -0.62824  -0.55081  -0.53275
 Alpha  occ. eigenvalues --   -0.46784  -0.44321  -0.40458  -0.37802  -0.28153
 Alpha virt. eigenvalues --    0.01636   0.06756   0.07142   0.07697   0.09734
 Alpha virt. eigenvalues --    0.11410   0.12424   0.14866   0.15681   0.16170
 Alpha virt. eigenvalues --    0.18529   0.20034   0.21291   0.22838   0.24214

 Mulliken charges:
               1
     1  C   -0.161980
     2  C   -0.034129
     3  C   -0.018451
     4  C   -0.160174
     5  H    0.090802
     6  H    0.063051
     7  H    0.045296
     8  H    0.043552
     9  H    0.071249
    10  H    0.060784
 Sum of Mulliken charges =   0.00000

 Dipole moment (field-independent basis, Debye):
    X=             -0.0479    Y=             -0.0409    Z=             -0.1532  Tot=              0.1656
 Quadrupole moment (field-independent basis, Debye-Ang):
   XX=            -23.4411   YY=            -23.3433   ZZ=            -29.2399
   XY=              0.0726   XZ=             -0.7341   YZ=             -0.1492

 1\1\GINC-NODE02\SP\RB2PLYPD3-FC\def2QZVP\C4H6\BOITTIER\26-Aug-2020\0\\
 #p B2PLYPD3/Def2QZVP\\butadiene\\0,1\C,0,-3.836824,0.241656,0.075917\C
 ,0,-2.746513,-0.50336,-0.045611\C,0,-1.389408,0.01181,-0.036787\C,0,-0
 .252449,-0.634669,0.109264\H,0,-4.85027,-0.224495,0.252395\H,0,-3.6990
 17,1.361109,-0.02511\H,0,-2.92218,-1.645392,-0.009417\H,0,-1.256758,1.
 125511,-0.160217\H,0,-0.007396,-1.622174,-0.017094\H,0,0.644235,-0.017
 251,0.041874\\Version=ES64L-G09RevD.01\State=1-A\HF=-155.6797888\MP2=-
 155.9063693\RMSD=5.666e-09\PG=C01 [X(C4H6)]\\@

 Normal termination of Gaussian 09 at Wed Aug 26 12:18:57 2020.
