 Gaussian 09, Revision D.01,
 Gaussian 09:  ES64L-G09RevD.01 24-Apr-2013

 --------------------
 #p B2PLYPD3/Def2QZVP
 --------------------

 ---------
 butadiene
 ---------
 Symbolic Z-matrix:
 Charge =  0 Multiplicity = 1

                         Standard orientation:
 ---------------------------------------------------------------------
 Center     Atomic      Atomic             Coordinates (Angstroms)
 Number     Number       Type             X           Y           Z
 ---------------------------------------------------------------------
      1          6           0        1.855244   -0.140771    0.055249
      2          6           0        0.611797    0.434599   -0.063851
      3          6           0       -0.597337   -0.402485   -0.067369
      4          6           0       -1.853050    0.089680    0.024395
      5          1           0        2.736123    0.548118    0.219664
      6          1           0        2.043063   -1.172049   -0.068682
      7          1           0        0.479261    1.537915   -0.148113
      8          1           0       -0.511796   -1.467821    0.007345
      9          1           0       -2.064025    1.100459    0.133388
     10          1           0       -2.782556   -0.432760    0.165852
 ---------------------------------------------------------------------

 SCF Done:  E(RB2PLYPD3) =  -155.685582380     A.U. after   11 cycles
 E2(B2PLYPD3) =    -0.2273647090D+00 E(B2PLYPD3) =    -0.15591294708918D+03

 The electronic state is 1-A.
 Alpha  occ. eigenvalues --  -10.63973 -10.63004 -10.62517 -10.61105  -0.92251
 Alpha  occ. eigenvalues --   -0.84244  -0.70457  -0.64625  -0.54262  -0.53839
 Alpha  occ. eigenvalues --   -0.46561  -0.45387  -0.41402  -0.37386  -0.27124
 Alpha virt. eigenvalues --    0.01096   0.06933   0.07517   0.07943   0.08814
 Alpha virt. eigenvalues --    0.11520   0.12624   0.14457   0.15796   0.16535
 Alpha virt. eigenvalues --    0.18890   0.20071   0.22001   0.23034   0.23526

 Mulliken charges:
               1
     1  C   -0.180465
     2  C   -0.046847
     3  C   -0.031979
     4  C   -0.165497
     5  H    0.078147
     6  H    0.085121
     7  H    0.068719
     8  H    0.064489
     9  H    0.054602
    10  H    0.073709
 Sum of Mulliken charges =   0.00000

 Dipole moment (field-independent basis, Debye):
    X=             -0.0165    Y=              0.0225    Z=              0.1776  Tot=              0.1798
 Quadrupole moment (field-independent basis, Debye-Ang):
   XX=            -23.3837   YY=            -23.1590   ZZ=            -29.3861
   XY=             -0.4325   XZ=             -0.4000   YZ=              0.0870

 1\1\GINC-NODE17\SP\RB2PLYPD3-FC\def2QZVP\C4H6\BOITTIER\26-Aug-2020\0\\
 #p B2PLYPD3/Def2QZVP\\butadiene\\0,1\C,0,-3.85025,0.254756,0.072217\C,
 0,-2.729955,-0.537094,-0.02426\C,0,-1.390448,0.069549,-0.045065\C,0,-0
 .243191,-0.636647,0.066961\H,0,-4.840273,-0.260319,0.251381\H,0,-3.850
 323,1.299029,-0.081608\H,0,-2.797165,-1.648262,-0.076804\H,0,-1.283804
 ,1.13468,-0.000756\H,0,-0.216664,-1.665334,0.205398\H,0,0.764851,-0.28
 5232,0.198472\\Version=ES64L-G09RevD.01\State=1-A\HF=-155.6855824\MP2=
 -155.9129471\RMSD=8.530e-09\PG=C01 [X(C4H6)]\\@

 Normal termination of Gaussian 09 at Wed Aug 26 12:47:41 2020.
