 Gaussian 09, Revision D.01,
 Gaussian 09:  ES64L-G09RevD.01 24-Apr-2013

 --------------------
 #p B2PLYPD3/Def2QZVP
 --------------------

 ---------
 butadiene
 ---------
 Symbolic Z-matrix:
 Charge =  0 Multiplicity = 1

                         Standard orientation:
 ---------------------------------------------------------------------
 Center     Atomic      Atomic             Coordinates (Angstroms)
 Number     Number       Type             X           Y           Z
 ---------------------------------------------------------------------
      1          6           0        1.832999    0.114212    0.004445
      2          6           0        0.615926   -0.438729   -0.011440
      3          6           0       -0.590441    0.377479   -0.051672
      4          6           0       -1.845303   -0.083015    0.027017
      5          1           0        2.767649   -0.444986    0.167011
      6          1           0        1.975143    1.224523    0.003879
      7          1           0        0.434931   -1.473802   -0.078340
      8          1           0       -0.450031    1.472651   -0.023661
      9          1           0       -2.085151   -1.143208   -0.012032
     10          1           0       -2.721634    0.545140    0.133042
 ---------------------------------------------------------------------

 SCF Done:  E(RB2PLYPD3) =  -155.695485863     A.U. after   11 cycles
 E2(B2PLYPD3) =    -0.2262855757D+00 E(B2PLYPD3) =    -0.15592177143820D+03

 The electronic state is 1-A.
 Alpha  occ. eigenvalues --  -10.62768 -10.62614 -10.62347 -10.61600  -0.92939
 Alpha  occ. eigenvalues --   -0.84617  -0.70111  -0.64248  -0.54874  -0.53200
 Alpha  occ. eigenvalues --   -0.47346  -0.44736  -0.40991  -0.37948  -0.27653
 Alpha virt. eigenvalues --    0.01581   0.06964   0.07347   0.08120   0.09345
 Alpha virt. eigenvalues --    0.11556   0.12533   0.14517   0.15618   0.16405
 Alpha virt. eigenvalues --    0.18873   0.20059   0.22070   0.22713   0.23588

 Mulliken charges:
               1
     1  C   -0.160296
     2  C   -0.043679
     3  C   -0.021471
     4  C   -0.177322
     5  H    0.081379
     6  H    0.060508
     7  H    0.067829
     8  H    0.051527
     9  H    0.057981
    10  H    0.083544
 Sum of Mulliken charges =   0.00000

 Dipole moment (field-independent basis, Debye):
    X=              0.0242    Y=             -0.0321    Z=              0.1273  Tot=              0.1335
 Quadrupole moment (field-independent basis, Debye-Ang):
   XX=            -23.2698   YY=            -23.3131   ZZ=            -29.2881
   XY=              0.3581   XZ=              0.0990   YZ=              0.1117

 1\1\GINC-NODE10\SP\RB2PLYPD3-FC\def2QZVP\C4H6\BOITTIER\26-Aug-2020\0\\
 #p B2PLYPD3/Def2QZVP\\butadiene\\0,1\C,0,-3.830317,0.237267,0.006466\C
 ,0,-2.73585,-0.529295,0.048743\C,0,-1.399615,0.051659,0.058981\C,0,-0.
 251416,-0.634956,0.003075\H,0,-4.852715,-0.146366,-0.135761\H,0,-3.765
 521,1.353834,-0.039079\H,0,-2.748289,-1.576368,0.158718\H,0,-1.336036,
 1.151868,-0.014488\H,0,-0.210766,-1.718681,0.086432\H,0,0.725119,-0.18
 3872,-0.126073\\Version=ES64L-G09RevD.01\State=1-A\HF=-155.6954859\MP2
 =-155.9217714\RMSD=5.015e-09\PG=C01 [X(C4H6)]\\@

 Normal termination of Gaussian 09 at Wed Aug 26 09:25:53 2020.
