 Gaussian 09, Revision D.01,
 Gaussian 09:  ES64L-G09RevD.01 24-Apr-2013

 --------------------
 #p B2PLYPD3/Def2QZVP
 --------------------

 ---------
 butadiene
 ---------
 Symbolic Z-matrix:
 Charge =  0 Multiplicity = 1

                         Standard orientation:
 ---------------------------------------------------------------------
 Center     Atomic      Atomic             Coordinates (Angstroms)
 Number     Number       Type             X           Y           Z
 ---------------------------------------------------------------------
      1          6           0       -1.841401   -0.117977    0.035311
      2          6           0       -0.608629    0.404019   -0.027456
      3          6           0        0.603899   -0.384858   -0.026709
      4          6           0        1.840870    0.105327    0.016948
      5          1           0       -2.706106    0.498216    0.001110
      6          1           0       -2.004213   -1.188677    0.000654
      7          1           0       -0.518816    1.513237   -0.016887
      8          1           0        0.505536   -1.467259   -0.057577
      9          1           0        2.060315    1.159490    0.004134
     10          1           0        2.694849   -0.554076    0.080002
 ---------------------------------------------------------------------

 SCF Done:  E(RB2PLYPD3) =  -155.699979165     A.U. after   11 cycles
 E2(B2PLYPD3) =    -0.2257406774D+00 E(B2PLYPD3) =    -0.15592571984221D+03

 The electronic state is 1-A.
 Alpha  occ. eigenvalues --  -10.62884 -10.62471 -10.61391 -10.61362  -0.92969
 Alpha  occ. eigenvalues --   -0.85021  -0.70354  -0.63792  -0.54662  -0.54157
 Alpha  occ. eigenvalues --   -0.46581  -0.45471  -0.41192  -0.38156  -0.27661
 Alpha virt. eigenvalues --    0.01626   0.07015   0.07415   0.07980   0.09703
 Alpha virt. eigenvalues --    0.11625   0.12447   0.14762   0.15829   0.16327
 Alpha virt. eigenvalues --    0.18847   0.20229   0.21872   0.22616   0.23843

 Mulliken charges:
               1
     1  C   -0.171890
     2  C   -0.033060
     3  C   -0.027189
     4  C   -0.174606
     5  H    0.086080
     6  H    0.064140
     7  H    0.051857
     8  H    0.054465
     9  H    0.067088
    10  H    0.083116
 Sum of Mulliken charges =   0.00000

 Dipole moment (field-independent basis, Debye):
    X=             -0.0016    Y=             -0.0005    Z=             -0.0313  Tot=              0.0313
 Quadrupole moment (field-independent basis, Debye-Ang):
   XX=            -23.3844   YY=            -23.1001   ZZ=            -29.2641
   XY=              0.0976   XZ=              0.2277   YZ=              0.0029

 1\1\GINC-NODE38\SP\RB2PLYPD3-FC\def2QZVP\C4H6\BOITTIER\26-Aug-2020\0\\
 #p B2PLYPD3/Def2QZVP\\butadiene\\0,1\C,0,-3.842281,0.229392,-0.013901\
 C,0,-2.722218,-0.502426,0.063852\C,0,-1.388336,0.05682,0.04029\C,0,-0.
 259014,-0.647483,0.010745\H,0,-4.802926,-0.221202,0.038103\H,0,-3.8111
 13,1.3125,-0.010148\H,0,-2.831963,-1.609693,0.085292\H,0,-1.291686,1.1
 39816,0.039915\H,0,-0.231261,-1.723095,0.053964\H,0,0.698643,-0.153294
 ,-0.071347\\Version=ES64L-G09RevD.01\State=1-A\HF=-155.6999792\MP2=-15
 5.9257198\RMSD=4.801e-09\PG=C01 [X(C4H6)]\\@

 Normal termination of Gaussian 09 at Wed Aug 26 14:23:55 2020.
