 Gaussian 09, Revision D.01,
 Gaussian 09:  ES64L-G09RevD.01 24-Apr-2013

 --------------------
 #p B2PLYPD3/Def2QZVP
 --------------------

 ---------
 butadiene
 ---------
 Symbolic Z-matrix:
 Charge =  0 Multiplicity = 1

                         Standard orientation:
 ---------------------------------------------------------------------
 Center     Atomic      Atomic             Coordinates (Angstroms)
 Number     Number       Type             X           Y           Z
 ---------------------------------------------------------------------
      1          6           0       -1.818940   -0.112786    0.012531
      2          6           0       -0.572568    0.433369   -0.061580
      3          6           0        0.553195   -0.380432   -0.046037
      4          6           0        1.825534    0.066927    0.051952
      5          1           0       -2.694497    0.481192    0.095750
      6          1           0       -1.921991   -1.196899    0.250076
      7          1           0       -0.443868    1.541818   -0.149275
      8          1           0        0.292835   -1.408122   -0.078055
      9          1           0        2.145625    1.040938    0.315423
     10          1           0        2.698573   -0.501398   -0.175119
 ---------------------------------------------------------------------

 SCF Done:  E(RB2PLYPD3) =  -155.682756940     A.U. after   11 cycles
 E2(B2PLYPD3) =    -0.2274497816D+00 E(B2PLYPD3) =    -0.15591020672202D+03

 The electronic state is 1-A.
 Alpha  occ. eigenvalues --  -10.62759 -10.62191 -10.62066 -10.61357  -0.93885
 Alpha  occ. eigenvalues --   -0.84136  -0.71531  -0.64235  -0.55818  -0.53056
 Alpha  occ. eigenvalues --   -0.46815  -0.45319  -0.41948  -0.38155  -0.26578
 Alpha virt. eigenvalues --    0.00378   0.07079   0.07341   0.08069   0.09403
 Alpha virt. eigenvalues --    0.11699   0.12625   0.15190   0.15703   0.16447
 Alpha virt. eigenvalues --    0.18750   0.19617   0.21886   0.22773   0.23190

 Mulliken charges:
               1
     1  C   -0.175596
     2  C   -0.024129
     3  C   -0.025399
     4  C   -0.183921
     5  H    0.085458
     6  H    0.056586
     7  H    0.058663
     8  H    0.065420
     9  H    0.065688
    10  H    0.077229
 Sum of Mulliken charges =   0.00000

 Dipole moment (field-independent basis, Debye):
    X=             -0.0021    Y=              0.0884    Z=              0.1741  Tot=              0.1952
 Quadrupole moment (field-independent basis, Debye-Ang):
   XX=            -23.4259   YY=            -23.5089   ZZ=            -29.0525
   XY=              0.5071   XZ=             -0.5789   YZ=              0.1178

 1\1\GINC-NODE06\SP\RB2PLYPD3-FC\def2QZVP\C4H6\BOITTIER\26-Aug-2020\0\\
 #p B2PLYPD3/Def2QZVP\\butadiene\\0,1\C,0,-3.811435,0.252931,-0.00685\C
 ,0,-2.696864,-0.524593,0.095173\C,0,-1.432948,0.050592,0.055993\C,0,-0
 .273718,-0.641767,-0.017499\H,0,-4.786909,-0.159865,-0.073075\H,0,-3.6
 99392,1.326336,-0.285412\H,0,-2.788767,-1.632563,0.225058\H,0,-1.48585
 4,1.109883,0.047962\H,0,-0.152016,-1.668987,-0.242402\H,0,0.694445,-0.
 24816,0.193419\\Version=ES64L-G09RevD.01\State=1-A\HF=-155.6827569\MP2
 =-155.9102067\RMSD=9.993e-09\PG=C01 [X(C4H6)]\\@

 Normal termination of Gaussian 09 at Wed Aug 26 16:09:14 2020.
