 Gaussian 09, Revision D.01,
 Gaussian 09:  ES64L-G09RevD.01 24-Apr-2013

 --------------------
 #p B2PLYPD3/Def2QZVP
 --------------------

 ---------
 butadiene
 ---------
 Symbolic Z-matrix:
 Charge =  0 Multiplicity = 1

                         Standard orientation:
 ---------------------------------------------------------------------
 Center     Atomic      Atomic             Coordinates (Angstroms)
 Number     Number       Type             X           Y           Z
 ---------------------------------------------------------------------
      1          6           0       -1.851071    0.081633   -0.060459
      2          6           0       -0.583116   -0.375308    0.079740
      3          6           0        0.620490    0.426496    0.040488
      4          6           0        1.816075   -0.117574   -0.063174
      5          1           0       -2.639499   -0.531435   -0.125733
      6          1           0       -2.008573    1.164709   -0.123491
      7          1           0       -0.403531   -1.386255    0.327993
      8          1           0        0.459140    1.461195    0.169333
      9          1           0        1.811119   -1.261679   -0.261331
     10          1           0        2.767075    0.461976    0.033660
 ---------------------------------------------------------------------

 SCF Done:  E(RB2PLYPD3) =  -155.683981288     A.U. after   12 cycles
 E2(B2PLYPD3) =    -0.2261220005D+00 E(B2PLYPD3) =    -0.15591010328867D+03

 The electronic state is 1-A.
 Alpha  occ. eigenvalues --  -10.62533 -10.62257 -10.61817 -10.61057  -0.93367
 Alpha  occ. eigenvalues --   -0.84870  -0.70393  -0.64338  -0.55084  -0.53496
 Alpha  occ. eigenvalues --   -0.47449  -0.45407  -0.41399  -0.37360  -0.27659
 Alpha virt. eigenvalues --    0.01588   0.07106   0.07419   0.08046   0.09368
 Alpha virt. eigenvalues --    0.11674   0.12494   0.14441   0.15427   0.16190
 Alpha virt. eigenvalues --    0.18549   0.19664   0.21538   0.22221   0.24237

 Mulliken charges:
               1
     1  C   -0.189367
     2  C   -0.036369
     3  C   -0.029925
     4  C   -0.170859
     5  H    0.094786
     6  H    0.062370
     7  H    0.061553
     8  H    0.059156
     9  H    0.057315
    10  H    0.091340
 Sum of Mulliken charges =   0.00000

 Dipole moment (field-independent basis, Debye):
    X=              0.0019    Y=              0.0539    Z=              0.1122  Tot=              0.1245
 Quadrupole moment (field-independent basis, Debye-Ang):
   XX=            -23.6238   YY=            -23.3803   ZZ=            -29.0597
   XY=              0.1587   XZ=              0.2797   YZ=              0.1363

 1\1\GINC-NODE19\SP\RB2PLYPD3-FC\def2QZVP\C4H6\BOITTIER\26-Aug-2020\0\\
 #p B2PLYPD3/Def2QZVP\\butadiene\\0,1\C,0,-3.858244,0.199758,-0.042621\
 C,0,-2.694826,-0.478058,0.109637\C,0,-1.365335,0.090634,0.063354\C,0,-
 0.288611,-0.66345,-0.027214\H,0,-4.745001,-0.26054,-0.101963\H,0,-3.81
 5899,1.292304,-0.122513\H,0,-2.702576,-1.500841,0.373739\H,0,-1.335835
 ,1.139286,0.176024\H,0,-0.50146,-1.790479,-0.208236\H,0,0.751859,-0.26
 5202,0.064857\\Version=ES64L-G09RevD.01\State=1-A\HF=-155.6839813\MP2=
 -155.9101033\RMSD=3.827e-09\PG=C01 [X(C4H6)]\\@

 Normal termination of Gaussian 09 at Wed Aug 26 13:23:47 2020.
