 Gaussian 09, Revision D.01,
 Gaussian 09:  ES64L-G09RevD.01 24-Apr-2013

 --------------------
 #p B2PLYPD3/Def2QZVP
 --------------------

 ---------
 butadiene
 ---------
 Symbolic Z-matrix:
 Charge =  0 Multiplicity = 1

                         Standard orientation:
 ---------------------------------------------------------------------
 Center     Atomic      Atomic             Coordinates (Angstroms)
 Number     Number       Type             X           Y           Z
 ---------------------------------------------------------------------
      1          6           0        1.833553   -0.113823    0.029047
      2          6           0        0.601744    0.418996   -0.019359
      3          6           0       -0.606293   -0.394912   -0.032717
      4          6           0       -1.833804    0.106027    0.020843
      5          1           0        2.748788    0.474472   -0.017982
      6          1           0        1.937039   -1.195027    0.032706
      7          1           0        0.459126    1.503867   -0.042570
      8          1           0       -0.410051   -1.470135   -0.025451
      9          1           0       -2.025542    1.169178    0.051721
     10          1           0       -2.680562   -0.580087    0.014698
 ---------------------------------------------------------------------

 SCF Done:  E(RB2PLYPD3) =  -155.700040453     A.U. after   11 cycles
 E2(B2PLYPD3) =    -0.2259493633D+00 E(B2PLYPD3) =    -0.15592598981667D+03

 The electronic state is 1-A.
 Alpha  occ. eigenvalues --  -10.62688 -10.62489 -10.61738 -10.61495  -0.92994
 Alpha  occ. eigenvalues --   -0.84807  -0.69946  -0.63975  -0.54432  -0.53761
 Alpha  occ. eigenvalues --   -0.46769  -0.45584  -0.40950  -0.38116  -0.27703
 Alpha virt. eigenvalues --    0.01792   0.07011   0.07306   0.08085   0.09512
 Alpha virt. eigenvalues --    0.11729   0.12406   0.14691   0.15858   0.15983
 Alpha virt. eigenvalues --    0.18734   0.20479   0.21495   0.22951   0.23815

 Mulliken charges:
               1
     1  C   -0.175603
     2  C   -0.029002
     3  C   -0.026708
     4  C   -0.178026
     5  H    0.087192
     6  H    0.060595
     7  H    0.052616
     8  H    0.052590
     9  H    0.071241
    10  H    0.085105
 Sum of Mulliken charges =   0.00000

 Dipole moment (field-independent basis, Debye):
    X=              0.0031    Y=              0.0119    Z=             -0.0247  Tot=              0.0276
 Quadrupole moment (field-independent basis, Debye-Ang):
   XX=            -23.6088   YY=            -23.0813   ZZ=            -29.3155
   XY=             -0.2265   XZ=             -0.1699   YZ=             -0.0225

 1\1\GINC-NODE12\SP\RB2PLYPD3-FC\def2QZVP\C4H6\BOITTIER\26-Aug-2020\0\\
 #p B2PLYPD3/Def2QZVP\\butadiene\\0,1\C,0,-3.834613,0.232695,0.045033\C
 ,0,-2.720359,-0.516371,0.01452\C,0,-1.384451,0.063598,-0.016502\C,0,-0
 .268448,-0.650651,0.054062\H,0,-4.841669,-0.180359,0.010661\H,0,-3.739
 695,1.314399,0.019891\H,0,-2.777498,-1.609315,0.020336\H,0,-1.381823,1
 .156389,-0.03817\H,0,-0.273243,-1.729746,0.11353\H,0,0.688975,-0.13039
 7,0.03249\\Version=ES64L-G09RevD.01\State=1-A\HF=-155.7000405\MP2=-155
 .9259898\RMSD=4.456e-09\PG=C01 [X(C4H6)]\\@

 Normal termination of Gaussian 09 at Wed Aug 26 18:25:49 2020.
