 Gaussian 09, Revision D.01,
 Gaussian 09:  ES64L-G09RevD.01 24-Apr-2013

 --------------------
 #p B2PLYPD3/Def2QZVP
 --------------------

 ---------
 butadiene
 ---------
 Symbolic Z-matrix:
 Charge =  0 Multiplicity = 1

                         Standard orientation:
 ---------------------------------------------------------------------
 Center     Atomic      Atomic             Coordinates (Angstroms)
 Number     Number       Type             X           Y           Z
 ---------------------------------------------------------------------
      1          6           0       -1.830400   -0.116771    0.011917
      2          6           0       -0.594774    0.397684   -0.029382
      3          6           0        0.612650   -0.416900   -0.011422
      4          6           0        1.827527    0.112140    0.001201
      5          1           0       -2.729074    0.498481    0.009090
      6          1           0       -2.004995   -1.141982    0.099765
      7          1           0       -0.523877    1.517221   -0.090571
      8          1           0        0.499699   -1.472859   -0.004455
      9          1           0        1.910287    1.186631    0.218886
     10          1           0        2.757946   -0.444407   -0.066599
 ---------------------------------------------------------------------

 SCF Done:  E(RB2PLYPD3) =  -155.695524322     A.U. after   11 cycles
 E2(B2PLYPD3) =    -0.2257477264D+00 E(B2PLYPD3) =    -0.15592127204872D+03

 The electronic state is 1-A.
 Alpha  occ. eigenvalues --  -10.63001 -10.62309 -10.61539 -10.61111  -0.93067
 Alpha  occ. eigenvalues --   -0.85010  -0.69926  -0.64221  -0.54879  -0.53911
 Alpha  occ. eigenvalues --   -0.46592  -0.45221  -0.41429  -0.37979  -0.27640
 Alpha virt. eigenvalues --    0.01786   0.07029   0.07457   0.07965   0.09370
 Alpha virt. eigenvalues --    0.11648   0.12618   0.14593   0.15885   0.16412
 Alpha virt. eigenvalues --    0.18728   0.20255   0.21770   0.22841   0.23737

 Mulliken charges:
               1
     1  C   -0.176021
     2  C   -0.026465
     3  C   -0.038077
     4  C   -0.168871
     5  H    0.081019
     6  H    0.065626
     7  H    0.053203
     8  H    0.062521
     9  H    0.061987
    10  H    0.085077
 Sum of Mulliken charges =   0.00000

 Dipole moment (field-independent basis, Debye):
    X=             -0.0030    Y=             -0.0753    Z=              0.1294  Tot=              0.1497
 Quadrupole moment (field-independent basis, Debye-Ang):
   XX=            -23.3589   YY=            -23.2307   ZZ=            -29.1778
   XY=             -0.0219   XZ=             -0.0038   YZ=              0.0864

 1\1\GINC-NODE28\SP\RB2PLYPD3-FC\def2QZVP\C4H6\BOITTIER\26-Aug-2020\0\\
 #p B2PLYPD3/Def2QZVP\\butadiene\\0,1\C,0,-3.835655,0.219695,0.004767\C
 ,0,-2.70988,-0.503241,0.060767\C,0,-1.377884,0.085125,0.023967\C,0,-0.
 275268,-0.64986,0.026401\H,0,-4.828658,-0.227307,0.021846\H,0,-3.82715
 4,1.257099,-0.109155\H,0,-2.837156,-1.615861,0.150272\H,0,-1.303039,1.
 143952,-0.009788\H,0,-0.383784,-1.727236,-0.163999\H,0,0.738857,-0.264
 449,0.081452\\Version=ES64L-G09RevD.01\State=1-A\HF=-155.6955243\MP2=-
 155.921272\RMSD=5.685e-09\PG=C01 [X(C4H6)]\\@

 Normal termination of Gaussian 09 at Wed Aug 26 08:44:07 2020.
