 Gaussian 09, Revision D.01,
 Gaussian 09:  ES64L-G09RevD.01 24-Apr-2013

 --------------------
 #p B2PLYPD3/Def2QZVP
 --------------------

 ---------
 butadiene
 ---------
 Symbolic Z-matrix:
 Charge =  0 Multiplicity = 1

                         Standard orientation:
 ---------------------------------------------------------------------
 Center     Atomic      Atomic             Coordinates (Angstroms)
 Number     Number       Type             X           Y           Z
 ---------------------------------------------------------------------
      1          6           0       -1.842961    0.103553    0.019478
      2          6           0       -0.600032   -0.407409   -0.028876
      3          6           0        0.602706    0.436442   -0.055973
      4          6           0        1.824599   -0.122607    0.005024
      5          1           0       -2.689905   -0.547618    0.105117
      6          1           0       -1.941632    1.166506    0.010278
      7          1           0       -0.416918   -1.459753   -0.023539
      8          1           0        0.482968    1.535885    0.058831
      9          1           0        1.948988   -1.221080    0.065264
     10          1           0        2.710625    0.466191    0.146135
 ---------------------------------------------------------------------

 SCF Done:  E(RB2PLYPD3) =  -155.696688477     A.U. after   11 cycles
 E2(B2PLYPD3) =    -0.2263842667D+00 E(B2PLYPD3) =    -0.15592307274340D+03

 The electronic state is 1-A.
 Alpha  occ. eigenvalues --  -10.63088 -10.62520 -10.61827 -10.61268  -0.92732
 Alpha  occ. eigenvalues --   -0.84637  -0.69799  -0.64145  -0.54495  -0.53721
 Alpha  occ. eigenvalues --   -0.46345  -0.45788  -0.41426  -0.37826  -0.27505
 Alpha virt. eigenvalues --    0.01743   0.07082   0.07247   0.08128   0.09080
 Alpha virt. eigenvalues --    0.11759   0.12495   0.14565   0.15658   0.16200
 Alpha virt. eigenvalues --    0.18713   0.20160   0.21612   0.23618   0.23846

 Mulliken charges:
               1
     1  C   -0.182820
     2  C   -0.030047
     3  C   -0.032642
     4  C   -0.172337
     5  H    0.090263
     6  H    0.069815
     7  H    0.057802
     8  H    0.055617
     9  H    0.060814
    10  H    0.083535
 Sum of Mulliken charges =   0.00000

 Dipole moment (field-independent basis, Debye):
    X=              0.0479    Y=             -0.0175    Z=              0.2786  Tot=              0.2833
 Quadrupole moment (field-independent basis, Debye-Ang):
   XX=            -23.8575   YY=            -22.9498   ZZ=            -29.3399
   XY=             -0.0874   XZ=              0.3033   YZ=              0.0610

 1\1\GINC-NODE23\SP\RB2PLYPD3-FC\def2QZVP\C4H6\BOITTIER\26-Aug-2020\0\\
 #p B2PLYPD3/Def2QZVP\\butadiene\\0,1\C,0,-3.844477,0.219592,0.040997\C
 ,0,-2.714486,-0.508777,0.011129\C,0,-1.378985,0.102686,-0.033007\C,0,-
 0.278308,-0.666269,0.047605\H,0,-4.795166,-0.265219,0.140098\H,0,-3.74
 9287,1.282246,0.003657\H,0,-2.724709,-1.576371,0.04468\H,0,-1.297834,1
 .2083,0.052574\H,0,-0.354595,-1.767147,0.137001\H,0,0.699686,-0.243858
 ,0.176964\\Version=ES64L-G09RevD.01\State=1-A\HF=-155.6966885\MP2=-155
 .9230727\RMSD=3.560e-09\PG=C01 [X(C4H6)]\\@

 Normal termination of Gaussian 09 at Wed Aug 26 09:29:51 2020.
