 Gaussian 09, Revision D.01,
 Gaussian 09:  ES64L-G09RevD.01 24-Apr-2013

 --------------------
 #p B2PLYPD3/Def2QZVP
 --------------------

 ---------
 butadiene
 ---------
 Symbolic Z-matrix:
 Charge =  0 Multiplicity = 1

                         Standard orientation:
 ---------------------------------------------------------------------
 Center     Atomic      Atomic             Coordinates (Angstroms)
 Number     Number       Type             X           Y           Z
 ---------------------------------------------------------------------
      1          6           0       -1.825661   -0.118615    0.026751
      2          6           0       -0.603329    0.412159   -0.023744
      3          6           0        0.603129   -0.392079   -0.022014
      4          6           0        1.832487    0.102710    0.018168
      5          1           0       -2.691568    0.496755    0.000416
      6          1           0       -1.997903   -1.198155    0.013418
      7          1           0       -0.490699    1.507990   -0.054007
      8          1           0        0.477580   -1.468242   -0.009561
      9          1           0        1.966857    1.165187    0.074980
     10          1           0        2.695981   -0.528589   -0.020212
 ---------------------------------------------------------------------

 SCF Done:  E(RB2PLYPD3) =  -155.700721446     A.U. after   11 cycles
 E2(B2PLYPD3) =    -0.2253785681D+00 E(B2PLYPD3) =    -0.15592610001390D+03

 The electronic state is 1-A.
 Alpha  occ. eigenvalues --  -10.62657 -10.62187 -10.61373 -10.61017  -0.93151
 Alpha  occ. eigenvalues --   -0.85124  -0.70162  -0.63965  -0.54798  -0.54109
 Alpha  occ. eigenvalues --   -0.46686  -0.45537  -0.41260  -0.38216  -0.27733
 Alpha virt. eigenvalues --    0.01887   0.07062   0.07369   0.08077   0.09651
 Alpha virt. eigenvalues --    0.11723   0.12479   0.14733   0.15849   0.16203
 Alpha virt. eigenvalues --    0.18757   0.20475   0.21666   0.22825   0.23958

 Mulliken charges:
               1
     1  C   -0.173544
     2  C   -0.033743
     3  C   -0.022804
     4  C   -0.178431
     5  H    0.084962
     6  H    0.065172
     7  H    0.052577
     8  H    0.053300
     9  H    0.064015
    10  H    0.088497
 Sum of Mulliken charges =   0.00000

 Dipole moment (field-independent basis, Debye):
    X=             -0.0277    Y=             -0.0075    Z=             -0.0275  Tot=              0.0397
 Quadrupole moment (field-independent basis, Debye-Ang):
   XX=            -23.5225   YY=            -23.0512   ZZ=            -29.2033
   XY=              0.0619   XZ=              0.0857   YZ=              0.0333

 1\1\GINC-NODE28\SP\RB2PLYPD3-FC\def2QZVP\C4H6\BOITTIER\26-Aug-2020\0\\
 #p B2PLYPD3/Def2QZVP\\butadiene\\0,1\C,0,-3.827324,0.229789,-0.007025\
 C,0,-2.72023,-0.510625,0.060031\C,0,-1.388781,0.062976,0.036166\C,0,-0
 .268687,-0.645921,0.011547\H,0,-4.789696,-0.218688,0.036292\H,0,-3.802
 469,1.322632,-0.025161\H,0,-2.806469,-1.607507,0.122159\H,0,-1.318713,
 1.143355,-0.007602\H,0,-0.327911,-1.716419,-0.014309\H,0,0.694453,-0.1
 79491,0.032454\\Version=ES64L-G09RevD.01\State=1-A\HF=-155.7007214\MP2
 =-155.9261\RMSD=4.181e-09\PG=C01 [X(C4H6)]\\@

 Normal termination of Gaussian 09 at Wed Aug 26 13:54:39 2020.
