 Gaussian 09, Revision D.01,
 Gaussian 09:  ES64L-G09RevD.01 24-Apr-2013

 --------------------
 #p B2PLYPD3/Def2QZVP
 --------------------

 ---------
 butadiene
 ---------
 Symbolic Z-matrix:
 Charge =  0 Multiplicity = 1

                         Standard orientation:
 ---------------------------------------------------------------------
 Center     Atomic      Atomic             Coordinates (Angstroms)
 Number     Number       Type             X           Y           Z
 ---------------------------------------------------------------------
      1          6           0       -1.853721    0.129481    0.065819
      2          6           0       -0.603527   -0.430906   -0.035164
      3          6           0        0.575603    0.350514   -0.043913
      4          6           0        1.841487   -0.079720    0.021433
      5          1           0       -2.758402   -0.497511    0.035868
      6          1           0       -1.918926    1.175962   -0.115103
      7          1           0       -0.389698   -1.439262    0.012821
      8          1           0        0.443395    1.430605   -0.131222
      9          1           0        2.189775   -1.111381   -0.130716
     10          1           0        2.674806    0.625372    0.279295
 ---------------------------------------------------------------------

 SCF Done:  E(RB2PLYPD3) =  -155.684232679     A.U. after   11 cycles
 E2(B2PLYPD3) =    -0.2274349787D+00 E(B2PLYPD3) =    -0.15591166765738D+03

 The electronic state is 1-A.
 Alpha  occ. eigenvalues --  -10.62440 -10.62357 -10.62282 -10.62226  -0.93468
 Alpha  occ. eigenvalues --   -0.84284  -0.70929  -0.64574  -0.54733  -0.53209
 Alpha  occ. eigenvalues --   -0.46454  -0.46062  -0.41756  -0.37699  -0.26931
 Alpha virt. eigenvalues --    0.00533   0.06878   0.07488   0.08074   0.09403
 Alpha virt. eigenvalues --    0.11709   0.12370   0.14987   0.15407   0.16479
 Alpha virt. eigenvalues --    0.18596   0.19435   0.21730   0.22374   0.24283

 Mulliken charges:
               1
     1  C   -0.170045
     2  C   -0.048400
     3  C   -0.009440
     4  C   -0.187273
     5  H    0.083733
     6  H    0.070488
     7  H    0.065649
     8  H    0.051073
     9  H    0.066275
    10  H    0.077940
 Sum of Mulliken charges =   0.00000

 Dipole moment (field-independent basis, Debye):
    X=              0.0436    Y=             -0.0633    Z=             -0.1268  Tot=              0.1483
 Quadrupole moment (field-independent basis, Debye-Ang):
   XX=            -23.5967   YY=            -23.3963   ZZ=            -29.2142
   XY=             -0.2927   XZ=              0.5628   YZ=              0.0169

 1\1\GINC-NODE19\SP\RB2PLYPD3-FC\def2QZVP\C4H6\BOITTIER\26-Aug-2020\0\\
 #p B2PLYPD3/Def2QZVP\\butadiene\\0,1\C,0,-3.843711,0.262065,0.074645\C
 ,0,-2.720057,-0.52433,-0.004101\C,0,-1.415709,0.022715,-0.025491\C,0,-
 0.252558,-0.634407,0.058796\H,0,-4.849543,-0.185578,0.055109\H,0,-3.71
 205,1.297183,-0.133452\H,0,-2.698407,-1.553257,0.071058\H,0,-1.343721,
 1.105815,-0.141289\H,0,-0.102894,-1.716597,-0.064669\H,0,0.697445,-0.0
 90736,0.303714\\Version=ES64L-G09RevD.01\State=1-A\HF=-155.6842327\MP2
 =-155.9116677\RMSD=8.651e-09\PG=C01 [X(C4H6)]\\@

 Normal termination of Gaussian 09 at Wed Aug 26 13:43:33 2020.
