 Gaussian 09, Revision D.01,
 Gaussian 09:  ES64L-G09RevD.01 24-Apr-2013

 --------------------
 #p B2PLYPD3/Def2QZVP
 --------------------

 ---------
 butadiene
 ---------
 Symbolic Z-matrix:
 Charge =  0 Multiplicity = 1

                         Standard orientation:
 ---------------------------------------------------------------------
 Center     Atomic      Atomic             Coordinates (Angstroms)
 Number     Number       Type             X           Y           Z
 ---------------------------------------------------------------------
      1          6           0        1.840100    0.114864    0.029185
      2          6           0        0.609389   -0.400185   -0.018999
      3          6           0       -0.604968    0.379524   -0.033035
      4          6           0       -1.837858   -0.104235    0.017422
      5          1           0        2.727324   -0.519398   -0.020518
      6          1           0        2.011932    1.193884    0.027056
      7          1           0        0.464775   -1.488948   -0.041946
      8          1           0       -0.496350    1.475995   -0.009247
      9          1           0       -2.038286   -1.142688    0.067207
     10          1           0       -2.709373    0.541352    0.010013
 ---------------------------------------------------------------------

 SCF Done:  E(RB2PLYPD3) =  -155.700079306     A.U. after   11 cycles
 E2(B2PLYPD3) =    -0.2256290223D+00 E(B2PLYPD3) =    -0.15592570832867D+03

 The electronic state is 1-A.
 Alpha  occ. eigenvalues --  -10.62688 -10.62412 -10.61829 -10.61147  -0.93132
 Alpha  occ. eigenvalues --   -0.85060  -0.70331  -0.63808  -0.54635  -0.54026
 Alpha  occ. eigenvalues --   -0.46838  -0.45420  -0.40813  -0.38311  -0.27788
 Alpha virt. eigenvalues --    0.01670   0.06978   0.07408   0.07978   0.09818
 Alpha virt. eigenvalues --    0.11655   0.12434   0.14777   0.15828   0.16137
 Alpha virt. eigenvalues --    0.18841   0.20491   0.21734   0.22551   0.23723

 Mulliken charges:
               1
     1  C   -0.171274
     2  C   -0.035164
     3  C   -0.019217
     4  C   -0.175632
     5  H    0.085453
     6  H    0.066295
     7  H    0.052573
     8  H    0.048617
     9  H    0.064200
    10  H    0.084148
 Sum of Mulliken charges =   0.00000

 Dipole moment (field-independent basis, Debye):
    X=             -0.0127    Y=             -0.0147    Z=             -0.0045  Tot=              0.0199
 Quadrupole moment (field-independent basis, Debye-Ang):
   XX=            -23.3209   YY=            -23.2097   ZZ=            -29.2387
   XY=              0.1877   XZ=             -0.2123   YZ=              0.0225

 1\1\GINC-NODE15\SP\RB2PLYPD3-FC\def2QZVP\C4H6\BOITTIER\26-Aug-2020\0\\
 #p B2PLYPD3/Def2QZVP\\butadiene\\0,1\C,0,-3.840762,0.228386,-0.008784\
 C,0,-2.72228,-0.497574,0.056245\C,0,-1.387597,0.051337,0.045157\C,0,-0
 .261915,-0.647398,0.010583\H,0,-4.827155,-0.234254,0.061338\H,0,-3.816
 04,1.320229,-0.041669\H,0,-2.775384,-1.593307,0.114505\H,0,-1.297703,1
 .148155,-0.014189\H,0,-0.251493,-1.706014,-0.005475\H,0,0.711384,-0.16
 8978,-0.002827\\Version=ES64L-G09RevD.01\State=1-A\HF=-155.7000793\MP2
 =-155.9257083\RMSD=4.586e-09\PG=C01 [X(C4H6)]\\@

 Normal termination of Gaussian 09 at Wed Aug 26 18:37:58 2020.
