 Gaussian 09, Revision D.01,
 Gaussian 09:  ES64L-G09RevD.01 24-Apr-2013

 --------------------
 #p B2PLYPD3/Def2QZVP
 --------------------

 ---------
 butadiene
 ---------
 Symbolic Z-matrix:
 Charge =  0 Multiplicity = 1

                         Standard orientation:
 ---------------------------------------------------------------------
 Center     Atomic      Atomic             Coordinates (Angstroms)
 Number     Number       Type             X           Y           Z
 ---------------------------------------------------------------------
      1          6           0       -1.881938   -0.115743    0.066195
      2          6           0       -0.626669    0.357075   -0.068432
      3          6           0        0.657984   -0.432922   -0.041371
      4          6           0        1.855245    0.155418    0.038921
      5          1           0       -2.651690    0.615306   -0.050901
      6          1           0       -2.127202   -1.142673    0.075368
      7          1           0       -0.491735    1.510650   -0.116622
      8          1           0        0.635791   -1.560738   -0.029557
      9          1           0        1.797123    1.265383    0.211295
     10          1           0        2.809985   -0.470896   -0.061463
 ---------------------------------------------------------------------

 SCF Done:  E(RB2PLYPD3) =  -155.681507595     A.U. after   12 cycles
 E2(B2PLYPD3) =    -0.2276290699D+00 E(B2PLYPD3) =    -0.15590913666497D+03

 The electronic state is 1-A.
 Alpha  occ. eigenvalues --  -10.64128 -10.63448 -10.62773 -10.61366  -0.91887
 Alpha  occ. eigenvalues --   -0.84982  -0.68904  -0.62629  -0.54281  -0.53032
 Alpha  occ. eigenvalues --   -0.45974  -0.45216  -0.40597  -0.37192  -0.28033
 Alpha virt. eigenvalues --    0.01633   0.06807   0.07133   0.07698   0.09235
 Alpha virt. eigenvalues --    0.11596   0.12175   0.14311   0.15486   0.16021
 Alpha virt. eigenvalues --    0.18856   0.20285   0.20523   0.22036   0.24183

 Mulliken charges:
               1
     1  C   -0.173300
     2  C   -0.035759
     3  C   -0.033487
     4  C   -0.169935
     5  H    0.085074
     6  H    0.076335
     7  H    0.040774
     8  H    0.051839
     9  H    0.064975
    10  H    0.093485
 Sum of Mulliken charges =   0.00000

 Dipole moment (field-independent basis, Debye):
    X=              0.0177    Y=             -0.0991    Z=             -0.0361  Tot=              0.1070
 Quadrupole moment (field-independent basis, Debye-Ang):
   XX=            -23.7945   YY=            -23.0794   ZZ=            -29.5734
   XY=             -0.2947   XZ=              0.1724   YZ=              0.0753

 1\1\GINC-NODE19\SP\RB2PLYPD3-FC\def2QZVP\C4H6\BOITTIER\26-Aug-2020\0\\
 #p B2PLYPD3/Def2QZVP\\butadiene\\0,1\C,0,-3.891654,0.201315,-0.044001\
 C,0,-2.729903,-0.467334,0.099613\C,0,-1.333736,0.102071,0.058887\C,0,-
 0.24859,-0.674904,-0.010331\H,0,-4.769971,-0.392274,0.085896\H,0,-3.96
 6275,1.254162,-0.071724\H,0,-2.784679,-1.626432,0.168577\H,0,-1.171834
 ,1.218027,0.026802\H,0,-0.487289,-1.763436,-0.162757\H,0,0.795719,-0.2
 10919,0.079174\\Version=ES64L-G09RevD.01\State=1-A\HF=-155.6815076\MP2
 =-155.9091367\RMSD=3.275e-09\PG=C01 [X(C4H6)]\\@

 Normal termination of Gaussian 09 at Wed Aug 26 15:06:09 2020.
