 Gaussian 09, Revision D.01,
 Gaussian 09:  ES64L-G09RevD.01 24-Apr-2013

 --------------------
 #p B2PLYPD3/Def2QZVP
 --------------------

 ---------
 butadiene
 ---------
 Symbolic Z-matrix:
 Charge =  0 Multiplicity = 1

                         Standard orientation:
 ---------------------------------------------------------------------
 Center     Atomic      Atomic             Coordinates (Angstroms)
 Number     Number       Type             X           Y           Z
 ---------------------------------------------------------------------
      1          6           0       -1.819415    0.108131    0.046399
      2          6           0       -0.592298   -0.426849   -0.042196
      3          6           0        0.573626    0.384719   -0.053811
      4          6           0        1.831245   -0.094359    0.023281
      5          1           0       -2.703357   -0.491735   -0.000480
      6          1           0       -1.954121    1.223222    0.045206
      7          1           0       -0.449134   -1.493971   -0.001533
      8          1           0        0.394206    1.482775   -0.042230
      9          1           0        2.090433   -1.129372    0.050872
     10          1           0        2.663027    0.579226    0.106127
 ---------------------------------------------------------------------

 SCF Done:  E(RB2PLYPD3) =  -155.696637101     A.U. after   11 cycles
 E2(B2PLYPD3) =    -0.2264689857D+00 E(B2PLYPD3) =    -0.15592310608676D+03

 The electronic state is 1-A.
 Alpha  occ. eigenvalues --  -10.62697 -10.62292 -10.61907 -10.61394  -0.93376
 Alpha  occ. eigenvalues --   -0.84500  -0.70577  -0.63982  -0.54989  -0.53526
 Alpha  occ. eigenvalues --   -0.46372  -0.45440  -0.41496  -0.38386  -0.27235
 Alpha virt. eigenvalues --    0.01334   0.07017   0.07288   0.08091   0.09568
 Alpha virt. eigenvalues --    0.11701   0.12449   0.14855   0.15772   0.16190
 Alpha virt. eigenvalues --    0.18738   0.20175   0.21877   0.22731   0.23823

 Mulliken charges:
               1
     1  C   -0.171314
     2  C   -0.031769
     3  C   -0.019594
     4  C   -0.182928
     5  H    0.086275
     6  H    0.059223
     7  H    0.059220
     8  H    0.050194
     9  H    0.068563
    10  H    0.082131
 Sum of Mulliken charges =   0.00000

 Dipole moment (field-independent basis, Debye):
    X=             -0.0183    Y=             -0.0605    Z=              0.0740  Tot=              0.0973
 Quadrupole moment (field-independent basis, Debye-Ang):
   XX=            -23.6031   YY=            -23.0761   ZZ=            -29.3019
   XY=             -0.3161   XZ=              0.3441   YZ=              0.0259

 1\1\GINC-NODE38\SP\RB2PLYPD3-FC\def2QZVP\C4H6\BOITTIER\26-Aug-2020\0\\
 #p B2PLYPD3/Def2QZVP\\butadiene\\0,1\C,0,-3.816654,0.239196,0.062358\C
 ,0,-2.712901,-0.520328,-0.006356\C,0,-1.414518,0.055534,-0.033548\C,0,
 -0.270203,-0.650489,0.062055\H,0,-4.798115,-0.183732,0.026906\H,0,-3.7
 38007,1.35921,0.031421\H,0,-2.774161,-1.593809,0.062825\H,0,-1.382997,
 1.167621,-0.051485\H,0,-0.211462,-1.714737,0.117888\H,0,0.673992,-0.14
 4381,0.131287\\Version=ES64L-G09RevD.01\State=1-A\HF=-155.6966371\MP2=
 -155.9231061\RMSD=5.168e-09\PG=C01 [X(C4H6)]\\@

 Normal termination of Gaussian 09 at Wed Aug 26 10:15:15 2020.
