 Gaussian 09, Revision D.01,
 Gaussian 09:  ES64L-G09RevD.01 24-Apr-2013

 --------------------
 #p B2PLYPD3/Def2QZVP
 --------------------

 ---------
 butadiene
 ---------
 Symbolic Z-matrix:
 Charge =  0 Multiplicity = 1

                         Standard orientation:
 ---------------------------------------------------------------------
 Center     Atomic      Atomic             Coordinates (Angstroms)
 Number     Number       Type             X           Y           Z
 ---------------------------------------------------------------------
      1          6           0        1.835844   -0.101089    0.024840
      2          6           0        0.607266    0.380680   -0.023662
      3          6           0       -0.599785   -0.399207   -0.006858
      4          6           0       -1.833233    0.111560    0.014021
      5          1           0        2.695099    0.528960   -0.040559
      6          1           0        2.010472   -1.150595    0.043924
      7          1           0        0.444587    1.467897   -0.034615
      8          1           0       -0.509920   -1.481855   -0.053010
      9          1           0       -1.993942    1.188958    0.061883
     10          1           0       -2.706845   -0.505031   -0.027669
 ---------------------------------------------------------------------

 SCF Done:  E(RB2PLYPD3) =  -155.700689385     A.U. after   11 cycles
 E2(B2PLYPD3) =    -0.2252770473D+00 E(B2PLYPD3) =    -0.15592596643227D+03

 The electronic state is 1-A.
 Alpha  occ. eigenvalues --  -10.62363 -10.62290 -10.61472 -10.60966  -0.93331
 Alpha  occ. eigenvalues --   -0.85215  -0.70543  -0.63930  -0.54980  -0.54155
 Alpha  occ. eigenvalues --   -0.46979  -0.45510  -0.41000  -0.38395  -0.27771
 Alpha virt. eigenvalues --    0.01716   0.07038   0.07439   0.08058   0.09888
 Alpha virt. eigenvalues --    0.11691   0.12501   0.14811   0.15825   0.16229
 Alpha virt. eigenvalues --    0.18827   0.20433   0.21837   0.22611   0.23815

 Mulliken charges:
               1
     1  C   -0.173732
     2  C   -0.024391
     3  C   -0.026473
     4  C   -0.176828
     5  H    0.087105
     6  H    0.065299
     7  H    0.048817
     8  H    0.050927
     9  H    0.061866
    10  H    0.087409
 Sum of Mulliken charges =   0.00000

 Dipole moment (field-independent basis, Debye):
    X=             -0.0079    Y=             -0.0236    Z=             -0.0650  Tot=              0.0696
 Quadrupole moment (field-independent basis, Debye-Ang):
   XX=            -23.3106   YY=            -23.2143   ZZ=            -29.1497
   XY=             -0.1087   XZ=             -0.0512   YZ=              0.0470

 1\1\GINC-NODE36\SP\RB2PLYPD3-FC\def2QZVP\C4H6\BOITTIER\26-Aug-2020\0\\
 #p B2PLYPD3/Def2QZVP\\butadiene\\0,1\C,0,-3.838424,0.216107,0.040582\C
 ,0,-2.717342,-0.481162,0.011471\C,0,-1.389166,0.067816,0.004383\C,0,-0
 .268264,-0.656471,0.045616\H,0,-4.797644,-0.250111,-0.005214\H,0,-3.82
 0431,1.279921,0.023316\H,0,-2.753871,-1.579607,0.038126\H,0,-1.28207,1
 .146662,-0.079017\H,0,-0.304728,-1.742902,0.130711\H,0,0.702227,-0.209
 727,-0.015119\\Version=ES64L-G09RevD.01\State=1-A\HF=-155.7006894\MP2=
 -155.9259664\RMSD=4.420e-09\PG=C01 [X(C4H6)]\\@

 Normal termination of Gaussian 09 at Wed Aug 26 08:50:06 2020.
