 Gaussian 09, Revision D.01,
 Gaussian 09:  ES64L-G09RevD.01 24-Apr-2013

 --------------------
 #p B2PLYPD3/Def2QZVP
 --------------------

 ---------
 butadiene
 ---------
 Symbolic Z-matrix:
 Charge =  0 Multiplicity = 1

                         Standard orientation:
 ---------------------------------------------------------------------
 Center     Atomic      Atomic             Coordinates (Angstroms)
 Number     Number       Type             X           Y           Z
 ---------------------------------------------------------------------
      1          6           0        1.860515    0.073958   -0.001454
      2          6           0        0.622840   -0.349202   -0.005077
      3          6           0       -0.619950    0.447238   -0.029197
      4          6           0       -1.853004   -0.151775    0.029244
      5          1           0        2.584600   -0.611587   -0.155761
      6          1           0        2.093874    1.133170    0.283040
      7          1           0        0.474125   -1.436191    0.005923
      8          1           0       -0.496643    1.483910   -0.115533
      9          1           0       -2.034127   -1.188018    0.089963
     10          1           0       -2.684236    0.497404   -0.068727
 ---------------------------------------------------------------------

 SCF Done:  E(RB2PLYPD3) =  -155.685633781     A.U. after   11 cycles
 E2(B2PLYPD3) =    -0.2256635991D+00 E(B2PLYPD3) =    -0.15591129737998D+03

 The electronic state is 1-A.
 Alpha  occ. eigenvalues --  -10.62958 -10.62056 -10.61716 -10.60513  -0.92667
 Alpha  occ. eigenvalues --   -0.85282  -0.70789  -0.63983  -0.55108  -0.53923
 Alpha  occ. eigenvalues --   -0.48029  -0.45516  -0.41325  -0.37241  -0.27555
 Alpha virt. eigenvalues --    0.01431   0.07057   0.07532   0.08194   0.09348
 Alpha virt. eigenvalues --    0.11710   0.12248   0.14990   0.15585   0.16350
 Alpha virt. eigenvalues --    0.18924   0.20079   0.21460   0.22689   0.24269

 Mulliken charges:
               1
     1  C   -0.189416
     2  C   -0.014100
     3  C   -0.060677
     4  C   -0.173657
     5  H    0.090556
     6  H    0.069011
     7  H    0.045385
     8  H    0.069727
     9  H    0.080303
    10  H    0.082868
 Sum of Mulliken charges =   0.00000

 Dipole moment (field-independent basis, Debye):
    X=             -0.0839    Y=             -0.0416    Z=              0.0252  Tot=              0.0970
 Quadrupole moment (field-independent basis, Debye-Ang):
   XX=            -23.7562   YY=            -22.9803   ZZ=            -29.0887
   XY=              0.1908   XZ=              0.2082   YZ=              0.1306

 1\1\GINC-NODE22\SP\RB2PLYPD3-FC\def2QZVP\C4H6\BOITTIER\26-Aug-2020\0\\
 #p B2PLYPD3/Def2QZVP\\butadiene\\0,1\C,0,-3.868439,0.191238,0.015319\C
 ,0,-2.727266,-0.447564,0.039255\C,0,-1.361266,0.112314,0.041134\C,0,-0
 .256442,-0.700702,0.009161\H,0,-4.703908,-0.346801,0.19021\H,0,-3.9076
 55,1.264499,-0.307011\H,0,-2.776869,-1.543265,0.066863\H,0,-1.295595,1
 .156623,0.090685\H,0,-0.265117,-1.754103,-0.014544\H,0,0.678342,-0.208
 849,0.088141\\Version=ES64L-G09RevD.01\State=1-A\HF=-155.6856338\MP2=-
 155.9112974\RMSD=7.303e-09\PG=C01 [X(C4H6)]\\@

 Normal termination of Gaussian 09 at Wed Aug 26 15:26:08 2020.
