 Gaussian 09, Revision D.01,
 Gaussian 09:  ES64L-G09RevD.01 24-Apr-2013

 --------------------
 #p B2PLYPD3/Def2QZVP
 --------------------

 ---------
 butadiene
 ---------
 Symbolic Z-matrix:
 Charge =  0 Multiplicity = 1

                         Standard orientation:
 ---------------------------------------------------------------------
 Center     Atomic      Atomic             Coordinates (Angstroms)
 Number     Number       Type             X           Y           Z
 ---------------------------------------------------------------------
      1          6           0        1.820599   -0.095659   -0.083268
      2          6           0        0.600607    0.382451    0.056072
      3          6           0       -0.612437   -0.429729    0.112188
      4          6           0       -1.836255    0.099758   -0.050213
      5          1           0        2.669185    0.504061   -0.044245
      6          1           0        1.967466   -1.117559   -0.008882
      7          1           0        0.428969    1.476912    0.146735
      8          1           0       -0.365645   -1.466289   -0.028634
      9          1           0       -1.783911    1.283757   -0.128342
     10          1           0       -2.751150   -0.421809   -0.145306
 ---------------------------------------------------------------------

 SCF Done:  E(RB2PLYPD3) =  -155.682463662     A.U. after   11 cycles
 E2(B2PLYPD3) =    -0.2264106939D+00 E(B2PLYPD3) =    -0.15590887435639D+03

 The electronic state is 1-A.
 Alpha  occ. eigenvalues --  -10.62878 -10.62646 -10.62458 -10.60156  -0.93278
 Alpha  occ. eigenvalues --   -0.85135  -0.70383  -0.63966  -0.55786  -0.53157
 Alpha  occ. eigenvalues --   -0.47728  -0.44667  -0.40585  -0.38121  -0.27916
 Alpha virt. eigenvalues --    0.01640   0.06974   0.07325   0.08201   0.09250
 Alpha virt. eigenvalues --    0.11750   0.12750   0.14345   0.15196   0.16509
 Alpha virt. eigenvalues --    0.18756   0.19614   0.21357   0.23467   0.24233

 Mulliken charges:
               1
     1  C   -0.179641
     2  C   -0.006333
     3  C   -0.040358
     4  C   -0.162039
     5  H    0.084694
     6  H    0.059689
     7  H    0.040093
     8  H    0.055818
     9  H    0.048705
    10  H    0.099372
 Sum of Mulliken charges =   0.00000

 Dipole moment (field-independent basis, Debye):
    X=             -0.0097    Y=             -0.0906    Z=             -0.0786  Tot=              0.1203
 Quadrupole moment (field-independent basis, Debye-Ang):
   XX=            -23.3538   YY=            -23.5297   ZZ=            -29.1702
   XY=              0.0952   XZ=              0.6928   YZ=              0.1289

 1\1\GINC-NODE40\SP\RB2PLYPD3-FC\def2QZVP\C4H6\BOITTIER\26-Aug-2020\0\\
 #p B2PLYPD3/Def2QZVP\\butadiene\\0,1\C,0,-3.829687,0.204813,-0.059484\
 C,0,-2.716196,-0.483338,0.092074\C,0,-1.374859,0.094974,0.117218\C,0,-
 0.269735,-0.654139,-0.031084\H,0,-4.773064,-0.228219,0.00222\H,0,-3.78
 6939,1.238212,-0.01895\H,0,-2.746322,-1.587215,0.218853\H,0,-1.429644,
 1.154058,-0.05752\H,0,-0.537953,-1.810554,-0.069314\H,0,0.724062,-0.31
 1832,-0.146408\\Version=ES64L-G09RevD.01\State=1-A\HF=-155.6824637\MP2
 =-155.9088744\RMSD=9.323e-09\PG=C01 [X(C4H6)]\\@

 Normal termination of Gaussian 09 at Wed Aug 26 15:25:55 2020.
