 Gaussian 09, Revision D.01,
 Gaussian 09:  ES64L-G09RevD.01 24-Apr-2013

 --------------------
 #p B2PLYPD3/Def2QZVP
 --------------------

 ---------
 butadiene
 ---------
 Symbolic Z-matrix:
 Charge =  0 Multiplicity = 1

                         Standard orientation:
 ---------------------------------------------------------------------
 Center     Atomic      Atomic             Coordinates (Angstroms)
 Number     Number       Type             X           Y           Z
 ---------------------------------------------------------------------
      1          6           0       -1.860624    0.070079   -0.034247
      2          6           0       -0.594008   -0.364776    0.035873
      3          6           0        0.607890    0.435356   -0.020336
      4          6           0        1.850660   -0.137459   -0.014301
      5          1           0       -2.704926   -0.504973   -0.073059
      6          1           0       -2.187815    1.114294    0.137099
      7          1           0       -0.465153   -1.489020    0.022736
      8          1           0        0.552639    1.516274    0.072651
      9          1           0        2.088294   -1.203636    0.087294
     10          1           0        2.693460    0.547860   -0.048656
 ---------------------------------------------------------------------

 SCF Done:  E(RB2PLYPD3) =  -155.686723202     A.U. after   12 cycles
 E2(B2PLYPD3) =    -0.2271749725D+00 E(B2PLYPD3) =    -0.15591389817404D+03

 The electronic state is 1-A.
 Alpha  occ. eigenvalues --  -10.63308 -10.63233 -10.62418 -10.61174  -0.92554
 Alpha  occ. eigenvalues --   -0.84548  -0.70869  -0.63722  -0.55089  -0.53425
 Alpha  occ. eigenvalues --   -0.46658  -0.44978  -0.41196  -0.37633  -0.27269
 Alpha virt. eigenvalues --    0.00976   0.07009   0.07337   0.07918   0.09306
 Alpha virt. eigenvalues --    0.11319   0.12429   0.14864   0.15734   0.16498
 Alpha virt. eigenvalues --    0.18943   0.20094   0.22362   0.22551   0.23146

 Mulliken charges:
               1
     1  C   -0.162364
     2  C   -0.031776
     3  C   -0.040061
     4  C   -0.171767
     5  H    0.080759
     6  H    0.050982
     7  H    0.050673
     8  H    0.067849
     9  H    0.077059
    10  H    0.078646
 Sum of Mulliken charges =   0.00000

 Dipole moment (field-independent basis, Debye):
    X=              0.0363    Y=             -0.0004    Z=              0.2072  Tot=              0.2103
 Quadrupole moment (field-independent basis, Debye-Ang):
   XX=            -23.0990   YY=            -23.2398   ZZ=            -29.3871
   XY=             -0.3006   XZ=              0.0421   YZ=              0.1507

 1\1\GINC-NODE28\SP\RB2PLYPD3-FC\def2QZVP\C4H6\BOITTIER\26-Aug-2020\0\\
 #p B2PLYPD3/Def2QZVP\\butadiene\\0,1\C,0,-3.86922,0.195324,-0.009716\C
 ,0,-2.703969,-0.463642,0.069572\C,0,-1.375599,0.100978,0.001984\C,0,-0
 .259235,-0.69026,0.019445\H,0,-4.804868,-0.215362,-0.040308\H,0,-3.998
 708,1.284574,0.143794\H,0,-2.783905,-1.592481,0.075267\H,0,-1.231152,1
 .175034,0.07696\H,0,-0.221401,-1.780115,0.139063\H,0,0.695088,-0.17213
 7,-0.02495\\Version=ES64L-G09RevD.01\State=1-A\HF=-155.6867232\MP2=-15
 5.9138982\RMSD=2.406e-09\PG=C01 [X(C4H6)]\\@

 Normal termination of Gaussian 09 at Wed Aug 26 13:36:33 2020.
