 Gaussian 09, Revision D.01,
 Gaussian 09:  ES64L-G09RevD.01 24-Apr-2013

 --------------------
 #p B2PLYPD3/Def2QZVP
 --------------------

 ---------
 butadiene
 ---------
 Symbolic Z-matrix:
 Charge =  0 Multiplicity = 1

                         Standard orientation:
 ---------------------------------------------------------------------
 Center     Atomic      Atomic             Coordinates (Angstroms)
 Number     Number       Type             X           Y           Z
 ---------------------------------------------------------------------
      1          6           0        1.832320   -0.118162    0.028233
      2          6           0        0.604918    0.414003   -0.017186
      3          6           0       -0.593003   -0.390068   -0.022548
      4          6           0       -1.839775    0.097521    0.013097
      5          1           0        2.673140    0.530124    0.009099
      6          1           0        1.986112   -1.199950   -0.021581
      7          1           0        0.454134    1.485690   -0.025844
      8          1           0       -0.453477   -1.467087   -0.032790
      9          1           0       -1.992081    1.156924   -0.003459
     10          1           0       -2.694585   -0.525464    0.065002
 ---------------------------------------------------------------------

 SCF Done:  E(RB2PLYPD3) =  -155.700269263     A.U. after   11 cycles
 E2(B2PLYPD3) =    -0.2256740449D+00 E(B2PLYPD3) =    -0.15592594330769D+03

 The electronic state is 1-A.
 Alpha  occ. eigenvalues --  -10.62462 -10.62318 -10.61500 -10.61103  -0.93144
 Alpha  occ. eigenvalues --   -0.84918  -0.70483  -0.64147  -0.54806  -0.54070
 Alpha  occ. eigenvalues --   -0.46734  -0.45786  -0.41457  -0.38152  -0.27514
 Alpha virt. eigenvalues --    0.01621   0.07056   0.07394   0.08149   0.09617
 Alpha virt. eigenvalues --    0.11748   0.12466   0.14810   0.15915   0.16095
 Alpha virt. eigenvalues --    0.18736   0.20487   0.21610   0.23051   0.23938

 Mulliken charges:
               1
     1  C   -0.176351
     2  C   -0.033948
     3  C   -0.020457
     4  C   -0.182460
     5  H    0.086853
     6  H    0.069416
     7  H    0.054593
     8  H    0.050307
     9  H    0.062768
    10  H    0.089279
 Sum of Mulliken charges =   0.00000

 Dipole moment (field-independent basis, Debye):
    X=              0.0122    Y=              0.0132    Z=             -0.0387  Tot=              0.0427
 Quadrupole moment (field-independent basis, Debye-Ang):
   XX=            -23.5875   YY=            -23.0293   ZZ=            -29.2362
   XY=             -0.1149   XZ=             -0.2202   YZ=             -0.0106

 1\1\GINC-NODE34\SP\RB2PLYPD3-FC\def2QZVP\C4H6\BOITTIER\26-Aug-2020\0\\
 #p B2PLYPD3/Def2QZVP\\butadiene\\0,1\C,0,-3.831148,0.236916,0.04279\C,
 0,-2.721761,-0.511665,0.017011\C,0,-1.397073,0.059467,-0.007132\C,0,-0
 .260354,-0.64651,0.046911\H,0,-4.776322,-0.247082,0.039253\H,0,-3.7847
 25,1.326698,-0.038557\H,0,-2.769398,-1.592657,0.03961\H,0,-1.337427,1.
 143097,-0.048736\H,0,-0.304263,-1.715936,0.061269\H,0,0.694006,-0.1889
 87,0.083981\\Version=ES64L-G09RevD.01\State=1-A\HF=-155.7002693\MP2=-1
 55.9259433\RMSD=4.156e-09\PG=C01 [X(C4H6)]\\@

 Normal termination of Gaussian 09 at Wed Aug 26 20:33:36 2020.
