 Gaussian 09, Revision D.01,
 Gaussian 09:  ES64L-G09RevD.01 24-Apr-2013

 --------------------
 #p B2PLYPD3/Def2QZVP
 --------------------

 ---------
 butadiene
 ---------
 Symbolic Z-matrix:
 Charge =  0 Multiplicity = 1

                         Standard orientation:
 ---------------------------------------------------------------------
 Center     Atomic      Atomic             Coordinates (Angstroms)
 Number     Number       Type             X           Y           Z
 ---------------------------------------------------------------------
      1          6           0        1.822099    0.079579    0.008980
      2          6           0        0.589427   -0.381679   -0.031515
      3          6           0       -0.605297    0.452472    0.018557
      4          6           0       -1.839399   -0.126606   -0.032390
      5          1           0        2.738909   -0.555898   -0.093696
      6          1           0        2.063916    1.156037    0.160563
      7          1           0        0.432959   -1.411681   -0.011195
      8          1           0       -0.361882    1.464070   -0.059692
      9          1           0       -1.806468   -1.202805    0.253434
     10          1           0       -2.868409    0.407681   -0.031206
 ---------------------------------------------------------------------

 SCF Done:  E(RB2PLYPD3) =  -155.681459962     A.U. after   12 cycles
 E2(B2PLYPD3) =    -0.2272056894D+00 E(B2PLYPD3) =    -0.15590866565169D+03

 The electronic state is 1-A.
 Alpha  occ. eigenvalues --  -10.63258 -10.62843 -10.62010 -10.61798  -0.93333
 Alpha  occ. eigenvalues --   -0.84347  -0.69457  -0.65101  -0.54290  -0.52797
 Alpha  occ. eigenvalues --   -0.47167  -0.44698  -0.41023  -0.37936  -0.27591
 Alpha virt. eigenvalues --    0.01372   0.06912   0.07285   0.08140   0.08992
 Alpha virt. eigenvalues --    0.11567   0.12591   0.14362   0.15463   0.16460
 Alpha virt. eigenvalues --    0.18580   0.19722   0.21365   0.22402   0.24143

 Mulliken charges:
               1
     1  C   -0.174582
     2  C   -0.020042
     3  C   -0.039669
     4  C   -0.168997
     5  H    0.078934
     6  H    0.055539
     7  H    0.060761
     8  H    0.066378
     9  H    0.061410
    10  H    0.080267
 Sum of Mulliken charges =   0.00000

 Dipole moment (field-independent basis, Debye):
    X=              0.0769    Y=              0.0424    Z=              0.1848  Tot=              0.2046
 Quadrupole moment (field-independent basis, Debye-Ang):
   XX=            -23.4638   YY=            -23.5451   ZZ=            -29.2705
   XY=              0.1185   XZ=             -0.2336   YZ=             -0.1860

 1\1\GINC-NODE29\SP\RB2PLYPD3-FC\def2QZVP\C4H6\BOITTIER\26-Aug-2020\0\\
 #p B2PLYPD3/Def2QZVP\\butadiene\\0,1\C,0,-3.833227,0.195181,0.011342\C
 ,0,-2.705726,-0.483287,0.059328\C,0,-1.378638,0.117014,-0.005126\C,0,-
 0.271269,-0.677353,0.055302\H,0,-4.850549,-0.259858,0.124967\H,0,-3.87
 4355,1.295056,-0.158356\H,0,-2.740571,-1.524717,0.056383\H,0,-1.432446
 ,1.157237,0.056072\H,0,-0.501654,-1.733907,-0.212282\H,0,0.838164,-0.3
 40644,0.044838\\Version=ES64L-G09RevD.01\State=1-A\HF=-155.68146\MP2=-
 155.9086657\RMSD=3.712e-09\PG=C01 [X(C4H6)]\\@

 Normal termination of Gaussian 09 at Wed Aug 26 13:59:51 2020.
