 Gaussian 09, Revision D.01,
 Gaussian 09:  ES64L-G09RevD.01 24-Apr-2013

 --------------------
 #p B2PLYPD3/Def2QZVP
 --------------------

 ---------
 butadiene
 ---------
 Symbolic Z-matrix:
 Charge =  0 Multiplicity = 1

                         Standard orientation:
 ---------------------------------------------------------------------
 Center     Atomic      Atomic             Coordinates (Angstroms)
 Number     Number       Type             X           Y           Z
 ---------------------------------------------------------------------
      1          6           0       -1.850469   -0.119233    0.047097
      2          6           0       -0.619802    0.419786   -0.046097
      3          6           0        0.614018   -0.374228   -0.038622
      4          6           0        1.866374    0.100812    0.031742
      5          1           0       -2.792802    0.439418    0.126996
      6          1           0       -1.913593   -1.229196   -0.077188
      7          1           0       -0.509421    1.490211   -0.104609
      8          1           0        0.478080   -1.425149   -0.036662
      9          1           0        2.044232    1.149892    0.041062
     10          1           0        2.632781   -0.588001    0.085681
 ---------------------------------------------------------------------

 SCF Done:  E(RB2PLYPD3) =  -155.694751151     A.U. after   11 cycles
 E2(B2PLYPD3) =    -0.2260017667D+00 E(B2PLYPD3) =    -0.15592075291813D+03

 The electronic state is 1-A.
 Alpha  occ. eigenvalues --  -10.62830 -10.62378 -10.62370 -10.60861  -0.92717
 Alpha  occ. eigenvalues --   -0.84965  -0.70233  -0.64282  -0.54765  -0.54015
 Alpha  occ. eigenvalues --   -0.46812  -0.45766  -0.41468  -0.37604  -0.27621
 Alpha virt. eigenvalues --    0.01521   0.06991   0.07522   0.08123   0.09466
 Alpha virt. eigenvalues --    0.11620   0.12497   0.14538   0.15878   0.16233
 Alpha virt. eigenvalues --    0.18818   0.20374   0.21322   0.22755   0.24376

 Mulliken charges:
               1
     1  C   -0.170851
     2  C   -0.038663
     3  C   -0.025671
     4  C   -0.185489
     5  H    0.089096
     6  H    0.058651
     7  H    0.055964
     8  H    0.052898
     9  H    0.072112
    10  H    0.091953
 Sum of Mulliken charges =   0.00000

 Dipole moment (field-independent basis, Debye):
    X=             -0.0296    Y=              0.0197    Z=             -0.0212  Tot=              0.0414
 Quadrupole moment (field-independent basis, Debye-Ang):
   XX=            -23.4318   YY=            -23.1643   ZZ=            -29.2793
   XY=             -0.0999   XZ=              0.1209   YZ=              0.0788

 1\1\GINC-NODE08\SP\RB2PLYPD3-FC\def2QZVP\C4H6\BOITTIER\26-Aug-2020\0\\
 #p B2PLYPD3/Def2QZVP\\butadiene\\0,1\C,0,-3.85341,0.229715,-0.027424\C
 ,0,-2.736516,-0.514752,0.082512\C,0,-1.382169,0.048846,0.052074\C,0,-0
 .233422,-0.641311,-0.003372\H,0,-4.879781,-0.156245,-0.091171\H,0,-3.7
 19436,1.336604,0.063671\H,0,-2.81615,-1.585682,0.172981\H,0,-1.330862,
 1.106755,0.018698\H,0,-0.243193,-1.705128,0.018698\H,0,0.642078,-0.100
 224,-0.077385\\Version=ES64L-G09RevD.01\State=1-A\HF=-155.6947512\MP2=
 -155.9207529\RMSD=4.949e-09\PG=C01 [X(C4H6)]\\@

 Normal termination of Gaussian 09 at Wed Aug 26 09:20:00 2020.
