 Gaussian 09, Revision D.01,
 Gaussian 09:  ES64L-G09RevD.01 24-Apr-2013

 --------------------
 #p B2PLYPD3/Def2QZVP
 --------------------

 ---------
 butadiene
 ---------
 Symbolic Z-matrix:
 Charge =  0 Multiplicity = 1

                         Standard orientation:
 ---------------------------------------------------------------------
 Center     Atomic      Atomic             Coordinates (Angstroms)
 Number     Number       Type             X           Y           Z
 ---------------------------------------------------------------------
      1          6           0        1.822836   -0.119160    0.033997
      2          6           0        0.606160    0.426910   -0.076094
      3          6           0       -0.605325   -0.380390   -0.040852
      4          6           0       -1.839796    0.091772    0.016407
      5          1           0        2.777141    0.418175    0.134379
      6          1           0        1.961457   -1.234078    0.053791
      7          1           0        0.514601    1.542931    0.008562
      8          1           0       -0.478902   -1.469359   -0.035560
      9          1           0       -1.974560    1.153044    0.111278
     10          1           0       -2.702991   -0.525505    0.126801
 ---------------------------------------------------------------------

 SCF Done:  E(RB2PLYPD3) =  -155.695539205     A.U. after   11 cycles
 E2(B2PLYPD3) =    -0.2261686216D+00 E(B2PLYPD3) =    -0.15592170782693D+03

 The electronic state is 1-A.
 Alpha  occ. eigenvalues --  -10.63253 -10.62521 -10.62367 -10.60937  -0.93004
 Alpha  occ. eigenvalues --   -0.84964  -0.69819  -0.63610  -0.54919  -0.53511
 Alpha  occ. eigenvalues --   -0.46959  -0.44498  -0.40864  -0.38271  -0.27841
 Alpha virt. eigenvalues --    0.01796   0.07031   0.07243   0.07962   0.09474
 Alpha virt. eigenvalues --    0.11569   0.12612   0.14391   0.15718   0.16512
 Alpha virt. eigenvalues --    0.18787   0.20066   0.21912   0.22698   0.23654

 Mulliken charges:
               1
     1  C   -0.161542
     2  C   -0.035914
     3  C   -0.021376
     4  C   -0.171573
     5  H    0.083275
     6  H    0.055512
     7  H    0.054537
     8  H    0.050994
     9  H    0.059222
    10  H    0.086864
 Sum of Mulliken charges =   0.00000

 Dipole moment (field-independent basis, Debye):
    X=              0.0815    Y=             -0.0207    Z=              0.2879  Tot=              0.3000
 Quadrupole moment (field-independent basis, Debye-Ang):
   XX=            -23.3071   YY=            -23.3065   ZZ=            -29.2693
   XY=             -0.0162   XZ=             -0.0445   YZ=              0.1273

 1\1\GINC-NODE20\SP\RB2PLYPD3-FC\def2QZVP\C4H6\BOITTIER\26-Aug-2020\0\\
 #p B2PLYPD3/Def2QZVP\\butadiene\\0,1\C,0,-3.825661,0.230317,0.057866\C
 ,0,-2.726177,-0.52723,-0.030851\C,0,-1.390105,0.051965,-0.020023\C,0,-
 0.259322,-0.63044,0.056061\H,0,-4.860064,-0.12466,0.174077\H,0,-3.7633
 21,1.352115,0.039678\H,0,-2.834636,-1.638212,0.091653\H,0,-1.32044,1.1
 45583,-0.0518\H,0,-0.315475,-1.694938,0.187028\H,0,0.700453,-0.173519,
 0.14759\\Version=ES64L-G09RevD.01\State=1-A\HF=-155.6955392\MP2=-155.9
 217078\RMSD=5.589e-09\PG=C01 [X(C4H6)]\\@

 Normal termination of Gaussian 09 at Wed Aug 26 08:49:03 2020.
