 Gaussian 09, Revision D.01,
 Gaussian 09:  ES64L-G09RevD.01 24-Apr-2013

 --------------------
 #p B2PLYPD3/Def2QZVP
 --------------------

 ---------
 butadiene
 ---------
 Symbolic Z-matrix:
 Charge =  0 Multiplicity = 1

                         Standard orientation:
 ---------------------------------------------------------------------
 Center     Atomic      Atomic             Coordinates (Angstroms)
 Number     Number       Type             X           Y           Z
 ---------------------------------------------------------------------
      1          6           0        1.887540    0.058117    0.024939
      2          6           0        0.610190   -0.344322   -0.106241
      3          6           0       -0.605166    0.442485   -0.076918
      4          6           0       -1.860137   -0.147396    0.044340
      5          1           0        2.763817   -0.585597    0.200419
      6          1           0        2.051556    1.109627    0.199118
      7          1           0        0.397068   -1.375583    0.041755
      8          1           0       -0.506098    1.560922   -0.010246
      9          1           0       -2.038547   -1.142040    0.072695
     10          1           0       -2.862362    0.379367    0.179534
 ---------------------------------------------------------------------

 SCF Done:  E(RB2PLYPD3) =  -155.678135071     A.U. after   11 cycles
 E2(B2PLYPD3) =    -0.2280648584D+00 E(B2PLYPD3) =    -0.15590619992899D+03

 The electronic state is 1-A.
 Alpha  occ. eigenvalues --  -10.64365 -10.62685 -10.62666 -10.62044  -0.92577
 Alpha  occ. eigenvalues --   -0.84172  -0.71169  -0.64388  -0.54852  -0.53052
 Alpha  occ. eigenvalues --   -0.47235  -0.44965  -0.41056  -0.37574  -0.27220
 Alpha virt. eigenvalues --    0.00444   0.06880   0.07444   0.07976   0.09189
 Alpha virt. eigenvalues --    0.11421   0.12723   0.14431   0.15650   0.16516
 Alpha virt. eigenvalues --    0.19180   0.20115   0.21869   0.22207   0.23873

 Mulliken charges:
               1
     1  C   -0.167952
     2  C   -0.020106
     3  C   -0.041537
     4  C   -0.169068
     5  H    0.086595
     6  H    0.056202
     7  H    0.056886
     8  H    0.055868
     9  H    0.071228
    10  H    0.071884
 Sum of Mulliken charges =   0.00000

 Dipole moment (field-independent basis, Debye):
    X=             -0.1181    Y=             -0.0992    Z=              0.4933  Tot=              0.5169
 Quadrupole moment (field-independent basis, Debye-Ang):
   XX=            -22.9444   YY=            -23.6559   ZZ=            -29.3828
   XY=              0.4266   XZ=              0.3712   YZ=             -0.0015

 1\1\GINC-NODE10\SP\RB2PLYPD3-FC\def2QZVP\C4H6\BOITTIER\26-Aug-2020\0\\
 #p B2PLYPD3/Def2QZVP\\butadiene\\0,1\C,0,-3.895105,0.180145,-0.022478\
 C,0,-2.711109,-0.443181,0.120382\C,0,-1.374086,0.1119,0.084775\C,0,-0.
 24536,-0.695673,-0.022082\H,0,-4.872502,-0.298279,-0.192265\H,0,-3.867
 168,1.241193,-0.213024\H,0,-2.686547,-1.498113,-0.01129\H,0,-1.270415,
 1.22877,0.001017\H,0,-0.248569,-1.706503,-0.034828\H,0,0.835449,-0.359
 713,-0.160627\\Version=ES64L-G09RevD.01\State=1-A\HF=-155.6781351\MP2=
 -155.9061999\RMSD=7.852e-09\PG=C01 [X(C4H6)]\\@

 Normal termination of Gaussian 09 at Wed Aug 26 12:28:31 2020.
