 Gaussian 09, Revision D.01,
 Gaussian 09:  ES64L-G09RevD.01 24-Apr-2013

 --------------------
 #p B2PLYPD3/Def2QZVP
 --------------------

 ---------
 butadiene
 ---------
 Symbolic Z-matrix:
 Charge =  0 Multiplicity = 1

                         Standard orientation:
 ---------------------------------------------------------------------
 Center     Atomic      Atomic             Coordinates (Angstroms)
 Number     Number       Type             X           Y           Z
 ---------------------------------------------------------------------
      1          6           0       -1.785656   -0.133581   -0.072768
      2          6           0       -0.583306    0.439138    0.066629
      3          6           0        0.581545   -0.368603    0.128262
      4          6           0        1.831083    0.088645   -0.062058
      5          1           0       -2.698388    0.433956   -0.077997
      6          1           0       -1.992989   -1.275095   -0.020925
      7          1           0       -0.641950    1.584991    0.010201
      8          1           0        0.423694   -1.409638   -0.049574
      9          1           0        2.024068    1.136465   -0.076524
     10          1           0        2.623574   -0.624274   -0.145571
 ---------------------------------------------------------------------

 SCF Done:  E(RB2PLYPD3) =  -155.683299784     A.U. after   11 cycles
 E2(B2PLYPD3) =    -0.2272195270D+00 E(B2PLYPD3) =    -0.15591051931135D+03

 The electronic state is 1-A.
 Alpha  occ. eigenvalues --  -10.63074 -10.62142 -10.62085 -10.61301  -0.93529
 Alpha  occ. eigenvalues --   -0.84713  -0.70151  -0.63460  -0.54726  -0.53911
 Alpha  occ. eigenvalues --   -0.45595  -0.44853  -0.41387  -0.38452  -0.27307
 Alpha virt. eigenvalues --    0.01395   0.07112   0.07159   0.07855   0.09222
 Alpha virt. eigenvalues --    0.11646   0.12390   0.14561   0.15434   0.16397
 Alpha virt. eigenvalues --    0.18901   0.19463   0.21554   0.23165   0.24127

 Mulliken charges:
               1
     1  C   -0.166315
     2  C   -0.033359
     3  C   -0.029125
     4  C   -0.178219
     5  H    0.077241
     6  H    0.050684
     7  H    0.053410
     8  H    0.066375
     9  H    0.074364
    10  H    0.084943
 Sum of Mulliken charges =   0.00000

 Dipole moment (field-independent basis, Debye):
    X=             -0.0432    Y=              0.0410    Z=             -0.1882  Tot=              0.1974
 Quadrupole moment (field-independent basis, Debye-Ang):
   XX=            -23.7630   YY=            -23.0456   ZZ=            -29.2988
   XY=             -0.0615   XZ=             -0.4124   YZ=              0.1019

 1\1\GINC-NODE32\SP\RB2PLYPD3-FC\def2QZVP\C4H6\BOITTIER\26-Aug-2020\0\\
 #p B2PLYPD3/Def2QZVP\\butadiene\\0,1\C,0,-3.787929,0.245574,0.093965\C
 ,0,-2.709748,-0.538268,-0.033329\C,0,-1.416957,0.042841,-0.097563\C,0,
 -0.272331,-0.632363,0.103862\H,0,-4.788857,-0.145968,0.100548\H,0,-3.7
 83479,1.405099,0.029079\H,0,-2.97652,-1.65352,0.034844\H,0,-1.382878,1
 .097142,0.06852\H,0,-0.273689,-1.697575,0.130316\H,0,0.636612,-0.07496
 6,0.18388\\Version=ES64L-G09RevD.01\State=1-A\HF=-155.6832998\MP2=-155
 .9105193\RMSD=9.127e-09\PG=C01 [X(C4H6)]\\@

 Normal termination of Gaussian 09 at Wed Aug 26 16:01:37 2020.
