 Gaussian 09, Revision D.01,
 Gaussian 09:  ES64L-G09RevD.01 24-Apr-2013

 --------------------
 #p B2PLYPD3/Def2QZVP
 --------------------

 ---------
 butadiene
 ---------
 Symbolic Z-matrix:
 Charge =  0 Multiplicity = 1

                         Standard orientation:
 ---------------------------------------------------------------------
 Center     Atomic      Atomic             Coordinates (Angstroms)
 Number     Number       Type             X           Y           Z
 ---------------------------------------------------------------------
      1          6           0        1.876841    0.129468    0.014256
      2          6           0        0.646956   -0.450180   -0.002718
      3          6           0       -0.623316    0.377153   -0.029062
      4          6           0       -1.869199   -0.090476   -0.006010
      5          1           0        2.749885   -0.473383   -0.040530
      6          1           0        1.940853    1.297027    0.151329
      7          1           0        0.407354   -1.474093   -0.183916
      8          1           0       -0.525232    1.402991   -0.026067
      9          1           0       -2.077573   -1.096881    0.326834
     10          1           0       -2.682970    0.548546   -0.086442
 ---------------------------------------------------------------------

 SCF Done:  E(RB2PLYPD3) =  -155.680904513     A.U. after   11 cycles
 E2(B2PLYPD3) =    -0.2264638962D+00 E(B2PLYPD3) =    -0.15590736840971D+03

 The electronic state is 1-A.
 Alpha  occ. eigenvalues --  -10.63422 -10.63077 -10.62119 -10.60752  -0.92121
 Alpha  occ. eigenvalues --   -0.84880  -0.69987  -0.64493  -0.54827  -0.53230
 Alpha  occ. eigenvalues --   -0.47273  -0.45774  -0.40768  -0.36995  -0.27821
 Alpha virt. eigenvalues --    0.01519   0.06962   0.07406   0.08287   0.08798
 Alpha virt. eigenvalues --    0.11682   0.12278   0.14531   0.15149   0.16534
 Alpha virt. eigenvalues --    0.18725   0.19549   0.21415   0.22696   0.24142

 Mulliken charges:
               1
     1  C   -0.170249
     2  C   -0.060419
     3  C   -0.028386
     4  C   -0.181557
     5  H    0.095362
     6  H    0.068406
     7  H    0.071715
     8  H    0.057868
     9  H    0.064747
    10  H    0.082513
 Sum of Mulliken charges =   0.00000

 Dipole moment (field-independent basis, Debye):
    X=              0.0338    Y=              0.0377    Z=              0.1133  Tot=              0.1241
 Quadrupole moment (field-independent basis, Debye-Ang):
   XX=            -23.5363   YY=            -23.2488   ZZ=            -29.2242
   XY=             -0.0213   XZ=             -0.3735   YZ=              0.0181

 1\1\GINC-NODE26\SP\RB2PLYPD3-FC\def2QZVP\C4H6\BOITTIER\26-Aug-2020\0\\
 #p B2PLYPD3/Def2QZVP\\butadiene\\0,1\C,0,-3.872222,0.245367,0.006082\C
 ,0,-2.763577,-0.541037,0.043125\C,0,-1.36727,0.049772,0.037181\C,0,-0.
 223455,-0.63072,0.030042\H,0,-4.837356,-0.191713,0.084281\H,0,-3.73062
 9,1.400149,-0.174223\H,0,-2.706688,-1.583874,0.261975\H,0,-1.283143,1.
 076034,-0.00383\H,0,-0.198193,-1.66953,-0.265408\H,0,0.69075,-0.14269,
 0.085693\\Version=ES64L-G09RevD.01\State=1-A\HF=-155.6809045\MP2=-155.
 9073684\RMSD=9.689e-09\PG=C01 [X(C4H6)]\\@

 Normal termination of Gaussian 09 at Wed Aug 26 14:25:08 2020.
