 Gaussian 09, Revision D.01,
 Gaussian 09:  ES64L-G09RevD.01 24-Apr-2013

 --------------------
 #p B2PLYPD3/Def2QZVP
 --------------------

 ---------
 butadiene
 ---------
 Symbolic Z-matrix:
 Charge =  0 Multiplicity = 1

                         Standard orientation:
 ---------------------------------------------------------------------
 Center     Atomic      Atomic             Coordinates (Angstroms)
 Number     Number       Type             X           Y           Z
 ---------------------------------------------------------------------
      1          6           0        1.842460   -0.107465   -0.026625
      2          6           0        0.607009    0.399536    0.022642
      3          6           0       -0.601823   -0.397399    0.009420
      4          6           0       -1.848606    0.107742   -0.020334
      5          1           0        2.701754    0.520523   -0.002771
      6          1           0        1.995043   -1.160472   -0.033243
      7          1           0        0.463253    1.471197    0.099965
      8          1           0       -0.432637   -1.467677    0.074517
      9          1           0       -2.038505    1.169710   -0.080097
     10          1           0       -2.683143   -0.547766    0.031008
 ---------------------------------------------------------------------

 SCF Done:  E(RB2PLYPD3) =  -155.700503671     A.U. after   11 cycles
 E2(B2PLYPD3) =    -0.2256483474D+00 E(B2PLYPD3) =    -0.15592615201812D+03

 The electronic state is 1-A.
 Alpha  occ. eigenvalues --  -10.62600 -10.62374 -10.61490 -10.61169  -0.92984
 Alpha  occ. eigenvalues --   -0.84898  -0.70661  -0.64151  -0.54770  -0.54069
 Alpha  occ. eigenvalues --   -0.46803  -0.46159  -0.41261  -0.37957  -0.27562
 Alpha virt. eigenvalues --    0.01532   0.07051   0.07456   0.08134   0.09644
 Alpha virt. eigenvalues --    0.11712   0.12442   0.14868   0.15893   0.16037
 Alpha virt. eigenvalues --    0.18824   0.20554   0.21636   0.22871   0.23794

 Mulliken charges:
               1
     1  C   -0.178901
     2  C   -0.025926
     3  C   -0.031757
     4  C   -0.181816
     5  H    0.087801
     6  H    0.065728
     7  H    0.053156
     8  H    0.053297
     9  H    0.070030
    10  H    0.088390
 Sum of Mulliken charges =   0.00000

 Dipole moment (field-independent basis, Debye):
    X=              0.0156    Y=              0.0016    Z=              0.0987  Tot=              0.1000
 Quadrupole moment (field-independent basis, Debye-Ang):
   XX=            -23.4432   YY=            -23.1030   ZZ=            -29.2318
   XY=             -0.2374   XZ=              0.0072   YZ=             -0.0622

 1\1\GINC-NODE18\SP\RB2PLYPD3-FC\def2QZVP\C4H6\BOITTIER\26-Aug-2020\0\\
 #p B2PLYPD3/Def2QZVP\\butadiene\\0,1\C,0,-3.844166,0.226685,-0.005301\
 C,0,-2.721901,-0.49593,0.059243\C,0,-1.387929,0.066234,0.026902\C,0,-0
 .254443,-0.658693,0.012421\H,0,-4.803595,-0.232982,0.03376\H,0,-3.8019
 38,1.289308,-0.039917\H,0,-2.775982,-1.573422,0.165017\H,0,-1.358636,1
 .150743,0.063495\H,0,-0.261836,-1.738677,-0.019027\H,0,0.685917,-0.165
 487,0.047766\\Version=ES64L-G09RevD.01\State=1-A\HF=-155.7005037\MP2=-
 155.926152\RMSD=4.013e-09\PG=C01 [X(C4H6)]\\@

 Normal termination of Gaussian 09 at Wed Aug 26 18:34:11 2020.
