 Gaussian 09, Revision D.01,
 Gaussian 09:  ES64L-G09RevD.01 24-Apr-2013

 --------------------
 #p B2PLYPD3/Def2QZVP
 --------------------

 ---------
 butadiene
 ---------
 Symbolic Z-matrix:
 Charge =  0 Multiplicity = 1

                         Standard orientation:
 ---------------------------------------------------------------------
 Center     Atomic      Atomic             Coordinates (Angstroms)
 Number     Number       Type             X           Y           Z
 ---------------------------------------------------------------------
      1          6           0        1.824236    0.093164    0.036398
      2          6           0        0.601217   -0.394655   -0.049813
      3          6           0       -0.599614    0.419883   -0.045960
      4          6           0       -1.820520   -0.128198    0.009729
      5          1           0        2.699946   -0.483056    0.053420
      6          1           0        1.965144    1.180680    0.039919
      7          1           0        0.466824   -1.491143    0.018419
      8          1           0       -0.499580    1.529839   -0.020633
      9          1           0       -1.979099   -1.218814    0.050704
     10          1           0       -2.685149    0.541328    0.156050
 ---------------------------------------------------------------------

 SCF Done:  E(RB2PLYPD3) =  -155.696642002     A.U. after   11 cycles
 E2(B2PLYPD3) =    -0.2260166629D+00 E(B2PLYPD3) =    -0.15592265866497D+03

 The electronic state is 1-A.
 Alpha  occ. eigenvalues --  -10.62924 -10.62448 -10.61971 -10.60961  -0.93114
 Alpha  occ. eigenvalues --   -0.84980  -0.69785  -0.63528  -0.54698  -0.53805
 Alpha  occ. eigenvalues --   -0.46491  -0.44951  -0.41075  -0.38302  -0.27743
 Alpha virt. eigenvalues --    0.01915   0.07055   0.07168   0.07998   0.09493
 Alpha virt. eigenvalues --    0.11700   0.12429   0.14615   0.15707   0.16307
 Alpha virt. eigenvalues --    0.18704   0.19928   0.21788   0.23027   0.23896

 Mulliken charges:
               1
     1  C   -0.171583
     2  C   -0.022480
     3  C   -0.032551
     4  C   -0.172515
     5  H    0.088838
     6  H    0.055778
     7  H    0.050474
     8  H    0.054048
     9  H    0.068892
    10  H    0.081099
 Sum of Mulliken charges =   0.00000

 Dipole moment (field-independent basis, Debye):
    X=              0.0344    Y=             -0.0038    Z=              0.2039  Tot=              0.2068
 Quadrupole moment (field-independent basis, Debye-Ang):
   XX=            -23.7275   YY=            -23.0314   ZZ=            -29.2708
   XY=              0.0476   XZ=             -0.3099   YZ=             -0.0023

 1\1\GINC-NODE10\SP\RB2PLYPD3-FC\def2QZVP\C4H6\BOITTIER\26-Aug-2020\0\\
 #p B2PLYPD3/Def2QZVP\\butadiene\\0,1\C,0,-3.829288,0.205812,-0.018268\
 C,0,-2.713839,-0.492329,0.07945\C,0,-1.385848,0.091849,0.053803\C,0,-0
 .28411,-0.668719,0.011212\H,0,-4.794629,-0.203211,-0.019846\H,0,-3.771
 792,1.30047,-0.049524\H,0,-2.779747,-1.596431,0.039211\H,0,-1.284221,1
 .200652,0.000141\H,0,-0.325023,-1.770727,-0.001948\H,0,0.686278,-0.170
 042,-0.15288\\Version=ES64L-G09RevD.01\State=1-A\HF=-155.696642\MP2=-1
 55.9226587\RMSD=6.633e-09\PG=C01 [X(C4H6)]\\@

 Normal termination of Gaussian 09 at Wed Aug 26 08:41:41 2020.
