 Gaussian 09, Revision D.01,
 Gaussian 09:  ES64L-G09RevD.01 24-Apr-2013

 --------------------
 #p B2PLYPD3/Def2QZVP
 --------------------

 ---------
 butadiene
 ---------
 Symbolic Z-matrix:
 Charge =  0 Multiplicity = 1

                         Standard orientation:
 ---------------------------------------------------------------------
 Center     Atomic      Atomic             Coordinates (Angstroms)
 Number     Number       Type             X           Y           Z
 ---------------------------------------------------------------------
      1          6           0       -1.857763   -0.121942   -0.018481
      2          6           0       -0.602645    0.415638    0.028479
      3          6           0        0.609117   -0.362948    0.067677
      4          6           0        1.853161    0.093341   -0.043826
      5          1           0       -2.737005    0.482113   -0.102116
      6          1           0       -1.989176   -1.165690   -0.013877
      7          1           0       -0.432370    1.467345    0.008787
      8          1           0        0.462141   -1.444488   -0.041012
      9          1           0        2.075111    1.144463    0.007798
     10          1           0        2.610079   -0.628276   -0.062675
 ---------------------------------------------------------------------

 SCF Done:  E(RB2PLYPD3) =  -155.695342236     A.U. after   11 cycles
 E2(B2PLYPD3) =    -0.2260175361D+00 E(B2PLYPD3) =    -0.15592135977244D+03

 The electronic state is 1-A.
 Alpha  occ. eigenvalues --  -10.62718 -10.62230 -10.61696 -10.61021  -0.93032
 Alpha  occ. eigenvalues --   -0.84916  -0.71112  -0.64120  -0.54836  -0.54193
 Alpha  occ. eigenvalues --   -0.46943  -0.46228  -0.41201  -0.38034  -0.27436
 Alpha virt. eigenvalues --    0.01193   0.07038   0.07543   0.08162   0.09608
 Alpha virt. eigenvalues --    0.11724   0.12428   0.14942   0.15609   0.16219
 Alpha virt. eigenvalues --    0.18828   0.19864   0.21883   0.23179   0.24137

 Mulliken charges:
               1
     1  C   -0.178865
     2  C   -0.039318
     3  C   -0.016155
     4  C   -0.182754
     5  H    0.088523
     6  H    0.070590
     7  H    0.054770
     8  H    0.045790
     9  H    0.069428
    10  H    0.087991
 Sum of Mulliken charges =   0.00000

 Dipole moment (field-independent basis, Debye):
    X=             -0.0071    Y=              0.0039    Z=             -0.1142  Tot=              0.1145
 Quadrupole moment (field-independent basis, Debye-Ang):
   XX=            -23.4659   YY=            -23.1215   ZZ=            -29.2297
   XY=              0.2355   XZ=              0.1418   YZ=              0.0961

 1\1\GINC-NODE24\SP\RB2PLYPD3-FC\def2QZVP\C4H6\BOITTIER\26-Aug-2020\0\\
 #p B2PLYPD3/Def2QZVP\\butadiene\\0,1\C,0,-3.855948,0.246986,0.04431\C,
 0,-2.720368,-0.5117,0.007272\C,0,-1.386825,0.031462,-0.045034\C,0,-0.2
 46832,-0.642556,0.07494\H,0,-4.83055,-0.18463,0.138132\H,0,-3.794384,1
 .296932,0.021406\H,0,-2.745137,-1.576313,0.045417\H,0,-1.333338,1.1233
 58,0.04467\H,0,-0.220889,-1.717271,0.041792\H,0,0.629282,-0.071246,0.0
 81482\\Version=ES64L-G09RevD.01\State=1-A\HF=-155.6953422\MP2=-155.921
 3598\RMSD=6.525e-09\PG=C01 [X(C4H6)]\\@

 Normal termination of Gaussian 09 at Wed Aug 26 10:13:35 2020.
