 Gaussian 09, Revision D.01,
 Gaussian 09:  ES64L-G09RevD.01 24-Apr-2013

 --------------------
 #p B2PLYPD3/Def2QZVP
 --------------------

 ---------
 butadiene
 ---------
 Symbolic Z-matrix:
 Charge =  0 Multiplicity = 1

                         Standard orientation:
 ---------------------------------------------------------------------
 Center     Atomic      Atomic             Coordinates (Angstroms)
 Number     Number       Type             X           Y           Z
 ---------------------------------------------------------------------
      1          6           0        1.834098   -0.119455    0.020934
      2          6           0        0.616731    0.407134   -0.026741
      3          6           0       -0.601272   -0.381890   -0.030781
      4          6           0       -1.837527    0.106171    0.004624
      5          1           0        2.706211    0.497998    0.022525
      6          1           0        1.950040   -1.194389    0.039080
      7          1           0        0.465902    1.470934    0.006766
      8          1           0       -0.493075   -1.442129   -0.015752
      9          1           0       -2.011858    1.163449    0.051200
     10          1           0       -2.689400   -0.567620    0.087961
 ---------------------------------------------------------------------

 SCF Done:  E(RB2PLYPD3) =  -155.700894821     A.U. after   11 cycles
 E2(B2PLYPD3) =    -0.2251455010D+00 E(B2PLYPD3) =    -0.15592604032187D+03

 The electronic state is 1-A.
 Alpha  occ. eigenvalues --  -10.62249 -10.62011 -10.61305 -10.61285  -0.93233
 Alpha  occ. eigenvalues --   -0.85206  -0.70193  -0.64386  -0.54657  -0.54234
 Alpha  occ. eigenvalues --   -0.46780  -0.45865  -0.41173  -0.38230  -0.27811
 Alpha virt. eigenvalues --    0.01864   0.07005   0.07505   0.08110   0.09744
 Alpha virt. eigenvalues --    0.11765   0.12442   0.14786   0.15820   0.16133
 Alpha virt. eigenvalues --    0.18761   0.20392   0.21638   0.22812   0.24165

 Mulliken charges:
               1
     1  C   -0.175074
     2  C   -0.034170
     3  C   -0.022594
     4  C   -0.179269
     5  H    0.088821
     6  H    0.066681
     7  H    0.054434
     8  H    0.052381
     9  H    0.064752
    10  H    0.084037
 Sum of Mulliken charges =   0.00000

 Dipole moment (field-independent basis, Debye):
    X=              0.0389    Y=              0.0016    Z=              0.1378  Tot=              0.1432
 Quadrupole moment (field-independent basis, Debye-Ang):
   XX=            -23.5817   YY=            -23.0717   ZZ=            -29.1564
   XY=             -0.0325   XZ=             -0.2235   YZ=             -0.0095

 1\1\GINC-NODE37\SP\RB2PLYPD3-FC\def2QZVP\C4H6\BOITTIER\26-Aug-2020\0\\
 #p B2PLYPD3/Def2QZVP\\butadiene\\0,1\C,0,-3.833747,0.231271,0.039307\C
 ,0,-2.729931,-0.50517,0.011117\C,0,-1.390714,0.053493,-0.011256\C,0,-0
 .261304,-0.646021,0.04256\H,0,-4.802019,-0.220413,0.055533\H,0,-3.7560
 33,1.309715,0.026147\H,0,-2.771247,-1.577394,0.075712\H,0,-1.308006,1.
 116013,-0.027082\H,0,-0.278311,-1.715644,0.120115\H,0,0.697241,-0.1328
 62,0.109535\\Version=ES64L-G09RevD.01\State=1-A\HF=-155.7008948\MP2=-1
 55.9260403\RMSD=3.425e-09\PG=C01 [X(C4H6)]\\@

 Normal termination of Gaussian 09 at Wed Aug 26 21:48:57 2020.
