 Gaussian 09, Revision D.01,
 Gaussian 09:  ES64L-G09RevD.01 24-Apr-2013

 --------------------
 #p B2PLYPD3/Def2QZVP
 --------------------

 ---------
 butadiene
 ---------
 Symbolic Z-matrix:
 Charge =  0 Multiplicity = 1

                         Standard orientation:
 ---------------------------------------------------------------------
 Center     Atomic      Atomic             Coordinates (Angstroms)
 Number     Number       Type             X           Y           Z
 ---------------------------------------------------------------------
      1          6           0        1.863728    0.080077    0.058572
      2          6           0        0.639245   -0.354868   -0.124694
      3          6           0       -0.617771    0.437650   -0.058840
      4          6           0       -1.835772   -0.153811    0.029280
      5          1           0        2.697500   -0.521298    0.157601
      6          1           0        2.065165    1.086319    0.083506
      7          1           0        0.442185   -1.403401    0.058546
      8          1           0       -0.712505    1.606310   -0.001069
      9          1           0       -1.999642   -1.230807    0.091106
     10          1           0       -2.789278    0.408587    0.184406
 ---------------------------------------------------------------------

 SCF Done:  E(RB2PLYPD3) =  -155.680167903     A.U. after   11 cycles
 E2(B2PLYPD3) =    -0.2264802014D+00 E(B2PLYPD3) =    -0.15590664810458D+03

 The electronic state is 1-A.
 Alpha  occ. eigenvalues --  -10.64221 -10.62754 -10.62298 -10.60305  -0.92544
 Alpha  occ. eigenvalues --   -0.85204  -0.70321  -0.63527  -0.55092  -0.53950
 Alpha  occ. eigenvalues --   -0.46596  -0.44882  -0.40499  -0.37771  -0.28031
 Alpha virt. eigenvalues --    0.01688   0.07019   0.07380   0.07827   0.09163
 Alpha virt. eigenvalues --    0.11471   0.12614   0.14334   0.15435   0.16943
 Alpha virt. eigenvalues --    0.18929   0.19550   0.21703   0.23388   0.23614

 Mulliken charges:
               1
     1  C   -0.160782
     2  C   -0.026749
     3  C   -0.045308
     4  C   -0.165417
     5  H    0.085289
     6  H    0.067153
     7  H    0.061562
     8  H    0.051148
     9  H    0.058300
    10  H    0.074802
 Sum of Mulliken charges =   0.00000

 Dipole moment (field-independent basis, Debye):
    X=              0.0585    Y=             -0.0092    Z=              0.3958  Tot=              0.4002
 Quadrupole moment (field-independent basis, Debye-Ang):
   XX=            -22.8975   YY=            -23.4493   ZZ=            -29.2307
   XY=              0.1156   XZ=             -0.0277   YZ=             -0.1322

 1\1\GINC-NODE38\SP\RB2PLYPD3-FC\def2QZVP\C4H6\BOITTIER\26-Aug-2020\0\\
 #p B2PLYPD3/Def2QZVP\\butadiene\\0,1\C,0,-3.869856,0.179755,-0.046564\
 C,0,-2.737173,-0.456041,0.14029\C,0,-1.36365,0.110553,0.070164\C,0,-0.
 264113,-0.680117,-0.01336\H,0,-4.793854,-0.27158,-0.14227\H,0,-3.89712
 1,1.205417,-0.078095\H,0,-2.721513,-1.523973,-0.03608\H,0,-1.071438,1.
 245647,0.004947\H,0,-0.285948,-1.769666,-0.068158\H,0,0.771124,-0.2892
 04,-0.171476\\Version=ES64L-G09RevD.01\State=1-A\HF=-155.6801679\MP2=-
 155.9066481\RMSD=7.318e-09\PG=C01 [X(C4H6)]\\@

 Normal termination of Gaussian 09 at Wed Aug 26 15:54:49 2020.
