 Gaussian 09, Revision D.01,
 Gaussian 09:  ES64L-G09RevD.01 24-Apr-2013

 --------------------
 #p B2PLYPD3/Def2QZVP
 --------------------

 ---------
 butadiene
 ---------
 Symbolic Z-matrix:
 Charge =  0 Multiplicity = 1

                         Standard orientation:
 ---------------------------------------------------------------------
 Center     Atomic      Atomic             Coordinates (Angstroms)
 Number     Number       Type             X           Y           Z
 ---------------------------------------------------------------------
      1          6           0        1.834790    0.089187    0.040427
      2          6           0        0.609899   -0.390666   -0.031367
      3          6           0       -0.597512    0.446243   -0.023183
      4          6           0       -1.832210   -0.133682    0.020363
      5          1           0        2.709532   -0.540563   -0.011761
      6          1           0        1.960256    1.145753   -0.011317
      7          1           0        0.397135   -1.483369   -0.092285
      8          1           0       -0.441167    1.522236    0.012505
      9          1           0       -1.994721   -1.206311    0.116624
     10          1           0       -2.720834    0.495770   -0.051207
 ---------------------------------------------------------------------

 SCF Done:  E(RB2PLYPD3) =  -155.695832897     A.U. after   11 cycles
 E2(B2PLYPD3) =    -0.2263743921D+00 E(B2PLYPD3) =    -0.15592220728907D+03

 The electronic state is 1-A.
 Alpha  occ. eigenvalues --  -10.63214 -10.62544 -10.62229 -10.60927  -0.92767
 Alpha  occ. eigenvalues --   -0.84644  -0.69881  -0.63949  -0.54421  -0.53615
 Alpha  occ. eigenvalues --   -0.46897  -0.45615  -0.40934  -0.37822  -0.27589
 Alpha virt. eigenvalues --    0.01681   0.07032   0.07261   0.08111   0.09226
 Alpha virt. eigenvalues --    0.11749   0.12448   0.14654   0.15678   0.16135
 Alpha virt. eigenvalues --    0.18729   0.20286   0.21714   0.23120   0.23661

 Mulliken charges:
               1
     1  C   -0.175910
     2  C   -0.015164
     3  C   -0.045497
     4  C   -0.177921
     5  H    0.086669
     6  H    0.062610
     7  H    0.048656
     8  H    0.060654
     9  H    0.073074
    10  H    0.082829
 Sum of Mulliken charges =   0.00000

 Dipole moment (field-independent basis, Debye):
    X=             -0.0300    Y=              0.0104    Z=             -0.0695  Tot=              0.0764
 Quadrupole moment (field-independent basis, Debye-Ang):
   XX=            -23.7023   YY=            -23.0277   ZZ=            -29.3547
   XY=              0.3152   XZ=             -0.2009   YZ=             -0.0767

 1\1\GINC-NODE20\SP\RB2PLYPD3-FC\def2QZVP\C4H6\BOITTIER\26-Aug-2020\0\\
 #p B2PLYPD3/Def2QZVP\\butadiene\\0,1\C,0,-3.838598,0.206297,-0.016968\
 C,0,-2.721803,-0.487629,0.066751\C,0,-1.381761,0.113866,0.038176\C,0,-
 0.274128,-0.682995,0.009049\H,0,-4.81351,-0.25138,0.050554\H,0,-3.7685
 19,1.268924,0.008796\H,0,-2.712174,-1.599017,0.154515\H,0,-1.338869,1.
 199122,-0.023947\H,0,-0.310918,-1.769261,-0.060819\H,0,0.714918,-0.225
 158,0.065257\\Version=ES64L-G09RevD.01\State=1-A\HF=-155.6958329\MP2=-
 155.9222073\RMSD=7.881e-09\PG=C01 [X(C4H6)]\\@

 Normal termination of Gaussian 09 at Wed Aug 26 08:57:02 2020.
