 Gaussian 09, Revision D.01,
 Gaussian 09:  ES64L-G09RevD.01 24-Apr-2013

 --------------------
 #p B2PLYPD3/Def2QZVP
 --------------------

 ---------
 butadiene
 ---------
 Symbolic Z-matrix:
 Charge =  0 Multiplicity = 1

                         Standard orientation:
 ---------------------------------------------------------------------
 Center     Atomic      Atomic             Coordinates (Angstroms)
 Number     Number       Type             X           Y           Z
 ---------------------------------------------------------------------
      1          6           0        1.848296   -0.112239    0.007332
      2          6           0        0.611367    0.403925   -0.021908
      3          6           0       -0.618025   -0.405549   -0.004664
      4          6           0       -1.846049    0.117737    0.018328
      5          1           0        2.731768    0.525033   -0.021376
      6          1           0        1.996924   -1.180928    0.094788
      7          1           0        0.488061    1.475981   -0.011273
      8          1           0       -0.453018   -1.477527   -0.057157
      9          1           0       -2.026846    1.194415    0.050929
     10          1           0       -2.710425   -0.560215   -0.050439
 ---------------------------------------------------------------------

 SCF Done:  E(RB2PLYPD3) =  -155.699887215     A.U. after   11 cycles
 E2(B2PLYPD3) =    -0.2259748301D+00 E(B2PLYPD3) =    -0.15592586204529D+03

 The electronic state is 1-A.
 Alpha  occ. eigenvalues --  -10.62735 -10.62595 -10.61896 -10.61664  -0.92651
 Alpha  occ. eigenvalues --   -0.84793  -0.69771  -0.64070  -0.54148  -0.53825
 Alpha  occ. eigenvalues --   -0.46728  -0.45712  -0.40925  -0.37835  -0.27758
 Alpha virt. eigenvalues --    0.01772   0.06970   0.07390   0.08041   0.09434
 Alpha virt. eigenvalues --    0.11701   0.12295   0.14673   0.15733   0.16081
 Alpha virt. eigenvalues --    0.18808   0.20458   0.21375   0.22883   0.23806

 Mulliken charges:
               1
     1  C   -0.177573
     2  C   -0.031287
     3  C   -0.035629
     4  C   -0.175171
     5  H    0.086345
     6  H    0.065045
     7  H    0.055642
     8  H    0.057170
     9  H    0.071403
    10  H    0.084057
 Sum of Mulliken charges =   0.00000

 Dipole moment (field-independent basis, Debye):
    X=              0.0023    Y=              0.0117    Z=             -0.0073  Tot=              0.0140
 Quadrupole moment (field-independent basis, Debye-Ang):
   XX=            -23.6320   YY=            -23.0219   ZZ=            -29.3541
   XY=             -0.1793   XZ=              0.2127   YZ=              0.0349

 1\1\GINC-NODE24\SP\RB2PLYPD3-FC\def2QZVP\C4H6\BOITTIER\26-Aug-2020\0\\
 #p B2PLYPD3/Def2QZVP\\butadiene\\0,1\C,0,-3.851372,0.225259,0.027996\C
 ,0,-2.726281,-0.503636,0.015504\C,0,-1.372338,0.074046,0.00698\C,0,-0.
 256987,-0.658619,0.046921\H,0,-4.834332,-0.24504,0.019595\H,0,-3.80687
 3,1.305551,0.081128\H,0,-2.795751,-1.579633,0.060516\H,0,-1.344149,1.1
 56073,-0.079872\H,0,-0.270587,-1.748708,0.114044\H,0,0.713883,-0.14798
 6,-0.04341\\Version=ES64L-G09RevD.01\State=1-A\HF=-155.6998872\MP2=-15
 5.925862\RMSD=2.551e-09\PG=C01 [X(C4H6)]\\@

 Normal termination of Gaussian 09 at Wed Aug 26 22:00:02 2020.
