 Gaussian 09, Revision D.01,
 Gaussian 09:  ES64L-G09RevD.01 24-Apr-2013

 --------------------
 #p B2PLYPD3/Def2QZVP
 --------------------

 ---------
 butadiene
 ---------
 Symbolic Z-matrix:
 Charge =  0 Multiplicity = 1

                         Standard orientation:
 ---------------------------------------------------------------------
 Center     Atomic      Atomic             Coordinates (Angstroms)
 Number     Number       Type             X           Y           Z
 ---------------------------------------------------------------------
      1          6           0        1.839329   -0.124079    0.037710
      2          6           0        0.626322    0.402582   -0.066934
      3          6           0       -0.609179   -0.368460   -0.028907
      4          6           0       -1.852919    0.090006    0.051993
      5          1           0        2.744675    0.511011    0.138073
      6          1           0        2.004538   -1.199590   -0.005891
      7          1           0        0.522764    1.488166   -0.017047
      8          1           0       -0.514718   -1.479085   -0.100900
      9          1           0       -2.029273    1.167288   -0.055999
     10          1           0       -2.749301   -0.488083    0.078595
 ---------------------------------------------------------------------

 SCF Done:  E(RB2PLYPD3) =  -155.696033064     A.U. after   11 cycles
 E2(B2PLYPD3) =    -0.2258928868D+00 E(B2PLYPD3) =    -0.15592192595099D+03

 The electronic state is 1-A.
 Alpha  occ. eigenvalues --  -10.62876 -10.62752 -10.62023 -10.61386  -0.92947
 Alpha  occ. eigenvalues --   -0.85179  -0.70086  -0.63569  -0.54811  -0.53706
 Alpha  occ. eigenvalues --   -0.47359  -0.44681  -0.40612  -0.38042  -0.27975
 Alpha virt. eigenvalues --    0.01702   0.06984   0.07402   0.07908   0.09673
 Alpha virt. eigenvalues --    0.11543   0.12507   0.14510   0.15667   0.16479
 Alpha virt. eigenvalues --    0.18954   0.20037   0.21612   0.22948   0.23540

 Mulliken charges:
               1
     1  C   -0.164443
     2  C   -0.035806
     3  C   -0.024517
     4  C   -0.170126
     5  H    0.082871
     6  H    0.069018
     7  H    0.056538
     8  H    0.044924
     9  H    0.053152
    10  H    0.088389
 Sum of Mulliken charges =   0.00000

 Dipole moment (field-independent basis, Debye):
    X=              0.0507    Y=             -0.0058    Z=             -0.0374  Tot=              0.0633
 Quadrupole moment (field-independent basis, Debye-Ang):
   XX=            -23.0784   YY=            -23.4264   ZZ=            -29.2419
   XY=              0.0033   XZ=              0.3539   YZ=              0.0917

 1\1\GINC-NODE39\SP\RB2PLYPD3-FC\def2QZVP\C4H6\BOITTIER\26-Aug-2020\0\\
 #p B2PLYPD3/Def2QZVP\\butadiene\\0,1\C,0,-3.84021,0.23086,0.060228\C,0
 ,-2.73907,-0.503726,-0.026847\C,0,-1.387306,0.03946,-0.017081\C,0,-0.2
 4265,-0.627014,0.078843\H,0,-4.842136,-0.231705,0.18369\H,0,-3.814636,
 1.316517,-0.021095\H,0,-2.827061,-1.588262,0.061167\H,0,-1.286125,1.14
 6273,-0.128077\H,0,-0.258629,-1.721604,0.008721\H,0,0.741351,-0.214575
 ,0.084284\\Version=ES64L-G09RevD.01\State=1-A\HF=-155.6960331\MP2=-155
 .921926\RMSD=6.253e-09\PG=C01 [X(C4H6)]\\@

 Normal termination of Gaussian 09 at Wed Aug 26 10:46:50 2020.
