 Gaussian 09, Revision D.01,
 Gaussian 09:  ES64L-G09RevD.01 24-Apr-2013

 --------------------
 #p B2PLYPD3/Def2QZVP
 --------------------

 ---------
 butadiene
 ---------
 Symbolic Z-matrix:
 Charge =  0 Multiplicity = 1

                         Standard orientation:
 ---------------------------------------------------------------------
 Center     Atomic      Atomic             Coordinates (Angstroms)
 Number     Number       Type             X           Y           Z
 ---------------------------------------------------------------------
      1          6           0        1.821496    0.068150    0.048418
      2          6           0        0.586144   -0.390303   -0.097331
      3          6           0       -0.587937    0.458284   -0.020678
      4          6           0       -1.796934   -0.140795    0.063888
      5          1           0        2.634119   -0.597685    0.199468
      6          1           0        2.080780    1.175899   -0.074577
      7          1           0        0.421084   -1.397172    0.012137
      8          1           0       -0.472648    1.572904   -0.064554
      9          1           0       -2.069249   -1.204257   -0.122911
     10          1           0       -2.730700    0.478293    0.084660
 ---------------------------------------------------------------------

 SCF Done:  E(RB2PLYPD3) =  -155.683277291     A.U. after   11 cycles
 E2(B2PLYPD3) =    -0.2269306797D+00 E(B2PLYPD3) =    -0.15591020797118D+03

 The electronic state is 1-A.
 Alpha  occ. eigenvalues --  -10.63460 -10.62382 -10.61698 -10.61553  -0.93212
 Alpha  occ. eigenvalues --   -0.84422  -0.69630  -0.64262  -0.54915  -0.52914
 Alpha  occ. eigenvalues --   -0.46827  -0.44471  -0.40917  -0.38121  -0.27406
 Alpha virt. eigenvalues --    0.01632   0.07012   0.07142   0.08059   0.08873
 Alpha virt. eigenvalues --    0.11577   0.12316   0.14805   0.15544   0.16482
 Alpha virt. eigenvalues --    0.18747   0.19806   0.21415   0.23268   0.23978

 Mulliken charges:
               1
     1  C   -0.171099
     2  C   -0.035857
     3  C   -0.036059
     4  C   -0.169411
     5  H    0.079996
     6  H    0.061339
     7  H    0.072626
     8  H    0.064506
     9  H    0.069305
    10  H    0.064654
 Sum of Mulliken charges =   0.00000

 Dipole moment (field-independent basis, Debye):
    X=              0.0068    Y=             -0.0402    Z=             -0.0712  Tot=              0.0821
 Quadrupole moment (field-independent basis, Debye-Ang):
   XX=            -23.8690   YY=            -22.9866   ZZ=            -29.2880
   XY=              0.4502   XZ=              0.5823   YZ=             -0.1846

 1\1\GINC-NODE05\SP\RB2PLYPD3-FC\def2QZVP\C4H6\BOITTIER\26-Aug-2020\0\\
 #p B2PLYPD3/Def2QZVP\\butadiene\\0,1\C,0,-3.82483,0.197894,-0.03588\C,
 0,-2.699597,-0.485151,0.121646\C,0,-1.385448,0.124265,0.043751\C,0,-0.
 311872,-0.694291,-0.027817\H,0,-4.748488,-0.303143,-0.185297\H,0,-3.86
 9546,1.335966,0.074828\H,0,-2.728289,-1.506153,0.022926\H,0,-1.287169,
 1.240906,0.076134\H,0,-0.247191,-1.788059,0.170897\H,0,0.722534,-0.263
 973,-0.049038\\Version=ES64L-G09RevD.01\State=1-A\HF=-155.6832773\MP2=
 -155.910208\RMSD=8.174e-09\PG=C01 [X(C4H6)]\\@

 Normal termination of Gaussian 09 at Wed Aug 26 16:55:00 2020.
