 Gaussian 09, Revision D.01,
 Gaussian 09:  ES64L-G09RevD.01 24-Apr-2013

 --------------------
 #p B2PLYPD3/Def2QZVP
 --------------------

 ---------
 butadiene
 ---------
 Symbolic Z-matrix:
 Charge =  0 Multiplicity = 1

                         Standard orientation:
 ---------------------------------------------------------------------
 Center     Atomic      Atomic             Coordinates (Angstroms)
 Number     Number       Type             X           Y           Z
 ---------------------------------------------------------------------
      1          6           0        1.837323   -0.148419    0.057697
      2          6           0        0.634484    0.405744   -0.076108
      3          6           0       -0.613829   -0.328531   -0.033523
      4          6           0       -1.861849    0.067576    0.027047
      5          1           0        2.609411    0.547518    0.028036
      6          1           0        1.929448   -1.184731    0.280198
      7          1           0        0.621669    1.448059   -0.210222
      8          1           0       -0.347606   -1.346785   -0.297543
      9          1           0       -2.137386    1.173958    0.332305
     10          1           0       -2.652311   -0.616244    0.016549
 ---------------------------------------------------------------------

 SCF Done:  E(RB2PLYPD3) =  -155.682386298     A.U. after   11 cycles
 E2(B2PLYPD3) =    -0.2254425715D+00 E(B2PLYPD3) =    -0.15590782886926D+03

 The electronic state is 1-A.
 Alpha  occ. eigenvalues --  -10.62099 -10.61876 -10.61789 -10.60863  -0.93443
 Alpha  occ. eigenvalues --   -0.85722  -0.70830  -0.63904  -0.55296  -0.53742
 Alpha  occ. eigenvalues --   -0.47262  -0.46130  -0.40236  -0.37643  -0.28270
 Alpha virt. eigenvalues --    0.01679   0.07155   0.07561   0.08002   0.09708
 Alpha virt. eigenvalues --    0.11521   0.12147   0.15100   0.15290   0.16129
 Alpha virt. eigenvalues --    0.18695   0.19635   0.20984   0.22498   0.23730

 Mulliken charges:
               1
     1  C   -0.177337
     2  C   -0.032363
     3  C   -0.032420
     4  C   -0.179196
     5  H    0.088371
     6  H    0.074511
     7  H    0.053363
     8  H    0.053427
     9  H    0.059835
    10  H    0.091809
 Sum of Mulliken charges =   0.00000

 Dipole moment (field-independent basis, Debye):
    X=              0.0873    Y=              0.0031    Z=              0.0912  Tot=              0.1263
 Quadrupole moment (field-independent basis, Debye-Ang):
   XX=            -23.7484   YY=            -23.3816   ZZ=            -28.8279
   XY=              0.1492   XZ=             -0.0814   YZ=              0.1121

 1\1\GINC-NODE21\SP\RB2PLYPD3-FC\def2QZVP\C4H6\BOITTIER\26-Aug-2020\0\\
 #p B2PLYPD3/Def2QZVP\\butadiene\\0,1\C,0,-3.833553,0.260243,0.069662\C
 ,0,-2.74925,-0.504156,-0.038977\C,0,-1.389792,-0.003544,-0.016113\C,0,
 -0.232501,-0.613751,0.064198\H,0,-4.717576,-0.28725,0.060644\H,0,-3.73
 8748,1.303532,0.255395\H,0,-2.923024,-1.536073,-0.136546\H,0,-1.470265
 ,1.035944,-0.316797\H,0,-0.158542,-1.740106,0.409217\H,0,0.667374,-0.0
 82866,0.033592\\Version=ES64L-G09RevD.01\State=1-A\HF=-155.6823863\MP2
 =-155.9078289\RMSD=8.739e-09\PG=C01 [X(C4H6)]\\@

 Normal termination of Gaussian 09 at Wed Aug 26 12:03:16 2020.
