 Gaussian 09, Revision D.01,
 Gaussian 09:  ES64L-G09RevD.01 24-Apr-2013

 --------------------
 #p B2PLYPD3/Def2QZVP
 --------------------

 ---------
 butadiene
 ---------
 Symbolic Z-matrix:
 Charge =  0 Multiplicity = 1

                         Standard orientation:
 ---------------------------------------------------------------------
 Center     Atomic      Atomic             Coordinates (Angstroms)
 Number     Number       Type             X           Y           Z
 ---------------------------------------------------------------------
      1          6           0        1.856414    0.100141   -0.021736
      2          6           0        0.601943   -0.392063    0.017486
      3          6           0       -0.615147    0.417529    0.008788
      4          6           0       -1.844658   -0.120282   -0.003466
      5          1           0        2.736207   -0.532139    0.001262
      6          1           0        2.050686    1.152984   -0.025147
      7          1           0        0.472596   -1.457268    0.042218
      8          1           0       -0.490727    1.501624    0.070959
      9          1           0       -2.012011   -1.206760   -0.036760
     10          1           0       -2.748067    0.509610   -0.058967
 ---------------------------------------------------------------------

 SCF Done:  E(RB2PLYPD3) =  -155.699562491     A.U. after   11 cycles
 E2(B2PLYPD3) =    -0.2262429745D+00 E(B2PLYPD3) =    -0.15592580546595D+03

 The electronic state is 1-A.
 Alpha  occ. eigenvalues --  -10.62955 -10.62701 -10.62142 -10.61581  -0.92645
 Alpha  occ. eigenvalues --   -0.84598  -0.70071  -0.64168  -0.54364  -0.53744
 Alpha  occ. eigenvalues --   -0.46687  -0.45460  -0.41198  -0.37860  -0.27580
 Alpha virt. eigenvalues --    0.01528   0.06969   0.07426   0.08018   0.09425
 Alpha virt. eigenvalues --    0.11602   0.12436   0.14610   0.15810   0.16233
 Alpha virt. eigenvalues --    0.18868   0.20357   0.21752   0.22784   0.23558

 Mulliken charges:
               1
     1  C   -0.175899
     2  C   -0.032867
     3  C   -0.036311
     4  C   -0.170689
     5  H    0.084200
     6  H    0.064630
     7  H    0.058357
     8  H    0.059428
     9  H    0.066234
    10  H    0.082916
 Sum of Mulliken charges =   0.00000

 Dipole moment (field-independent basis, Debye):
    X=             -0.0205    Y=              0.0042    Z=              0.0113  Tot=              0.0238
 Quadrupole moment (field-independent basis, Debye-Ang):
   XX=            -23.3657   YY=            -23.1241   ZZ=            -29.3870
   XY=              0.2123   XZ=              0.1927   YZ=              0.0207

 1\1\GINC-NODE30\SP\RB2PLYPD3-FC\def2QZVP\C4H6\BOITTIER\26-Aug-2020\0\\
 #p B2PLYPD3/Def2QZVP\\butadiene\\0,1\C,0,-3.860961,0.21626,0.036882\C,
 0,-2.715062,-0.49371,0.01796\C,0,-1.372611,0.084615,0.004211\C,0,-0.25
 9305,-0.664041,0.038147\H,0,-4.839845,-0.248607,0.031659\H,0,-3.863474
 ,1.28641,0.005195\H,0,-2.778692,-1.565085,0.028526\H,0,-1.300975,1.170
 832,-0.093813\H,0,-0.289205,-1.761238,0.10753\H,0,0.742469,-0.204687,0
 .076012\\Version=ES64L-G09RevD.01\State=1-A\HF=-155.6995625\MP2=-155.9
 258055\RMSD=3.110e-09\PG=C01 [X(C4H6)]\\@

 Normal termination of Gaussian 09 at Wed Aug 26 19:00:54 2020.
