 Gaussian 09, Revision D.01,
 Gaussian 09:  ES64L-G09RevD.01 24-Apr-2013

 --------------------
 #p B2PLYPD3/Def2QZVP
 --------------------

 ---------
 butadiene
 ---------
 Symbolic Z-matrix:
 Charge =  0 Multiplicity = 1

                         Standard orientation:
 ---------------------------------------------------------------------
 Center     Atomic      Atomic             Coordinates (Angstroms)
 Number     Number       Type             X           Y           Z
 ---------------------------------------------------------------------
      1          6           0       -1.855833    0.083716   -0.033948
      2          6           0       -0.610763   -0.361172    0.002820
      3          6           0        0.632328    0.390913    0.027702
      4          6           0        1.865297   -0.120898   -0.053950
      5          1           0       -2.804827   -0.429496    0.098719
      6          1           0       -2.042135    1.141123   -0.157730
      7          1           0       -0.538038   -1.454105    0.128761
      8          1           0        0.505580    1.504808    0.252719
      9          1           0        1.896603   -1.186828    0.037343
     10          1           0        2.796640    0.469145   -0.015559
 ---------------------------------------------------------------------

 SCF Done:  E(RB2PLYPD3) =  -155.687350051     A.U. after   11 cycles
 E2(B2PLYPD3) =    -0.2264775143D+00 E(B2PLYPD3) =    -0.15591382756489D+03

 The electronic state is 1-A.
 Alpha  occ. eigenvalues --  -10.63496 -10.62803 -10.61981 -10.61567  -0.92957
 Alpha  occ. eigenvalues --   -0.85289  -0.70370  -0.63347  -0.55123  -0.53452
 Alpha  occ. eigenvalues --   -0.47875  -0.44584  -0.40438  -0.37402  -0.28063
 Alpha virt. eigenvalues --    0.01349   0.07040   0.07374   0.07783   0.09721
 Alpha virt. eigenvalues --    0.11432   0.12771   0.14248   0.15525   0.16590
 Alpha virt. eigenvalues --    0.18992   0.19935   0.21605   0.22352   0.23467

 Mulliken charges:
               1
     1  C   -0.165711
     2  C   -0.019356
     3  C   -0.039287
     4  C   -0.167566
     5  H    0.087461
     6  H    0.051555
     7  H    0.044566
     8  H    0.050170
     9  H    0.065396
    10  H    0.092773
 Sum of Mulliken charges =   0.00000

 Dipole moment (field-independent basis, Debye):
    X=             -0.0330    Y=              0.0122    Z=              0.3256  Tot=              0.3275
 Quadrupole moment (field-independent basis, Debye-Ang):
   XX=            -22.6332   YY=            -23.8971   ZZ=            -29.1873
   XY=              0.0873   XZ=              0.0628   YZ=             -0.1465

 1\1\GINC-NODE34\SP\RB2PLYPD3-FC\def2QZVP\C4H6\BOITTIER\26-Aug-2020\0\\
 #p B2PLYPD3/Def2QZVP\\butadiene\\0,1\C,0,-3.869554,0.1873,-0.009584\C,
 0,-2.719516,-0.463726,0.045677\C,0,-1.365471,0.063609,0.048616\C,0,-0.
 239233,-0.655219,-0.012247\H,0,-4.8923,-0.150158,0.137689\H,0,-3.87148
 1,1.256202,-0.169539\H,0,-2.835578,-1.547984,0.208673\H,0,-1.297945,1.
 189649,0.235518\H,0,-0.391555,-1.706933,0.115092\H,0,0.779871,-0.23330
 7,0.008794\\Version=ES64L-G09RevD.01\State=1-A\HF=-155.6873501\MP2=-15
 5.9138276\RMSD=7.459e-09\PG=C01 [X(C4H6)]\\@

 Normal termination of Gaussian 09 at Wed Aug 26 15:25:59 2020.
