 Gaussian 09, Revision D.01,
 Gaussian 09:  ES64L-G09RevD.01 24-Apr-2013

 --------------------
 #p B2PLYPD3/Def2QZVP
 --------------------

 ---------
 butadiene
 ---------
 Symbolic Z-matrix:
 Charge =  0 Multiplicity = 1

                         Standard orientation:
 ---------------------------------------------------------------------
 Center     Atomic      Atomic             Coordinates (Angstroms)
 Number     Number       Type             X           Y           Z
 ---------------------------------------------------------------------
      1          6           0       -1.827157    0.104157    0.029737
      2          6           0       -0.597455   -0.377975   -0.034175
      3          6           0        0.590192    0.412977   -0.032844
      4          6           0        1.825375   -0.114677    0.015864
      5          1           0       -2.621507   -0.623097    0.009575
      6          1           0       -1.996559    1.154606    0.135637
      7          1           0       -0.440786   -1.398741   -0.093607
      8          1           0        0.487362    1.494530   -0.126676
      9          1           0        1.900294   -1.232929    0.111979
     10          1           0        2.725462    0.458738    0.091599
 ---------------------------------------------------------------------

 SCF Done:  E(RB2PLYPD3) =  -155.695756781     A.U. after   11 cycles
 E2(B2PLYPD3) =    -0.2256264539D+00 E(B2PLYPD3) =    -0.15592138323539D+03

 The electronic state is 1-A.
 Alpha  occ. eigenvalues --  -10.62341 -10.61901 -10.61387 -10.61030  -0.93648
 Alpha  occ. eigenvalues --   -0.84987  -0.70302  -0.64517  -0.54610  -0.54282
 Alpha  occ. eigenvalues --   -0.46736  -0.45479  -0.41539  -0.38351  -0.27553
 Alpha virt. eigenvalues --    0.01665   0.07046   0.07452   0.08083   0.09734
 Alpha virt. eigenvalues --    0.11796   0.12376   0.14750   0.15763   0.16118
 Alpha virt. eigenvalues --    0.18567   0.20273   0.21495   0.22790   0.24163

 Mulliken charges:
               1
     1  C   -0.183374
     2  C   -0.023281
     3  C   -0.029811
     4  C   -0.176491
     5  H    0.085343
     6  H    0.074229
     7  H    0.057985
     8  H    0.052190
     9  H    0.053326
    10  H    0.089883
 Sum of Mulliken charges =   0.00000

 Dipole moment (field-independent basis, Debye):
    X=              0.0159    Y=              0.0115    Z=              0.0804  Tot=              0.0828
 Quadrupole moment (field-independent basis, Debye-Ang):
   XX=            -23.8404   YY=            -23.0455   ZZ=            -29.1276
   XY=              0.1031   XZ=              0.1655   YZ=              0.0414

 1\1\GINC-NODE19\SP\RB2PLYPD3-FC\def2QZVP\C4H6\BOITTIER\26-Aug-2020\0\\
 #p B2PLYPD3/Def2QZVP\\butadiene\\0,1\C,0,-3.829201,0.21812,0.04721\C,0
 ,-2.707817,-0.481361,0.003313\C,0,-1.39619,0.080141,-0.01823\C,0,-0.27
 7345,-0.661293,0.051973\H,0,-4.742564,-0.3529,0.049011\H,0,-3.804526,1
 .284814,0.117276\H,0,-2.739475,-1.51501,-0.021346\H,0,-1.301011,1.1586
 01,-0.148621\H,0,-0.406634,-1.770669,0.185792\H,0,0.712201,-0.258816,0
 .111204\\Version=ES64L-G09RevD.01\State=1-A\HF=-155.6957568\MP2=-155.9
 213832\RMSD=4.241e-09\PG=C01 [X(C4H6)]\\@

 Normal termination of Gaussian 09 at Wed Aug 26 08:40:23 2020.
