 Gaussian 09, Revision D.01,
 Gaussian 09:  ES64L-G09RevD.01 24-Apr-2013

 --------------------
 #p B2PLYPD3/Def2QZVP
 --------------------

 ---------
 butadiene
 ---------
 Symbolic Z-matrix:
 Charge =  0 Multiplicity = 1

                         Standard orientation:
 ---------------------------------------------------------------------
 Center     Atomic      Atomic             Coordinates (Angstroms)
 Number     Number       Type             X           Y           Z
 ---------------------------------------------------------------------
      1          6           0        1.802532   -0.143361    0.075473
      2          6           0        0.583334    0.421451   -0.102657
      3          6           0       -0.577229   -0.346297   -0.096588
      4          6           0       -1.792701    0.071562    0.059566
      5          1           0        2.647760    0.468700    0.209015
      6          1           0        1.916334   -1.180446   -0.069590
      7          1           0        0.478414    1.515418   -0.064586
      8          1           0       -0.461455   -1.399442    0.082345
      9          1           0       -1.946646    1.107561    0.154045
     10          1           0       -2.730018   -0.531924    0.074016
 ---------------------------------------------------------------------

 SCF Done:  E(RB2PLYPD3) =  -155.684971188     A.U. after   11 cycles
 E2(B2PLYPD3) =    -0.2257538255D+00 E(B2PLYPD3) =    -0.15591072501326D+03

 The electronic state is 1-A.
 Alpha  occ. eigenvalues --  -10.62458 -10.61232 -10.61024 -10.60703  -0.94452
 Alpha  occ. eigenvalues --   -0.85315  -0.70872  -0.64402  -0.55283  -0.54408
 Alpha  occ. eigenvalues --   -0.46506  -0.45861  -0.41429  -0.38601  -0.27342
 Alpha virt. eigenvalues --    0.01360   0.07112   0.07513   0.08061   0.09733
 Alpha virt. eigenvalues --    0.11852   0.12746   0.14630   0.15457   0.16596
 Alpha virt. eigenvalues --    0.18796   0.19103   0.22023   0.23599   0.24284

 Mulliken charges:
               1
     1  C   -0.182907
     2  C   -0.038540
     3  C   -0.005453
     4  C   -0.171147
     5  H    0.084909
     6  H    0.078402
     7  H    0.050685
     8  H    0.050854
     9  H    0.049593
    10  H    0.083604
 Sum of Mulliken charges =   0.00000

 Dipole moment (field-independent basis, Debye):
    X=              0.0285    Y=              0.0302    Z=              0.2001  Tot=              0.2043
 Quadrupole moment (field-independent basis, Debye-Ang):
   XX=            -23.4469   YY=            -23.3927   ZZ=            -28.8867
   XY=              0.0326   XZ=             -0.0809   YZ=              0.1636

 1\1\GINC-NODE25\SP\RB2PLYPD3-FC\def2QZVP\C4H6\BOITTIER\26-Aug-2020\0\\
 #p B2PLYPD3/Def2QZVP\\butadiene\\0,1\C,0,-3.795518,0.257748,0.098238\C
 ,0,-2.700753,-0.525177,-0.062095\C,0,-1.419106,0.016747,-0.070993\C,0,
 -0.300637,-0.612859,0.099259\H,0,-4.738454,-0.185543,0.24393\H,0,-3.71
 7456,1.294237,-0.072458\H,0,-2.798112,-1.618569,0.003001\H,0,-1.339624
 ,1.077346,0.081811\H,0,-0.339102,-1.656882,0.21949\H,0,0.731445,-0.191
 236,0.102023\\Version=ES64L-G09RevD.01\State=1-A\HF=-155.6849712\MP2=-
 155.910725\RMSD=9.442e-09\PG=C01 [X(C4H6)]\\@

 Normal termination of Gaussian 09 at Wed Aug 26 13:52:35 2020.
