 Gaussian 09, Revision D.01,
 Gaussian 09:  ES64L-G09RevD.01 24-Apr-2013

 --------------------
 #p B2PLYPD3/Def2QZVP
 --------------------

 ---------
 butadiene
 ---------
 Symbolic Z-matrix:
 Charge =  0 Multiplicity = 1

                         Standard orientation:
 ---------------------------------------------------------------------
 Center     Atomic      Atomic             Coordinates (Angstroms)
 Number     Number       Type             X           Y           Z
 ---------------------------------------------------------------------
      1          6           0        1.851371   -0.106371   -0.016493
      2          6           0        0.610357    0.389111    0.040986
      3          6           0       -0.598466   -0.412547    0.009754
      4          6           0       -1.848893    0.109201   -0.022181
      5          1           0        2.649493    0.579313   -0.062908
      6          1           0        2.064107   -1.148520   -0.123095
      7          1           0        0.416017    1.438587    0.079706
      8          1           0       -0.479793   -1.459795    0.157280
      9          1           0       -1.936195    1.184257   -0.069843
     10          1           0       -2.799838   -0.470205   -0.053538
 ---------------------------------------------------------------------

 SCF Done:  E(RB2PLYPD3) =  -155.696366231     A.U. after   11 cycles
 E2(B2PLYPD3) =    -0.2260878492D+00 E(B2PLYPD3) =    -0.15592245408029D+03

 The electronic state is 1-A.
 Alpha  occ. eigenvalues --  -10.62498 -10.62412 -10.62161 -10.61190  -0.92968
 Alpha  occ. eigenvalues --   -0.84702  -0.70477  -0.64568  -0.54550  -0.53988
 Alpha  occ. eigenvalues --   -0.46903  -0.45848  -0.41394  -0.37801  -0.27503
 Alpha virt. eigenvalues --    0.01401   0.07023   0.07547   0.08111   0.09425
 Alpha virt. eigenvalues --    0.11646   0.12522   0.14727   0.15598   0.16227
 Alpha virt. eigenvalues --    0.18766   0.20245   0.21886   0.22844   0.23698

 Mulliken charges:
               1
     1  C   -0.177221
     2  C   -0.036434
     3  C   -0.030119
     4  C   -0.179506
     5  H    0.085914
     6  H    0.073657
     7  H    0.056098
     8  H    0.061928
     9  H    0.058838
    10  H    0.086845
 Sum of Mulliken charges =   0.00000

 Dipole moment (field-independent basis, Debye):
    X=             -0.0006    Y=              0.0034    Z=             -0.0413  Tot=              0.0414
 Quadrupole moment (field-independent basis, Debye-Ang):
   XX=            -23.3959   YY=            -23.2097   ZZ=            -29.2508
   XY=             -0.1871   XZ=             -0.2316   YZ=             -0.0523

 1\1\GINC-NODE32\SP\RB2PLYPD3-FC\def2QZVP\C4H6\BOITTIER\26-Aug-2020\0\\
 #p B2PLYPD3/Def2QZVP\\butadiene\\0,1\C,0,-3.852191,0.222687,-0.001107\
 C,0,-2.721578,-0.488182,0.071715\C,0,-1.387434,0.080076,0.026689\C,0,-
 0.25239,-0.660349,0.010741\H,0,-4.761465,-0.307779,-0.034895\H,0,-3.87
 2467,1.283449,-0.131752\H,0,-2.720768,-1.554349,0.134596\H,0,-1.314109
 ,1.13455,0.150316\H,0,-0.361541,-1.734213,-0.012533\H,0,0.787845,-0.26
 3843,-0.030318\\Version=ES64L-G09RevD.01\State=1-A\HF=-155.6963662\MP2
 =-155.9224541\RMSD=4.361e-09\PG=C01 [X(C4H6)]\\@

 Normal termination of Gaussian 09 at Wed Aug 26 09:09:37 2020.
