 Gaussian 09, Revision D.01,
 Gaussian 09:  ES64L-G09RevD.01 24-Apr-2013

 --------------------
 #p B2PLYPD3/Def2QZVP
 --------------------

 ---------
 butadiene
 ---------
 Symbolic Z-matrix:
 Charge =  0 Multiplicity = 1

                         Standard orientation:
 ---------------------------------------------------------------------
 Center     Atomic      Atomic             Coordinates (Angstroms)
 Number     Number       Type             X           Y           Z
 ---------------------------------------------------------------------
      1          6           0       -1.815560   -0.125099   -0.026891
      2          6           0       -0.587582    0.430506    0.031845
      3          6           0        0.593811   -0.399185    0.017964
      4          6           0        1.824791    0.102749   -0.056535
      5          1           0       -2.724224    0.467631   -0.025461
      6          1           0       -2.001370   -1.164510   -0.090049
      7          1           0       -0.513780    1.523833    0.157572
      8          1           0        0.399188   -1.424959    0.123747
      9          1           0        2.055468    1.127402   -0.093746
     10          1           0        2.691961   -0.583224    0.129638
 ---------------------------------------------------------------------

 SCF Done:  E(RB2PLYPD3) =  -155.694265920     A.U. after   11 cycles
 E2(B2PLYPD3) =    -0.2259303634D+00 E(B2PLYPD3) =    -0.15592019628384D+03

 The electronic state is 1-A.
 Alpha  occ. eigenvalues --  -10.62778 -10.62087 -10.61408 -10.61387  -0.93225
 Alpha  occ. eigenvalues --   -0.84639  -0.70297  -0.64764  -0.54370  -0.54227
 Alpha  occ. eigenvalues --   -0.46789  -0.45637  -0.41229  -0.37943  -0.27461
 Alpha virt. eigenvalues --    0.01606   0.07041   0.07469   0.07974   0.09375
 Alpha virt. eigenvalues --    0.11713   0.12497   0.14940   0.15813   0.16191
 Alpha virt. eigenvalues --    0.18869   0.20006   0.21986   0.22933   0.23632

 Mulliken charges:
               1
     1  C   -0.178467
     2  C   -0.031713
     3  C   -0.034598
     4  C   -0.171832
     5  H    0.077410
     6  H    0.065077
     7  H    0.061237
     8  H    0.068917
     9  H    0.072364
    10  H    0.071606
 Sum of Mulliken charges =   0.00000

 Dipole moment (field-independent basis, Debye):
    X=             -0.0985    Y=              0.0069    Z=              0.2100  Tot=              0.2320
 Quadrupole moment (field-independent basis, Debye-Ang):
   XX=            -23.7362   YY=            -23.0118   ZZ=            -29.1805
   XY=              0.5219   XZ=              0.4265   YZ=             -0.0720

 1\1\GINC-NODE32\SP\RB2PLYPD3-FC\def2QZVP\C4H6\BOITTIER\26-Aug-2020\0\\
 #p B2PLYPD3/Def2QZVP\\butadiene\\0,1\C,0,-3.814832,0.244558,0.04597\C,
 0,-2.710872,-0.529617,0.001213\C,0,-1.396609,0.067755,-0.010091\C,0,-0
 .278912,-0.650577,0.07681\H,0,-4.81725,-0.170028,0.062622\H,0,-3.80524
 2,1.301744,0.079956\H,0,-2.840907,-1.620815,-0.093631\H,0,-1.399319,1.
 108517,-0.144579\H,0,-0.241016,-1.698783,0.14267\H,0,0.698685,-0.14189
 3,-0.129948\\Version=ES64L-G09RevD.01\State=1-A\HF=-155.6942659\MP2=-1
 55.9201963\RMSD=5.613e-09\PG=C01 [X(C4H6)]\\@

 Normal termination of Gaussian 09 at Wed Aug 26 09:23:47 2020.
