 Gaussian 09, Revision D.01,
 Gaussian 09:  ES64L-G09RevD.01 24-Apr-2013

 --------------------
 #p B2PLYPD3/Def2QZVP
 --------------------

 ---------
 butadiene
 ---------
 Symbolic Z-matrix:
 Charge =  0 Multiplicity = 1

                         Standard orientation:
 ---------------------------------------------------------------------
 Center     Atomic      Atomic             Coordinates (Angstroms)
 Number     Number       Type             X           Y           Z
 ---------------------------------------------------------------------
      1          6           0        1.829910    0.131258    0.015266
      2          6           0        0.612791   -0.425347   -0.016956
      3          6           0       -0.588524    0.362403   -0.023179
      4          6           0       -1.833955   -0.100062    0.001174
      5          1           0        2.710320   -0.482034    0.052045
      6          1           0        1.875211    1.220398    0.033582
      7          1           0        0.447273   -1.469766   -0.034979
      8          1           0       -0.491160    1.471982   -0.065992
      9          1           0       -1.988965   -1.125817    0.038226
     10          1           0       -2.674014    0.575726    0.119287
 ---------------------------------------------------------------------

 SCF Done:  E(RB2PLYPD3) =  -155.696640373     A.U. after   11 cycles
 E2(B2PLYPD3) =    -0.2256386129D+00 E(B2PLYPD3) =    -0.15592227898561D+03

 The electronic state is 1-A.
 Alpha  occ. eigenvalues --  -10.62281 -10.62194 -10.61712 -10.60747  -0.93420
 Alpha  occ. eigenvalues --   -0.85136  -0.70372  -0.64248  -0.54906  -0.54082
 Alpha  occ. eigenvalues --   -0.46728  -0.45693  -0.41401  -0.38286  -0.27602
 Alpha virt. eigenvalues --    0.01667   0.07000   0.07458   0.08067   0.09744
 Alpha virt. eigenvalues --    0.11796   0.12494   0.14757   0.15794   0.16034
 Alpha virt. eigenvalues --    0.18635   0.20348   0.21572   0.22765   0.24403

 Mulliken charges:
               1
     1  C   -0.173953
     2  C   -0.043778
     3  C   -0.004189
     4  C   -0.186239
     5  H    0.091446
     6  H    0.070463
     7  H    0.056630
     8  H    0.040238
     9  H    0.062782
    10  H    0.086600
 Sum of Mulliken charges =   0.00000

 Dipole moment (field-independent basis, Debye):
    X=              0.0497    Y=             -0.0591    Z=              0.1119  Tot=              0.1360
 Quadrupole moment (field-independent basis, Debye-Ang):
   XX=            -23.7227   YY=            -23.0762   ZZ=            -29.1691
   XY=             -0.0931   XZ=             -0.2082   YZ=              0.0218

 1\1\GINC-NODE02\SP\RB2PLYPD3-FC\def2QZVP\C4H6\BOITTIER\26-Aug-2020\0\\
 #p B2PLYPD3/Def2QZVP\\butadiene\\0,1\C,0,-3.826196,0.242499,0.002581\C
 ,0,-2.727548,-0.52085,0.05256\C,0,-1.405095,0.039967,0.0339\C,0,-0.262
 132,-0.637609,0.024348\H,0,-4.801972,-0.204893,-0.014804\H,0,-3.67684,
 1.321161,-0.050284\H,0,-2.750646,-1.576966,0.103725\H,0,-1.302987,1.14
 992,0.041479\H,0,-0.292551,-1.675216,0.019872\H,0,0.684212,-0.126398,-
 0.115068\\Version=ES64L-G09RevD.01\State=1-A\HF=-155.6966404\MP2=-155.
 922279\RMSD=6.333e-09\PG=C01 [X(C4H6)]\\@

 Normal termination of Gaussian 09 at Wed Aug 26 08:56:49 2020.
