 Gaussian 09, Revision D.01,
 Gaussian 09:  ES64L-G09RevD.01 24-Apr-2013

 --------------------
 #p B2PLYPD3/Def2QZVP
 --------------------

 ---------
 butadiene
 ---------
 Symbolic Z-matrix:
 Charge =  0 Multiplicity = 1

                         Standard orientation:
 ---------------------------------------------------------------------
 Center     Atomic      Atomic             Coordinates (Angstroms)
 Number     Number       Type             X           Y           Z
 ---------------------------------------------------------------------
      1          6           0        1.856918   -0.135443   -0.014465
      2          6           0        0.627412    0.419036    0.036916
      3          6           0       -0.613835   -0.370282    0.026300
      4          6           0       -1.851044    0.095297   -0.046569
      5          1           0        2.727779    0.497805   -0.106379
      6          1           0        1.960766   -1.239263   -0.109585
      7          1           0        0.515039    1.510367    0.157207
      8          1           0       -0.529806   -1.442720    0.110704
      9          1           0       -2.015823    1.162662   -0.126377
     10          1           0       -2.774659   -0.540496    0.061334
 ---------------------------------------------------------------------

 SCF Done:  E(RB2PLYPD3) =  -155.695485121     A.U. after   11 cycles
 E2(B2PLYPD3) =    -0.2263415562D+00 E(B2PLYPD3) =    -0.15592182667769D+03

 The electronic state is 1-A.
 Alpha  occ. eigenvalues --  -10.63317 -10.62415 -10.62241 -10.61758  -0.92622
 Alpha  occ. eigenvalues --   -0.84890  -0.69603  -0.63732  -0.54272  -0.53600
 Alpha  occ. eigenvalues --   -0.46690  -0.45197  -0.40862  -0.37753  -0.27893
 Alpha virt. eigenvalues --    0.01636   0.06967   0.07413   0.07855   0.09504
 Alpha virt. eigenvalues --    0.11596   0.12357   0.14444   0.15623   0.16294
 Alpha virt. eigenvalues --    0.18907   0.19863   0.21577   0.22391   0.23697

 Mulliken charges:
               1
     1  C   -0.171688
     2  C   -0.047476
     3  C   -0.023124
     4  C   -0.171409
     5  H    0.089705
     6  H    0.068440
     7  H    0.058629
     8  H    0.054304
     9  H    0.059289
    10  H    0.083329
 Sum of Mulliken charges =   0.00000

 Dipole moment (field-independent basis, Debye):
    X=              0.0234    Y=              0.0233    Z=              0.0227  Tot=              0.0401
 Quadrupole moment (field-independent basis, Debye-Ang):
   XX=            -23.4863   YY=            -23.2189   ZZ=            -29.3427
   XY=              0.0909   XZ=             -0.4854   YZ=             -0.0489

 1\1\GINC-NODE39\SP\RB2PLYPD3-FC\def2QZVP\C4H6\BOITTIER\26-Aug-2020\0\\
 #p B2PLYPD3/Def2QZVP\\butadiene\\0,1\C,0,-3.855245,0.238272,-0.003061\
 C,0,-2.739768,-0.517887,0.072483\C,0,-1.380995,0.044863,0.042861\C,0,-
 0.242657,-0.629153,-0.008602\H,0,-4.822315,-0.238022,-0.079029\H,0,-3.
 76721,1.339772,-0.134203\H,0,-2.817241,-1.60774,0.228424\H,0,-1.278765
 ,1.117904,0.09226\H,0,-0.26447,-1.710971,-0.053154\H,0,0.776822,-0.158
 927,0.083537\\Version=ES64L-G09RevD.01\State=1-A\HF=-155.6954851\MP2=-
 155.9218267\RMSD=6.602e-09\PG=C01 [X(C4H6)]\\@

 Normal termination of Gaussian 09 at Wed Aug 26 11:06:09 2020.
