 Gaussian 09, Revision D.01,
 Gaussian 09:  ES64L-G09RevD.01 24-Apr-2013

 --------------------
 #p B2PLYPD3/Def2QZVP
 --------------------

 ---------
 butadiene
 ---------
 Symbolic Z-matrix:
 Charge =  0 Multiplicity = 1

                         Standard orientation:
 ---------------------------------------------------------------------
 Center     Atomic      Atomic             Coordinates (Angstroms)
 Number     Number       Type             X           Y           Z
 ---------------------------------------------------------------------
      1          6           0       -1.863033    0.105777   -0.022362
      2          6           0       -0.606970   -0.381346   -0.003719
      3          6           0        0.631698    0.412506    0.028156
      4          6           0        1.848844   -0.127049   -0.005974
      5          1           0       -2.710378   -0.563761   -0.014346
      6          1           0       -2.062096    1.186628   -0.018375
      7          1           0       -0.514338   -1.457219    0.147518
      8          1           0        0.534592    1.516355    0.055876
      9          1           0        1.911975   -1.221885   -0.085860
     10          1           0        2.777021    0.480553   -0.061418
 ---------------------------------------------------------------------

 SCF Done:  E(RB2PLYPD3) =  -155.696826809     A.U. after   11 cycles
 E2(B2PLYPD3) =    -0.2264781352D+00 E(B2PLYPD3) =    -0.15592330494436D+03

 The electronic state is 1-A.
 Alpha  occ. eigenvalues --  -10.63010 -10.62945 -10.62069 -10.61890  -0.92546
 Alpha  occ. eigenvalues --   -0.84836  -0.69593  -0.63537  -0.54164  -0.53755
 Alpha  occ. eigenvalues --   -0.46539  -0.45184  -0.41061  -0.37712  -0.27823
 Alpha virt. eigenvalues --    0.01659   0.06991   0.07366   0.07861   0.09401
 Alpha virt. eigenvalues --    0.11591   0.12364   0.14411   0.15571   0.16216
 Alpha virt. eigenvalues --    0.18798   0.20094   0.21446   0.22543   0.23993

 Mulliken charges:
               1
     1  C   -0.180192
     2  C   -0.033176
     3  C   -0.034250
     4  C   -0.167048
     5  H    0.087577
     6  H    0.066647
     7  H    0.056069
     8  H    0.052697
     9  H    0.063001
    10  H    0.088676
 Sum of Mulliken charges =   0.00000

 Dipole moment (field-independent basis, Debye):
    X=              0.0145    Y=              0.0179    Z=              0.0336  Tot=              0.0407
 Quadrupole moment (field-independent basis, Debye-Ang):
   XX=            -23.4514   YY=            -23.1853   ZZ=            -29.4082
   XY=              0.1392   XZ=             -0.3595   YZ=             -0.0710

 1\1\GINC-NODE24\SP\RB2PLYPD3-FC\def2QZVP\C4H6\BOITTIER\26-Aug-2020\0\\
 #p B2PLYPD3/Def2QZVP\\butadiene\\0,1\C,0,-3.870585,0.209228,0.001637\C
 ,0,-2.717271,-0.48652,0.035291\C,0,-1.360059,0.082226,0.039687\C,0,-0.
 254471,-0.660138,0.022372\H,0,-4.820641,-0.303384,0.032631\H,0,-3.8802
 07,1.307765,-0.030058\H,0,-2.810596,-1.556737,0.222056\H,0,-1.26513,1.
 186577,0.030857\H,0,-0.381655,-1.751448,-0.021203\H,0,0.764208,-0.2239
 94,-0.054042\\Version=ES64L-G09RevD.01\State=1-A\HF=-155.6968268\MP2=-
 155.9233049\RMSD=4.725e-09\PG=C01 [X(C4H6)]\\@

 Normal termination of Gaussian 09 at Wed Aug 26 10:19:31 2020.
