 Gaussian 09, Revision D.01,
 Gaussian 09:  ES64L-G09RevD.01 24-Apr-2013

 --------------------
 #p B2PLYPD3/Def2QZVP
 --------------------

 ---------
 butadiene
 ---------
 Symbolic Z-matrix:
 Charge =  0 Multiplicity = 1

                         Standard orientation:
 ---------------------------------------------------------------------
 Center     Atomic      Atomic             Coordinates (Angstroms)
 Number     Number       Type             X           Y           Z
 ---------------------------------------------------------------------
      1          6           0        1.827997   -0.110092    0.014101
      2          6           0        0.586662    0.423278   -0.045248
      3          6           0       -0.570203   -0.412512   -0.061811
      4          6           0       -1.843428    0.084992    0.049980
      5          1           0        2.767793    0.526641   -0.074641
      6          1           0        1.973684   -1.187247    0.395907
      7          1           0        0.430352    1.547036   -0.031121
      8          1           0       -0.334748   -1.493680   -0.184279
      9          1           0       -2.012576    1.135019    0.187184
     10          1           0       -2.830673   -0.441763   -0.035177
 ---------------------------------------------------------------------

 SCF Done:  E(RB2PLYPD3) =  -155.679059998     A.U. after   12 cycles
 E2(B2PLYPD3) =    -0.2289768684D+00 E(B2PLYPD3) =    -0.15590803686654D+03

 The electronic state is 1-A.
 Alpha  occ. eigenvalues --  -10.63526 -10.63375 -10.63136 -10.62583  -0.92974
 Alpha  occ. eigenvalues --   -0.83633  -0.69953  -0.63260  -0.54369  -0.52393
 Alpha  occ. eigenvalues --   -0.46328  -0.44588  -0.41332  -0.37647  -0.26894
 Alpha virt. eigenvalues --    0.00580   0.06937   0.07003   0.07764   0.08928
 Alpha virt. eigenvalues --    0.11534   0.12413   0.14448   0.15756   0.16190
 Alpha virt. eigenvalues --    0.18652   0.20101   0.21384   0.22472   0.22830

 Mulliken charges:
               1
     1  C   -0.177297
     2  C   -0.024740
     3  C   -0.031448
     4  C   -0.170693
     5  H    0.080142
     6  H    0.066557
     7  H    0.057005
     8  H    0.059235
     9  H    0.060127
    10  H    0.081111
 Sum of Mulliken charges =   0.00000

 Dipole moment (field-independent basis, Debye):
    X=             -0.0513    Y=              0.1129    Z=              0.1639  Tot=              0.2055
 Quadrupole moment (field-independent basis, Debye-Ang):
   XX=            -23.4944   YY=            -23.5674   ZZ=            -29.4375
   XY=             -0.3900   XZ=              0.3368   YZ=             -0.0997

 1\1\GINC-NODE34\SP\RB2PLYPD3-FC\def2QZVP\C4H6\BOITTIER\26-Aug-2020\0\\
 #p B2PLYPD3/Def2QZVP\\butadiene\\0,1\C,0,-3.826241,0.237184,0.041814\C
 ,0,-2.708259,-0.522193,-0.00697\C,0,-1.414474,0.079488,-0.042417\C,0,-
 0.257579,-0.647103,0.079102\H,0,-4.869783,-0.212286,-0.032473\H,0,-3.7
 64063,1.330249,0.400431\H,0,-2.766899,-1.654697,0.031251\H,0,-1.442118
 ,1.182852,-0.187976\H,0,-0.289097,-1.707058,0.238773\H,0,0.810953,-0.3
 18225,-0.018135\\Version=ES64L-G09RevD.01\State=1-A\HF=-155.67906\MP2=
 -155.9080369\RMSD=4.531e-09\PG=C01 [X(C4H6)]\\@

 Normal termination of Gaussian 09 at Wed Aug 26 13:47:49 2020.
