 Gaussian 09, Revision D.01,
 Gaussian 09:  ES64L-G09RevD.01 24-Apr-2013

 --------------------
 #p B2PLYPD3/Def2QZVP
 --------------------

 ---------
 butadiene
 ---------
 Symbolic Z-matrix:
 Charge =  0 Multiplicity = 1

                         Standard orientation:
 ---------------------------------------------------------------------
 Center     Atomic      Atomic             Coordinates (Angstroms)
 Number     Number       Type             X           Y           Z
 ---------------------------------------------------------------------
      1          6           0        1.835044   -0.112371    0.014170
      2          6           0        0.608516    0.397772   -0.025492
      3          6           0       -0.602323   -0.387931   -0.014367
      4          6           0       -1.848933    0.102734    0.002843
      5          1           0        2.708451    0.526102    0.010250
      6          1           0        2.009657   -1.204859    0.064731
      7          1           0        0.527346    1.489996   -0.023012
      8          1           0       -0.459324   -1.453820   -0.028051
      9          1           0       -2.026125    1.172169    0.094759
     10          1           0       -2.713831   -0.530810    0.018399
 ---------------------------------------------------------------------

 SCF Done:  E(RB2PLYPD3) =  -155.700384264     A.U. after   11 cycles
 E2(B2PLYPD3) =    -0.2257566768D+00 E(B2PLYPD3) =    -0.15592614094046D+03

 The electronic state is 1-A.
 Alpha  occ. eigenvalues --  -10.62490 -10.62428 -10.61716 -10.61556  -0.93097
 Alpha  occ. eigenvalues --   -0.84955  -0.70265  -0.63889  -0.54712  -0.53917
 Alpha  occ. eigenvalues --   -0.46766  -0.45323  -0.41115  -0.38247  -0.27688
 Alpha virt. eigenvalues --    0.01619   0.07001   0.07414   0.08011   0.09756
 Alpha virt. eigenvalues --    0.11645   0.12393   0.14699   0.15895   0.16189
 Alpha virt. eigenvalues --    0.18830   0.20539   0.21543   0.22572   0.23749

 Mulliken charges:
               1
     1  C   -0.173146
     2  C   -0.025175
     3  C   -0.033329
     4  C   -0.174617
     5  H    0.085977
     6  H    0.061732
     7  H    0.051378
     8  H    0.055256
     9  H    0.065043
    10  H    0.086880
 Sum of Mulliken charges =   0.00000

 Dipole moment (field-independent basis, Debye):
    X=              0.0279    Y=              0.0018    Z=              0.1026  Tot=              0.1063
 Quadrupole moment (field-independent basis, Debye-Ang):
   XX=            -23.3953   YY=            -23.1629   ZZ=            -29.2627
   XY=             -0.0298   XZ=             -0.0849   YZ=              0.0458

 1\1\GINC-NODE31\SP\RB2PLYPD3-FC\def2QZVP\C4H6\BOITTIER\26-Aug-2020\0\\
 #p B2PLYPD3/Def2QZVP\\butadiene\\0,1\C,0,-3.837895,0.225508,0.032907\C
 ,0,-2.723,-0.497537,0.012817\C,0,-1.390758,0.057979,0.001937\C,0,-0.25
 243,-0.647701,0.038119\H,0,-4.811735,-0.245591,0.047154\H,0,-3.813396,
 1.332643,0.047989\H,0,-2.839207,-1.585941,0.050495\H,0,-1.340138,1.131
 231,-0.046257\H,0,-0.2698,-1.728076,0.164708\H,0,0.712192,-0.179548,0.
 035637\\Version=ES64L-G09RevD.01\State=1-A\HF=-155.7003843\MP2=-155.92
 61409\RMSD=4.651e-09\PG=C01 [X(C4H6)]\\@

 Normal termination of Gaussian 09 at Wed Aug 26 19:54:13 2020.
