 Gaussian 09, Revision D.01,
 Gaussian 09:  ES64L-G09RevD.01 24-Apr-2013

 --------------------
 #p B2PLYPD3/Def2QZVP
 --------------------

 ---------
 butadiene
 ---------
 Symbolic Z-matrix:
 Charge =  0 Multiplicity = 1

                         Standard orientation:
 ---------------------------------------------------------------------
 Center     Atomic      Atomic             Coordinates (Angstroms)
 Number     Number       Type             X           Y           Z
 ---------------------------------------------------------------------
      1          6           0       -1.861143   -0.146377    0.056244
      2          6           0       -0.625194    0.459380   -0.093606
      3          6           0        0.611497   -0.375005   -0.015001
      4          6           0        1.890228    0.095770    0.012572
      5          1           0       -2.784669    0.419393    0.247311
      6          1           0       -2.064152   -1.199871   -0.102515
      7          1           0       -0.529935    1.562065   -0.028248
      8          1           0        0.490608   -1.464275   -0.146233
      9          1           0        2.067178    1.049584    0.013940
     10          1           0        2.728642   -0.569507    0.254493
 ---------------------------------------------------------------------

 SCF Done:  E(RB2PLYPD3) =  -155.675572205     A.U. after   12 cycles
 E2(B2PLYPD3) =    -0.2279734598D+00 E(B2PLYPD3) =    -0.15590354566464D+03

 The electronic state is 1-A.
 Alpha  occ. eigenvalues --  -10.64362 -10.63572 -10.62869 -10.60679  -0.91716
 Alpha  occ. eigenvalues --   -0.84289  -0.70505  -0.64456  -0.54020  -0.53734
 Alpha  occ. eigenvalues --   -0.46579  -0.45634  -0.41792  -0.36763  -0.27100
 Alpha virt. eigenvalues --    0.00814   0.06927   0.07491   0.07924   0.08469
 Alpha virt. eigenvalues --    0.11490   0.12579   0.14544   0.15427   0.16592
 Alpha virt. eigenvalues --    0.18936   0.19569   0.21737   0.23210   0.23756

 Mulliken charges:
               1
     1  C   -0.167545
     2  C   -0.059542
     3  C   -0.027055
     4  C   -0.181965
     5  H    0.076439
     6  H    0.074842
     7  H    0.067441
     8  H    0.063990
     9  H    0.072317
    10  H    0.081078
 Sum of Mulliken charges =   0.00000

 Dipole moment (field-independent basis, Debye):
    X=             -0.1559    Y=              0.0272    Z=              0.1405  Tot=              0.2116
 Quadrupole moment (field-independent basis, Debye-Ang):
   XX=            -23.3679   YY=            -23.1529   ZZ=            -29.4167
   XY=              0.4489   XZ=              0.1545   YZ=              0.2727

 1\1\GINC-NODE25\SP\RB2PLYPD3-FC\def2QZVP\C4H6\BOITTIER\26-Aug-2020\0\\
 #p B2PLYPD3/Def2QZVP\\butadiene\\0,1\C,0,-3.859667,0.257476,-0.038427\
 C,0,-2.748487,-0.552696,0.122405\C,0,-1.384997,0.050487,0.028345\C,0,-
 0.208636,-0.63752,0.009298\H,0,-4.868669,-0.141052,-0.218964\H,0,-3.87
 4415,1.332939,0.100958\H,0,-2.84813,-1.656008,0.077321\H,0,-1.312719,1
 .146277,0.139541\H,0,-0.201554,-1.607449,0.025448\H,0,0.732567,-0.1339
 55,-0.2449\\Version=ES64L-G09RevD.01\State=1-A\HF=-155.6755722\MP2=-15
 5.9035457\RMSD=3.528e-09\PG=C01 [X(C4H6)]\\@

 Normal termination of Gaussian 09 at Wed Aug 26 12:30:24 2020.
