 Gaussian 09, Revision D.01,
 Gaussian 09:  ES64L-G09RevD.01 24-Apr-2013

 --------------------
 #p B2PLYPD3/Def2QZVP
 --------------------

 ---------
 butadiene
 ---------
 Symbolic Z-matrix:
 Charge =  0 Multiplicity = 1

                         Standard orientation:
 ---------------------------------------------------------------------
 Center     Atomic      Atomic             Coordinates (Angstroms)
 Number     Number       Type             X           Y           Z
 ---------------------------------------------------------------------
      1          6           0       -1.831473   -0.134768    0.023129
      2          6           0       -0.565635    0.459680   -0.060406
      3          6           0        0.582626   -0.359781   -0.039754
      4          6           0        1.822425    0.050345    0.061939
      5          1           0       -2.666532    0.467136    0.311822
      6          1           0       -1.982924   -1.237717   -0.100464
      7          1           0       -0.339913    1.578145   -0.093260
      8          1           0        0.318033   -1.385797   -0.063597
      9          1           0        1.997797    1.145933   -0.058884
     10          1           0        2.625882   -0.660546    0.094930
 ---------------------------------------------------------------------

 SCF Done:  E(RB2PLYPD3) =  -155.680488776     A.U. after   12 cycles
 E2(B2PLYPD3) =    -0.2279777376D+00 E(B2PLYPD3) =    -0.15590846651385D+03

 The electronic state is 1-A.
 Alpha  occ. eigenvalues --  -10.63835 -10.63014 -10.61316 -10.61170  -0.93658
 Alpha  occ. eigenvalues --   -0.84085  -0.70622  -0.63704  -0.54735  -0.52876
 Alpha  occ. eigenvalues --   -0.46348  -0.45747  -0.41659  -0.38066  -0.26796
 Alpha virt. eigenvalues --    0.00778   0.06948   0.07071   0.08195   0.09451
 Alpha virt. eigenvalues --    0.11767   0.12259   0.14769   0.15584   0.16056
 Alpha virt. eigenvalues --    0.18596   0.20028   0.21012   0.23491   0.23929

 Mulliken charges:
               1
     1  C   -0.188659
     2  C   -0.036326
     3  C   -0.000289
     4  C   -0.183107
     5  H    0.089114
     6  H    0.073306
     7  H    0.050916
     8  H    0.047215
     9  H    0.058748
    10  H    0.089082
 Sum of Mulliken charges =   0.00000

 Dipole moment (field-independent basis, Debye):
    X=             -0.0490    Y=             -0.0753    Z=              0.0125  Tot=              0.0907
 Quadrupole moment (field-independent basis, Debye-Ang):
   XX=            -24.1592   YY=            -23.1030   ZZ=            -29.2908
   XY=              0.3742   XZ=             -0.6349   YZ=              0.1364

 1\1\GINC-NODE37\SP\RB2PLYPD3-FC\def2QZVP\C4H6\BOITTIER\26-Aug-2020\0\\
 #p B2PLYPD3/Def2QZVP\\butadiene\\0,1\C,0,-3.821688,0.276931,-0.017412\
 C,0,-2.697464,-0.551358,0.095511\C,0,-1.410476,0.025193,0.054323\C,0,-
 0.275545,-0.623938,-0.024456\H,0,-4.758822,-0.15897,-0.290772\H,0,-3.7
 53276,1.39181,0.066694\H,0,-2.696099,-1.690489,0.168808\H,0,-1.468131,
 1.083387,0.040634\H,0,-0.319043,-1.727638,0.13561\H,0,0.652021,-0.0864
 43,-0.076587\\Version=ES64L-G09RevD.01\State=1-A\HF=-155.6804888\MP2=-
 155.9084665\RMSD=4.549e-09\PG=C01 [X(C4H6)]\\@

 Normal termination of Gaussian 09 at Wed Aug 26 11:46:50 2020.
