 Gaussian 09, Revision D.01,
 Gaussian 09:  ES64L-G09RevD.01 24-Apr-2013

 --------------------
 #p B2PLYPD3/Def2QZVP
 --------------------

 ---------
 butadiene
 ---------
 Symbolic Z-matrix:
 Charge =  0 Multiplicity = 1

                         Standard orientation:
 ---------------------------------------------------------------------
 Center     Atomic      Atomic             Coordinates (Angstroms)
 Number     Number       Type             X           Y           Z
 ---------------------------------------------------------------------
      1          6           0        1.833879   -0.117926   -0.022929
      2          6           0        0.596309    0.419762    0.007074
      3          6           0       -0.588858   -0.387699    0.014179
      4          6           0       -1.829898    0.092349   -0.006040
      5          1           0        2.714669    0.499093    0.076678
      6          1           0        1.976199   -1.182854   -0.029867
      7          1           0        0.438229    1.495590    0.000673
      8          1           0       -0.465568   -1.454972    0.033371
      9          1           0       -2.057327    1.143277   -0.025197
     10          1           0       -2.674794   -0.539051   -0.009360
 ---------------------------------------------------------------------

 SCF Done:  E(RB2PLYPD3) =  -155.699879312     A.U. after   11 cycles
 E2(B2PLYPD3) =    -0.2256890543D+00 E(B2PLYPD3) =    -0.15592556836676D+03

 The electronic state is 1-A.
 Alpha  occ. eigenvalues --  -10.62640 -10.62088 -10.61646 -10.60970  -0.93259
 Alpha  occ. eigenvalues --   -0.84806  -0.70643  -0.64370  -0.54883  -0.54071
 Alpha  occ. eigenvalues --   -0.46632  -0.45789  -0.41508  -0.38248  -0.27411
 Alpha virt. eigenvalues --    0.01505   0.07041   0.07447   0.08132   0.09633
 Alpha virt. eigenvalues --    0.11712   0.12537   0.14882   0.15874   0.16209
 Alpha virt. eigenvalues --    0.18785   0.20414   0.21950   0.22775   0.23880

 Mulliken charges:
               1
     1  C   -0.175617
     2  C   -0.035249
     3  C   -0.021386
     4  C   -0.178310
     5  H    0.084946
     6  H    0.067745
     7  H    0.058300
     8  H    0.054251
     9  H    0.061674
    10  H    0.083646
 Sum of Mulliken charges =   0.00000

 Dipole moment (field-independent basis, Debye):
    X=             -0.0245    Y=             -0.0065    Z=              0.0584  Tot=              0.0637
 Quadrupole moment (field-independent basis, Debye-Ang):
   XX=            -23.4541   YY=            -23.0816   ZZ=            -29.2127
   XY=             -0.2625   XZ=              0.2534   YZ=              0.0273

 1\1\GINC-NODE19\SP\RB2PLYPD3-FC\def2QZVP\C4H6\BOITTIER\26-Aug-2020\0\\
 #p B2PLYPD3/Def2QZVP\\butadiene\\0,1\C,0,-3.831066,0.239957,-0.000487\
 C,0,-2.714223,-0.516435,0.045577\C,0,-1.400081,0.057494,0.02829\C,0,-0
 .269446,-0.644407,0.022421\H,0,-4.810248,-0.200107,0.117709\H,0,-3.773
 894,1.312145,-0.039448\H,0,-2.758,-1.602643,0.071531\H,0,-1.323627,1.1
 29235,0.015376\H,0,-0.240536,-1.719372,0.03487\H,0,0.677669,-0.180726,
 0.000038\\Version=ES64L-G09RevD.01\State=1-A\HF=-155.6998793\MP2=-155.
 9255684\RMSD=5.829e-09\PG=C01 [X(C4H6)]\\@

 Normal termination of Gaussian 09 at Wed Aug 26 20:19:33 2020.
