 Gaussian 09, Revision D.01,
 Gaussian 09:  ES64L-G09RevD.01 24-Apr-2013

 --------------------
 #p B2PLYPD3/Def2QZVP
 --------------------

 ---------
 butadiene
 ---------
 Symbolic Z-matrix:
 Charge =  0 Multiplicity = 1

                         Standard orientation:
 ---------------------------------------------------------------------
 Center     Atomic      Atomic             Coordinates (Angstroms)
 Number     Number       Type             X           Y           Z
 ---------------------------------------------------------------------
      1          6           0       -1.849712    0.135725   -0.049559
      2          6           0       -0.610217   -0.416664    0.029428
      3          6           0        0.631591    0.367951    0.091650
      4          6           0        1.861657   -0.105427   -0.088111
      5          1           0       -2.622522   -0.565382   -0.100974
      6          1           0       -2.068454    1.219506   -0.036334
      7          1           0       -0.594118   -1.529067    0.164125
      8          1           0        0.421009    1.502020    0.103303
      9          1           0        2.071457   -1.155560    0.023180
     10          1           0        2.592713    0.638970   -0.053748
 ---------------------------------------------------------------------

 SCF Done:  E(RB2PLYPD3) =  -155.685093531     A.U. after   11 cycles
 E2(B2PLYPD3) =    -0.2269905590D+00 E(B2PLYPD3) =    -0.15591208408959D+03

 The electronic state is 1-A.
 Alpha  occ. eigenvalues --  -10.63304 -10.63246 -10.61737 -10.61011  -0.92426
 Alpha  occ. eigenvalues --   -0.85173  -0.70254  -0.62706  -0.54465  -0.53885
 Alpha  occ. eigenvalues --   -0.46300  -0.45796  -0.40914  -0.37400  -0.27748
 Alpha virt. eigenvalues --    0.01457   0.06989   0.07171   0.07982   0.09343
 Alpha virt. eigenvalues --    0.11480   0.12224   0.14842   0.15445   0.16289
 Alpha virt. eigenvalues --    0.18808   0.19457   0.21513   0.22763   0.24347

 Mulliken charges:
               1
     1  C   -0.183793
     2  C   -0.029968
     3  C   -0.030426
     4  C   -0.167689
     5  H    0.086350
     6  H    0.073251
     7  H    0.049083
     8  H    0.041441
     9  H    0.077369
    10  H    0.084383
 Sum of Mulliken charges =   0.00000

 Dipole moment (field-independent basis, Debye):
    X=             -0.0665    Y=             -0.0168    Z=              0.1817  Tot=              0.1943
 Quadrupole moment (field-independent basis, Debye-Ang):
   XX=            -23.9976   YY=            -22.8245   ZZ=            -29.3944
   XY=             -0.1831   XZ=              0.1855   YZ=             -0.1710

 1\1\GINC-NODE30\SP\RB2PLYPD3-FC\def2QZVP\C4H6\BOITTIER\26-Aug-2020\0\\
 #p B2PLYPD3/Def2QZVP\\butadiene\\0,1\C,0,-3.851666,0.24764,-0.035056\C
 ,0,-2.729932,-0.512328,0.073947\C,0,-1.367992,0.040674,0.103745\C,0,-0
 .242743,-0.65201,-0.049439\H,0,-4.737185,-0.306284,-0.056336\H,0,-3.87
 3912,1.352471,-0.07324\H,0,-2.911458,-1.602319,0.260525\H,0,-1.373265,
 1.193408,0.06167\H,0,-0.222694,-1.716374,0.11152\H,0,0.609313,-0.04889
 6,-0.047361\\Version=ES64L-G09RevD.01\State=1-A\HF=-155.6850935\MP2=-1
 55.9120841\RMSD=8.206e-09\PG=C01 [X(C4H6)]\\@

 Normal termination of Gaussian 09 at Wed Aug 26 13:16:09 2020.
