 Gaussian 09, Revision D.01,
 Gaussian 09:  ES64L-G09RevD.01 24-Apr-2013

 --------------------
 #p B2PLYPD3/Def2QZVP
 --------------------

 ---------
 butadiene
 ---------
 Symbolic Z-matrix:
 Charge =  0 Multiplicity = 1

                         Standard orientation:
 ---------------------------------------------------------------------
 Center     Atomic      Atomic             Coordinates (Angstroms)
 Number     Number       Type             X           Y           Z
 ---------------------------------------------------------------------
      1          6           0       -1.842977   -0.135295    0.025943
      2          6           0       -0.626014    0.408087   -0.021829
      3          6           0        0.615081   -0.350253   -0.064290
      4          6           0        1.848458    0.088734    0.049609
      5          1           0       -2.682402    0.509234    0.103507
      6          1           0       -1.951647   -1.213000    0.019432
      7          1           0       -0.552460    1.489490   -0.060005
      8          1           0        0.436968   -1.433103   -0.062144
      9          1           0        2.052462    1.165765   -0.045175
     10          1           0        2.729790   -0.586033    0.107788
 ---------------------------------------------------------------------

 SCF Done:  E(RB2PLYPD3) =  -155.697054238     A.U. after   11 cycles
 E2(B2PLYPD3) =    -0.2255572221D+00 E(B2PLYPD3) =    -0.15592261146053D+03

 The electronic state is 1-A.
 Alpha  occ. eigenvalues --  -10.62488 -10.62328 -10.61774 -10.61404  -0.93113
 Alpha  occ. eigenvalues --   -0.85360  -0.70105  -0.63663  -0.54761  -0.53741
 Alpha  occ. eigenvalues --   -0.47028  -0.45569  -0.40595  -0.38085  -0.28037
 Alpha virt. eigenvalues --    0.01804   0.06960   0.07436   0.07994   0.09844
 Alpha virt. eigenvalues --    0.11675   0.12299   0.14698   0.15724   0.16170
 Alpha virt. eigenvalues --    0.18864   0.20123   0.21305   0.22850   0.23979

 Mulliken charges:
               1
     1  C   -0.179475
     2  C   -0.027089
     3  C   -0.025585
     4  C   -0.170101
     5  H    0.091102
     6  H    0.068566
     7  H    0.049199
     8  H    0.044642
     9  H    0.063441
    10  H    0.085300
 Sum of Mulliken charges =   0.00000

 Dipole moment (field-independent basis, Debye):
    X=             -0.0426    Y=              0.0202    Z=             -0.0044  Tot=              0.0474
 Quadrupole moment (field-independent basis, Debye-Ang):
   XX=            -23.4475   YY=            -23.2441   ZZ=            -29.1953
   XY=             -0.0559   XZ=             -0.1004   YZ=             -0.1192

 1\1\GINC-NODE05\SP\RB2PLYPD3-FC\def2QZVP\C4H6\BOITTIER\26-Aug-2020\0\\
 #p B2PLYPD3/Def2QZVP\\butadiene\\0,1\C,0,-3.841872,0.24106,-0.012911\C
 ,0,-2.738882,-0.50486,0.061663\C,0,-1.383798,0.025035,0.074299\C,0,-0.
 247155,-0.628096,-0.017147\H,0,-4.781732,-0.248907,-0.064523\H,0,-3.75
 9759,1.320365,-0.05363\H,0,-2.855988,-1.579703,0.147096\H,0,-1.369192,
 1.121212,0.024526\H,0,-0.234781,-1.719077,0.12499\H,0,0.738578,-0.1216
 25,-0.102356\\Version=ES64L-G09RevD.01\State=1-A\HF=-155.6970542\MP2=-
 155.9226115\RMSD=7.215e-09\PG=C01 [X(C4H6)]\\@

 Normal termination of Gaussian 09 at Wed Aug 26 09:48:05 2020.
