 Gaussian 09, Revision D.01,
 Gaussian 09:  ES64L-G09RevD.01 24-Apr-2013

 --------------------
 #p B2PLYPD3/Def2QZVP
 --------------------

 ---------
 butadiene
 ---------
 Symbolic Z-matrix:
 Charge =  0 Multiplicity = 1

                         Standard orientation:
 ---------------------------------------------------------------------
 Center     Atomic      Atomic             Coordinates (Angstroms)
 Number     Number       Type             X           Y           Z
 ---------------------------------------------------------------------
      1          6           0       -1.825415    0.078263    0.028641
      2          6           0       -0.587590   -0.371558   -0.051576
      3          6           0        0.597033    0.445174   -0.036716
      4          6           0        1.820558   -0.135068    0.015992
      5          1           0       -2.718253   -0.533348    0.144381
      6          1           0       -2.042519    1.106176   -0.011835
      7          1           0       -0.442572   -1.430970   -0.072518
      8          1           0        0.485717    1.484257    0.025233
      9          1           0        2.003225   -1.223708    0.090847
     10          1           0        2.686883    0.496731    0.085844
 ---------------------------------------------------------------------

 SCF Done:  E(RB2PLYPD3) =  -155.695848786     A.U. after   11 cycles
 E2(B2PLYPD3) =    -0.2255855376D+00 E(B2PLYPD3) =    -0.15592143432402D+03

 The electronic state is 1-A.
 Alpha  occ. eigenvalues --  -10.62450 -10.62013 -10.61842 -10.60774  -0.93349
 Alpha  occ. eigenvalues --   -0.84797  -0.70376  -0.64917  -0.54947  -0.53982
 Alpha  occ. eigenvalues --   -0.46893  -0.45417  -0.41457  -0.38219  -0.27420
 Alpha virt. eigenvalues --    0.01642   0.07011   0.07506   0.08164   0.09492
 Alpha virt. eigenvalues --    0.11694   0.12546   0.14797   0.15846   0.16387
 Alpha virt. eigenvalues --    0.18819   0.20339   0.21955   0.23045   0.23627

 Mulliken charges:
               1
     1  C   -0.177209
     2  C   -0.015885
     3  C   -0.050821
     4  C   -0.171779
     5  H    0.079332
     6  H    0.059833
     7  H    0.057797
     8  H    0.068422
     9  H    0.071147
    10  H    0.079163
 Sum of Mulliken charges =   0.00000

 Dipole moment (field-independent basis, Debye):
    X=              0.0274    Y=              0.0401    Z=              0.1775  Tot=              0.1840
 Quadrupole moment (field-independent basis, Debye-Ang):
   XX=            -23.5088   YY=            -23.0579   ZZ=            -29.1495
   XY=             -0.3087   XZ=              0.0844   YZ=             -0.0620

 1\1\GINC-NODE09\SP\RB2PLYPD3-FC\def2QZVP\C4H6\BOITTIER\26-Aug-2020\0\\
 #p B2PLYPD3/Def2QZVP\\butadiene\\0,1\C,0,-3.832804,0.199027,0.050687\C
 ,0,-2.699727,-0.47436,-0.009896\C,0,-1.384558,0.10942,-0.021499\C,0,-0
 .289086,-0.684615,0.055443\H,0,-4.822784,-0.232498,0.186145\H,0,-3.856
 434,1.247213,-0.027585\H,0,-2.753013,-1.542379,0.007949\H,0,-1.301739,
 1.152727,0.002462\H,0,-0.310379,-1.784838,0.170181\H,0,0.679327,-0.221
 664,0.104652\\Version=ES64L-G09RevD.01\State=1-A\HF=-155.6958488\MP2=-
 155.9214343\RMSD=6.877e-09\PG=C01 [X(C4H6)]\\@

 Normal termination of Gaussian 09 at Wed Aug 26 08:55:22 2020.
