 Gaussian 09, Revision D.01,
 Gaussian 09:  ES64L-G09RevD.01 24-Apr-2013

 --------------------
 #p B2PLYPD3/Def2QZVP
 --------------------

 ---------
 butadiene
 ---------
 Symbolic Z-matrix:
 Charge =  0 Multiplicity = 1

                         Standard orientation:
 ---------------------------------------------------------------------
 Center     Atomic      Atomic             Coordinates (Angstroms)
 Number     Number       Type             X           Y           Z
 ---------------------------------------------------------------------
      1          6           0       -1.836731   -0.119844    0.005473
      2          6           0       -0.608926    0.403895   -0.006414
      3          6           0        0.612699   -0.387579   -0.005938
      4          6           0        1.836353    0.110868    0.009935
      5          1           0       -2.729249    0.508888   -0.013314
      6          1           0       -1.957195   -1.182585    0.052002
      7          1           0       -0.513941    1.475522   -0.054273
      8          1           0        0.472649   -1.450996   -0.018590
      9          1           0        2.039447    1.173905    0.074283
     10          1           0        2.667919   -0.568778   -0.058440
 ---------------------------------------------------------------------

 SCF Done:  E(RB2PLYPD3) =  -155.701049082     A.U. after   11 cycles
 E2(B2PLYPD3) =    -0.2251913753D+00 E(B2PLYPD3) =    -0.15592624045757D+03

 The electronic state is 1-A.
 Alpha  occ. eigenvalues --  -10.62292 -10.62146 -10.61426 -10.61235  -0.93120
 Alpha  occ. eigenvalues --   -0.85190  -0.70031  -0.64267  -0.54400  -0.54353
 Alpha  occ. eigenvalues --   -0.46703  -0.45805  -0.41125  -0.38155  -0.27827
 Alpha virt. eigenvalues --    0.01918   0.07003   0.07498   0.08056   0.09716
 Alpha virt. eigenvalues --    0.11740   0.12362   0.14799   0.15820   0.16136
 Alpha virt. eigenvalues --    0.18772   0.20415   0.21571   0.22775   0.24081

 Mulliken charges:
               1
     1  C   -0.177987
     2  C   -0.029478
     3  C   -0.031505
     4  C   -0.176683
     5  H    0.086164
     6  H    0.064955
     7  H    0.054891
     8  H    0.054758
     9  H    0.070431
    10  H    0.084453
 Sum of Mulliken charges =   0.00000

 Dipole moment (field-independent basis, Debye):
    X=              0.0013    Y=              0.0017    Z=             -0.0189  Tot=              0.0190
 Quadrupole moment (field-independent basis, Debye-Ang):
   XX=            -23.5907   YY=            -23.0302   ZZ=            -29.1838
   XY=              0.0669   XZ=             -0.0596   YZ=              0.0175

 1\1\GINC-NODE32\SP\RB2PLYPD3-FC\def2QZVP\C4H6\BOITTIER\26-Aug-2020\0\\
 #p B2PLYPD3/Def2QZVP\\butadiene\\0,1\C,0,-3.83871,0.22954,0.012519\C,0
 ,-2.72338,-0.503324,0.042478\C,0,-1.380639,0.058276,0.0212\C,0,-0.2649
 91,-0.64979,0.022655\H,0,-4.82862,-0.229878,0.047987\H,0,-3.768705,1.2
 94944,-0.06565\H,0,-2.820033,-1.572904,0.122184\H,0,-1.329601,1.129565
 ,0.002125\H,0,-0.254083,-1.733424,-0.009821\H,0,0.674252,-0.126898,0.0
 72676\\Version=ES64L-G09RevD.01\State=1-A\HF=-155.7010491\MP2=-155.926
 2405\RMSD=4.294e-09\PG=C01 [X(C4H6)]\\@

 Normal termination of Gaussian 09 at Wed Aug 26 19:08:22 2020.
