 Gaussian 09, Revision D.01,
 Gaussian 09:  ES64L-G09RevD.01 24-Apr-2013

 --------------------
 #p B2PLYPD3/Def2QZVP
 --------------------

 ---------
 butadiene
 ---------
 Symbolic Z-matrix:
 Charge =  0 Multiplicity = 1

                         Standard orientation:
 ---------------------------------------------------------------------
 Center     Atomic      Atomic             Coordinates (Angstroms)
 Number     Number       Type             X           Y           Z
 ---------------------------------------------------------------------
      1          6           0        1.826809    0.104931   -0.029441
      2          6           0        0.594628   -0.386621    0.042037
      3          6           0       -0.602788    0.414744    0.014658
      4          6           0       -1.825262   -0.122051   -0.014397
      5          1           0        2.686143   -0.554851   -0.025611
      6          1           0        2.045046    1.171318   -0.002759
      7          1           0        0.484169   -1.485983   -0.004624
      8          1           0       -0.508334    1.505006    0.021685
      9          1           0       -1.937203   -1.189359   -0.030205
     10          1           0       -2.730141    0.487850   -0.035623
 ---------------------------------------------------------------------

 SCF Done:  E(RB2PLYPD3) =  -155.700014960     A.U. after   11 cycles
 E2(B2PLYPD3) =    -0.2258086318D+00 E(B2PLYPD3) =    -0.15592582359147D+03

 The electronic state is 1-A.
 Alpha  occ. eigenvalues --  -10.62557 -10.62493 -10.61471 -10.61405  -0.93208
 Alpha  occ. eigenvalues --   -0.84955  -0.69987  -0.63861  -0.54508  -0.54095
 Alpha  occ. eigenvalues --   -0.46325  -0.45348  -0.41240  -0.38362  -0.27649
 Alpha virt. eigenvalues --    0.01796   0.07029   0.07340   0.07966   0.09624
 Alpha virt. eigenvalues --    0.11684   0.12434   0.14726   0.15772   0.16274
 Alpha virt. eigenvalues --    0.18720   0.20216   0.21793   0.22713   0.23969

 Mulliken charges:
               1
     1  C   -0.173734
     2  C   -0.027167
     3  C   -0.029232
     4  C   -0.174462
     5  H    0.081552
     6  H    0.065457
     7  H    0.051789
     8  H    0.055214
     9  H    0.065343
    10  H    0.085241
 Sum of Mulliken charges =   0.00000

 Dipole moment (field-independent basis, Debye):
    X=             -0.0085    Y=              0.0128    Z=             -0.0277  Tot=              0.0317
 Quadrupole moment (field-independent basis, Debye-Ang):
   XX=            -23.5543   YY=            -23.0579   ZZ=            -29.2668
   XY=              0.0652   XZ=              0.0583   YZ=              0.0788

 1\1\GINC-NODE11\SP\RB2PLYPD3-FC\def2QZVP\C4H6\BOITTIER\26-Aug-2020\0\\
 #p B2PLYPD3/Def2QZVP\\butadiene\\0,1\C,0,-3.831377,0.21591,0.047471\C,
 0,-2.707596,-0.49088,-0.003169\C,0,-1.385807,0.083238,-0.002046\C,0,-0
 .279267,-0.662657,0.0494\H,0,-4.795084,-0.278786,0.065547\H,0,-3.85500
 3,1.302473,-0.018435\H,0,-2.79583,-1.589813,0.083642\H,0,-1.283294,1.1
 71788,-0.048881\H,0,-0.360425,-1.731458,0.104219\H,0,0.720375,-0.22453
 8,0.050628\\Version=ES64L-G09RevD.01\State=1-A\HF=-155.700015\MP2=-155
 .9258236\RMSD=4.782e-09\PG=C01 [X(C4H6)]\\@

 Normal termination of Gaussian 09 at Wed Aug 26 22:02:23 2020.
