 Gaussian 09, Revision D.01,
 Gaussian 09:  ES64L-G09RevD.01 24-Apr-2013

 --------------------
 #p B2PLYPD3/Def2QZVP
 --------------------

 ---------
 butadiene
 ---------
 Symbolic Z-matrix:
 Charge =  0 Multiplicity = 1

                         Standard orientation:
 ---------------------------------------------------------------------
 Center     Atomic      Atomic             Coordinates (Angstroms)
 Number     Number       Type             X           Y           Z
 ---------------------------------------------------------------------
      1          6           0        1.832888    0.102159    0.020654
      2          6           0        0.583297   -0.396579   -0.036168
      3          6           0       -0.609059    0.414358   -0.054984
      4          6           0       -1.832999   -0.117107    0.030998
      5          1           0        2.727707   -0.512751   -0.002605
      6          1           0        1.966031    1.188956    0.204923
      7          1           0        0.504439   -1.447214   -0.044966
      8          1           0       -0.411279    1.464057   -0.093180
      9          1           0       -1.863831   -1.196060    0.117635
     10          1           0       -2.767830    0.486030    0.055187
 ---------------------------------------------------------------------

 SCF Done:  E(RB2PLYPD3) =  -155.695530292     A.U. after   11 cycles
 E2(B2PLYPD3) =    -0.2263262306D+00 E(B2PLYPD3) =    -0.15592185652234D+03

 The electronic state is 1-A.
 Alpha  occ. eigenvalues --  -10.62398 -10.62150 -10.62002 -10.61860  -0.93296
 Alpha  occ. eigenvalues --   -0.84621  -0.69857  -0.64645  -0.54388  -0.53817
 Alpha  occ. eigenvalues --   -0.46681  -0.45208  -0.41637  -0.38108  -0.27435
 Alpha virt. eigenvalues --    0.01517   0.07005   0.07446   0.08040   0.09456
 Alpha virt. eigenvalues --    0.11676   0.12547   0.14531   0.15859   0.16125
 Alpha virt. eigenvalues --    0.18641   0.20498   0.21306   0.22477   0.24065

 Mulliken charges:
               1
     1  C   -0.182042
     2  C   -0.025845
     3  C   -0.032553
     4  C   -0.171648
     5  H    0.085954
     6  H    0.057139
     7  H    0.055413
     8  H    0.058408
     9  H    0.065741
    10  H    0.089433
 Sum of Mulliken charges =   0.00000

 Dipole moment (field-independent basis, Debye):
    X=             -0.0194    Y=             -0.0250    Z=              0.1546  Tot=              0.1578
 Quadrupole moment (field-independent basis, Debye-Ang):
   XX=            -23.5924   YY=            -23.2349   ZZ=            -29.2649
   XY=             -0.1750   XZ=              0.0042   YZ=              0.0813

 1\1\GINC-NODE19\SP\RB2PLYPD3-FC\def2QZVP\C4H6\BOITTIER\26-Aug-2020\0\\
 #p B2PLYPD3/Def2QZVP\\butadiene\\0,1\C,0,-3.840301,0.213014,-0.007312\
 C,0,-2.700014,-0.499313,0.068722\C,0,-1.381658,0.08515,0.063533\C,0,-0
 .272991,-0.659445,-0.00214\H,0,-4.830675,-0.230605,0.03415\H,0,-3.7773
 6,1.299449,-0.227554\H,0,-2.81053,-1.546222,0.112276\H,0,-1.388135,1.1
 53978,0.06671\H,0,-0.436178,-1.728727,-0.053146\H,0,0.754636,-0.234599
 ,-0.044053\\Version=ES64L-G09RevD.01\State=1-A\HF=-155.6955303\MP2=-15
 5.9218565\RMSD=4.729e-09\PG=C01 [X(C4H6)]\\@

 Normal termination of Gaussian 09 at Wed Aug 26 09:36:34 2020.
