 Gaussian 09, Revision D.01,
 Gaussian 09:  ES64L-G09RevD.01 24-Apr-2013

 --------------------
 #p B2PLYPD3/Def2QZVP
 --------------------

 ---------
 butadiene
 ---------
 Symbolic Z-matrix:
 Charge =  0 Multiplicity = 1

                         Standard orientation:
 ---------------------------------------------------------------------
 Center     Atomic      Atomic             Coordinates (Angstroms)
 Number     Number       Type             X           Y           Z
 ---------------------------------------------------------------------
      1          6           0        1.822837    0.121802   -0.017727
      2          6           0        0.607003   -0.416914    0.014548
      3          6           0       -0.599392    0.381899    0.039478
      4          6           0       -1.833878   -0.096268   -0.029532
      5          1           0        2.703278   -0.502497   -0.011754
      6          1           0        1.873714    1.237283   -0.001221
      7          1           0        0.518730   -1.503129   -0.046965
      8          1           0       -0.375107    1.470264    0.001110
      9          1           0       -1.964203   -1.157250    0.086331
     10          1           0       -2.735830    0.512217   -0.068106
 ---------------------------------------------------------------------

 SCF Done:  E(RB2PLYPD3) =  -155.696710433     A.U. after   11 cycles
 E2(B2PLYPD3) =    -0.2260293248D+00 E(B2PLYPD3) =    -0.15592273975777D+03

 The electronic state is 1-A.
 Alpha  occ. eigenvalues --  -10.62648 -10.62333 -10.61765 -10.61413  -0.93311
 Alpha  occ. eigenvalues --   -0.85069  -0.69875  -0.63675  -0.54882  -0.53502
 Alpha  occ. eigenvalues --   -0.46808  -0.45127  -0.40961  -0.38362  -0.27808
 Alpha virt. eigenvalues --    0.01836   0.07063   0.07247   0.08042   0.09570
 Alpha virt. eigenvalues --    0.11753   0.12534   0.14496   0.15748   0.16035
 Alpha virt. eigenvalues --    0.18676   0.20138   0.21415   0.23185   0.23916

 Mulliken charges:
               1
     1  C   -0.177760
     2  C   -0.023148
     3  C   -0.022066
     4  C   -0.175697
     5  H    0.092044
     6  H    0.059829
     7  H    0.049500
     8  H    0.044315
     9  H    0.065336
    10  H    0.087646
 Sum of Mulliken charges =   0.00000

 Dipole moment (field-independent basis, Debye):
    X=              0.0133    Y=             -0.0640    Z=              0.0061  Tot=              0.0657
 Quadrupole moment (field-independent basis, Debye-Ang):
   XX=            -23.5565   YY=            -23.2517   ZZ=            -29.2542
   XY=             -0.1103   XZ=             -0.0141   YZ=             -0.0998

 1\1\GINC-NODE09\SP\RB2PLYPD3-FC\def2QZVP\C4H6\BOITTIER\26-Aug-2020\0\\
 #p B2PLYPD3/Def2QZVP\\butadiene\\0,1\C,0,-3.823559,0.232765,0.038033\C
 ,0,-2.724043,-0.51573,0.019911\C,0,-1.394096,0.053151,-0.021685\C,0,-0
 .265103,-0.636814,0.060083\H,0,-4.801639,-0.223601,0.045182\H,0,-3.673
 754,1.338627,-0.004231\H,0,-2.83169,-1.598479,0.10655\H,0,-1.419601,1.
 164679,-0.008714\H,0,-0.327341,-1.706346,-0.031128\H,0,0.731394,-0.199
 11,0.085922\\Version=ES64L-G09RevD.01\State=1-A\HF=-155.6967104\MP2=-1
 55.9227398\RMSD=3.742e-09\PG=C01 [X(C4H6)]\\@

 Normal termination of Gaussian 09 at Wed Aug 26 09:29:46 2020.
