 Gaussian 09, Revision D.01,
 Gaussian 09:  ES64L-G09RevD.01 24-Apr-2013

 --------------------
 #p B2PLYPD3/Def2QZVP
 --------------------

 ---------
 butadiene
 ---------
 Symbolic Z-matrix:
 Charge =  0 Multiplicity = 1

                         Standard orientation:
 ---------------------------------------------------------------------
 Center     Atomic      Atomic             Coordinates (Angstroms)
 Number     Number       Type             X           Y           Z
 ---------------------------------------------------------------------
      1          6           0        1.836965   -0.124336   -0.019242
      2          6           0        0.600838    0.422952    0.000668
      3          6           0       -0.605351   -0.387120    0.021201
      4          6           0       -1.835406    0.104914   -0.011647
      5          1           0        2.738402    0.474853    0.059193
      6          1           0        1.944528   -1.206603   -0.044132
      7          1           0        0.478880    1.504878    0.048466
      8          1           0       -0.483133   -1.466308    0.032072
      9          1           0       -1.980896    1.152378   -0.052557
     10          1           0       -2.680058   -0.557654    0.011077
 ---------------------------------------------------------------------

 SCF Done:  E(RB2PLYPD3) =  -155.700077372     A.U. after   11 cycles
 E2(B2PLYPD3) =    -0.2258025052D+00 E(B2PLYPD3) =    -0.15592587987733D+03

 The electronic state is 1-A.
 Alpha  occ. eigenvalues --  -10.62845 -10.62236 -10.61865 -10.60903  -0.93006
 Alpha  occ. eigenvalues --   -0.84883  -0.70043  -0.64169  -0.54459  -0.54194
 Alpha  occ. eigenvalues --   -0.46404  -0.45784  -0.41473  -0.38062  -0.27577
 Alpha virt. eigenvalues --    0.01713   0.07036   0.07414   0.08053   0.09533
 Alpha virt. eigenvalues --    0.11729   0.12473   0.14690   0.15884   0.16104
 Alpha virt. eigenvalues --    0.18732   0.20501   0.21469   0.22901   0.24070

 Mulliken charges:
               1
     1  C   -0.175967
     2  C   -0.038614
     3  C   -0.019219
     4  C   -0.180927
     5  H    0.086972
     6  H    0.065677
     7  H    0.055764
     8  H    0.051304
     9  H    0.067409
    10  H    0.087600
 Sum of Mulliken charges =   0.00000

 Dipole moment (field-independent basis, Debye):
    X=              0.0017    Y=              0.0012    Z=              0.0635  Tot=              0.0635
 Quadrupole moment (field-independent basis, Debye-Ang):
   XX=            -23.6227   YY=            -23.0165   ZZ=            -29.2779
   XY=             -0.0210   XZ=              0.2023   YZ=              0.0527

 1\1\GINC-NODE12\SP\RB2PLYPD3-FC\def2QZVP\C4H6\BOITTIER\26-Aug-2020\0\\
 #p B2PLYPD3/Def2QZVP\\butadiene\\0,1\C,0,-3.837482,0.235937,0.00217\C,
 0,-2.71869,-0.522192,0.040578\C,0,-1.387267,0.059881,0.034625\C,0,-0.2
 64892,-0.64455,0.018471\H,0,-4.830876,-0.1899,0.100142\H,0,-3.750436,1
 .318629,-0.058597\H,0,-2.791381,-1.606369,0.124234\H,0,-1.31499,1.1433
 28,0.009697\H,0,-0.308781,-1.701933,0.012333\H,0,0.684501,-0.14295,0.0
 19486\\Version=ES64L-G09RevD.01\State=1-A\HF=-155.7000774\MP2=-155.925
 8799\RMSD=6.151e-09\PG=C01 [X(C4H6)]\\@

 Normal termination of Gaussian 09 at Wed Aug 26 20:33:46 2020.
