 Gaussian 09, Revision D.01,
 Gaussian 09:  ES64L-G09RevD.01 24-Apr-2013

 --------------------
 #p B2PLYPD3/Def2QZVP
 --------------------

 ---------
 butadiene
 ---------
 Symbolic Z-matrix:
 Charge =  0 Multiplicity = 1

                         Standard orientation:
 ---------------------------------------------------------------------
 Center     Atomic      Atomic             Coordinates (Angstroms)
 Number     Number       Type             X           Y           Z
 ---------------------------------------------------------------------
      1          6           0       -1.811116   -0.096517    0.048665
      2          6           0       -0.564630    0.364929   -0.083231
      3          6           0        0.592527   -0.402451   -0.090226
      4          6           0        1.825891    0.106056    0.054813
      5          1           0       -2.626163    0.495688    0.213443
      6          1           0       -2.052770   -1.077913    0.129792
      7          1           0       -0.564631    1.479296   -0.065081
      8          1           0        0.425491   -1.484180   -0.163646
      9          1           0        1.866962    1.234878   -0.004837
     10          1           0        2.695077   -0.479868    0.310203
 ---------------------------------------------------------------------

 SCF Done:  E(RB2PLYPD3) =  -155.682116842     A.U. after   11 cycles
 E2(B2PLYPD3) =    -0.2263683644D+00 E(B2PLYPD3) =    -0.15590848520596D+03

 The electronic state is 1-A.
 Alpha  occ. eigenvalues --  -10.62448 -10.62238 -10.62213 -10.59876  -0.94047
 Alpha  occ. eigenvalues --   -0.85115  -0.71469  -0.64054  -0.55734  -0.54042
 Alpha  occ. eigenvalues --   -0.46891  -0.45069  -0.41700  -0.38479  -0.27096
 Alpha virt. eigenvalues --    0.01145   0.07050   0.07408   0.07989   0.09883
 Alpha virt. eigenvalues --    0.11644   0.12717   0.14787   0.15801   0.16340
 Alpha virt. eigenvalues --    0.18643   0.20051   0.21748   0.22990   0.24208

 Mulliken charges:
               1
     1  C   -0.171793
     2  C   -0.005430
     3  C   -0.035666
     4  C   -0.173834
     5  H    0.076593
     6  H    0.054261
     7  H    0.041534
     8  H    0.056339
     9  H    0.062800
    10  H    0.095195
 Sum of Mulliken charges =   0.00000

 Dipole moment (field-independent basis, Debye):
    X=             -0.0553    Y=             -0.0768    Z=              0.2848  Tot=              0.3001
 Quadrupole moment (field-independent basis, Debye-Ang):
   XX=            -23.4875   YY=            -23.3719   ZZ=            -28.9371
   XY=             -0.1140   XZ=              0.0202   YZ=             -0.1013

 1\1\GINC-NODE39\SP\RB2PLYPD3-FC\def2QZVP\C4H6\BOITTIER\26-Aug-2020\0\\
 #p B2PLYPD3/Def2QZVP\\butadiene\\0,1\C,0,-3.820465,0.209413,-0.037942\
 C,0,-2.679789,-0.469686,0.109508\C,0,-1.401158,0.071508,0.097427\C,0,-
 0.282893,-0.659162,-0.030656\H,0,-4.731078,-0.227046,-0.187769\H,0,-3.
 877632,1.215859,-0.147096\H,0,-2.884924,-1.565081,0.122642\H,0,-1.3660
 43,1.167124,0.140101\H,0,-0.450078,-1.774142,0.06074\H,0,0.678487,-0.2
 50595,-0.300539\\Version=ES64L-G09RevD.01\State=1-A\HF=-155.6821168\MP
 2=-155.9084852\RMSD=8.998e-09\PG=C01 [X(C4H6)]\\@

 Normal termination of Gaussian 09 at Wed Aug 26 15:18:15 2020.
