 Gaussian 09, Revision D.01,
 Gaussian 09:  ES64L-G09RevD.01 24-Apr-2013

 --------------------
 #p B2PLYPD3/Def2QZVP
 --------------------

 ---------
 butadiene
 ---------
 Symbolic Z-matrix:
 Charge =  0 Multiplicity = 1

                         Standard orientation:
 ---------------------------------------------------------------------
 Center     Atomic      Atomic             Coordinates (Angstroms)
 Number     Number       Type             X           Y           Z
 ---------------------------------------------------------------------
      1          6           0        1.838756    0.103865    0.022735
      2          6           0        0.610529   -0.396784   -0.031444
      3          6           0       -0.603296    0.419728   -0.024552
      4          6           0       -1.834274   -0.125898    0.015512
      5          1           0        2.690870   -0.557613    0.058039
      6          1           0        1.998289    1.174212   -0.023147
      7          1           0        0.447049   -1.462296   -0.024358
      8          1           0       -0.472321    1.503594    0.034284
      9          1           0       -2.011936   -1.191834    0.044000
     10          1           0       -2.722245    0.528468    0.017670
 ---------------------------------------------------------------------

 SCF Done:  E(RB2PLYPD3) =  -155.699886668     A.U. after   11 cycles
 E2(B2PLYPD3) =    -0.2259152982D+00 E(B2PLYPD3) =    -0.15592580196664D+03

 The electronic state is 1-A.
 Alpha  occ. eigenvalues --  -10.62857 -10.62305 -10.61917 -10.61318  -0.92846
 Alpha  occ. eigenvalues --   -0.84777  -0.69854  -0.64119  -0.54393  -0.53767
 Alpha  occ. eigenvalues --   -0.46568  -0.45782  -0.41069  -0.37982  -0.27659
 Alpha virt. eigenvalues --    0.01806   0.06999   0.07362   0.08064   0.09411
 Alpha virt. eigenvalues --    0.11742   0.12335   0.14724   0.15761   0.16071
 Alpha virt. eigenvalues --    0.18737   0.20344   0.21570   0.23074   0.23870

 Mulliken charges:
               1
     1  C   -0.178216
     2  C   -0.027278
     3  C   -0.035571
     4  C   -0.177468
     5  H    0.086443
     6  H    0.067849
     7  H    0.055419
     8  H    0.057163
     9  H    0.070212
    10  H    0.081448
 Sum of Mulliken charges =   0.00000

 Dipole moment (field-independent basis, Debye):
    X=             -0.0099    Y=             -0.0212    Z=              0.0558  Tot=              0.0605
 Quadrupole moment (field-independent basis, Debye-Ang):
   XX=            -23.7154   YY=            -22.9611   ZZ=            -29.3287
   XY=              0.2192   XZ=             -0.0453   YZ=             -0.0461

 1\1\GINC-NODE28\SP\RB2PLYPD3-FC\def2QZVP\C4H6\BOITTIER\26-Aug-2020\0\\
 #p B2PLYPD3/Def2QZVP\\butadiene\\0,1\C,0,-3.840854,0.217979,-0.005072\
 C,0,-2.722835,-0.494341,0.063922\C,0,-1.381721,0.089433,0.036912\C,0,-
 0.269439,-0.670087,0.012893\H,0,-4.798385,-0.279694,-0.023897\H,0,-3.8
 04631,1.300378,0.012202\H,0,-2.754167,-1.571677,0.085308\H,0,-1.315341
 ,1.177219,-0.050817\H,0,-0.286973,-1.750961,0.012914\H,0,0.721947,-0.1
 8686,-0.005496\\Version=ES64L-G09RevD.01\State=1-A\HF=-155.6998867\MP2
 =-155.925802\RMSD=5.524e-09\PG=C01 [X(C4H6)]\\@

 Normal termination of Gaussian 09 at Wed Aug 26 21:40:09 2020.
