 Gaussian 09, Revision D.01,
 Gaussian 09:  ES64L-G09RevD.01 24-Apr-2013

 --------------------
 #p B2PLYPD3/Def2QZVP
 --------------------

 ---------
 butadiene
 ---------
 Symbolic Z-matrix:
 Charge =  0 Multiplicity = 1

                         Standard orientation:
 ---------------------------------------------------------------------
 Center     Atomic      Atomic             Coordinates (Angstroms)
 Number     Number       Type             X           Y           Z
 ---------------------------------------------------------------------
      1          6           0        1.849189    0.102756    0.032296
      2          6           0        0.632282   -0.386033   -0.054548
      3          6           0       -0.614773    0.391549   -0.036780
      4          6           0       -1.856612   -0.120257    0.019572
      5          1           0        2.721170   -0.479132    0.177818
      6          1           0        1.947412    1.186724    0.013299
      7          1           0        0.508389   -1.481947   -0.117485
      8          1           0       -0.498247    1.473306   -0.066591
      9          1           0       -2.029761   -1.161745    0.103239
     10          1           0       -2.709477    0.534705    0.126483
 ---------------------------------------------------------------------

 SCF Done:  E(RB2PLYPD3) =  -155.697897223     A.U. after   11 cycles
 E2(B2PLYPD3) =    -0.2254343569D+00 E(B2PLYPD3) =    -0.15592333158037D+03

 The electronic state is 1-A.
 Alpha  occ. eigenvalues --  -10.62924 -10.62548 -10.61467 -10.61116  -0.92830
 Alpha  occ. eigenvalues --   -0.85326  -0.70287  -0.63807  -0.54986  -0.53959
 Alpha  occ. eigenvalues --   -0.47258  -0.45542  -0.40898  -0.37795  -0.27974
 Alpha virt. eigenvalues --    0.01777   0.07006   0.07489   0.08049   0.09663
 Alpha virt. eigenvalues --    0.11635   0.12562   0.14598   0.15845   0.16118
 Alpha virt. eigenvalues --    0.18900   0.20585   0.21534   0.22669   0.23708

 Mulliken charges:
               1
     1  C   -0.171691
     2  C   -0.024159
     3  C   -0.036027
     4  C   -0.175086
     5  H    0.093294
     6  H    0.058254
     7  H    0.048188
     8  H    0.052088
     9  H    0.070081
    10  H    0.085058
 Sum of Mulliken charges =   0.00000

 Dipole moment (field-independent basis, Debye):
    X=              0.0312    Y=             -0.0134    Z=              0.1679  Tot=              0.1713
 Quadrupole moment (field-independent basis, Debye-Ang):
   XX=            -23.3169   YY=            -23.2789   ZZ=            -29.1575
   XY=             -0.0103   XZ=             -0.0419   YZ=             -0.0959

 1\1\GINC-NODE01\SP\RB2PLYPD3-FC\def2QZVP\C4H6\BOITTIER\26-Aug-2020\0\\
 #p B2PLYPD3/Def2QZVP\\butadiene\\0,1\C,0,-3.853787,0.209222,-0.015988\
 C,0,-2.740548,-0.482085,0.084567\C,0,-1.377003,0.065176,0.047844\C,0,-
 0.243749,-0.656806,0.005868\H,0,-4.814455,-0.215064,-0.147216\H,0,-3.7
 61268,1.29382,-0.025102\H,0,-2.80958,-1.580824,0.175919\H,0,-1.302853,
 1.151069,0.049581\H,0,-0.255313,-1.714324,-0.050696\H,0,0.709935,-0.16
 372,-0.117158\\Version=ES64L-G09RevD.01\State=1-A\HF=-155.6978972\MP2=
 -155.9233316\RMSD=5.669e-09\PG=C01 [X(C4H6)]\\@

 Normal termination of Gaussian 09 at Wed Aug 26 09:12:00 2020.
