 Gaussian 09, Revision D.01,
 Gaussian 09:  ES64L-G09RevD.01 24-Apr-2013

 --------------------
 #p B2PLYPD3/Def2QZVP
 --------------------

 ---------
 butadiene
 ---------
 Symbolic Z-matrix:
 Charge =  0 Multiplicity = 1

                         Standard orientation:
 ---------------------------------------------------------------------
 Center     Atomic      Atomic             Coordinates (Angstroms)
 Number     Number       Type             X           Y           Z
 ---------------------------------------------------------------------
      1          6           0        1.843403   -0.118505   -0.023787
      2          6           0        0.613856    0.403224    0.010985
      3          6           0       -0.610443   -0.384376    0.035080
      4          6           0       -1.845400    0.113262   -0.023645
      5          1           0        2.722904    0.494967   -0.031666
      6          1           0        1.981840   -1.194713   -0.003076
      7          1           0        0.485529    1.506671    0.075044
      8          1           0       -0.510425   -1.476257    0.033763
      9          1           0       -2.014098    1.179165   -0.020723
     10          1           0       -2.674239   -0.591464   -0.045131
 ---------------------------------------------------------------------

 SCF Done:  E(RB2PLYPD3) =  -155.699808902     A.U. after   11 cycles
 E2(B2PLYPD3) =    -0.2258768707D+00 E(B2PLYPD3) =    -0.15592568577303D+03

 The electronic state is 1-A.
 Alpha  occ. eigenvalues --  -10.62888 -10.62513 -10.61528 -10.61483  -0.92865
 Alpha  occ. eigenvalues --   -0.85047  -0.70030  -0.63584  -0.54381  -0.54108
 Alpha  occ. eigenvalues --   -0.46441  -0.45692  -0.41035  -0.38044  -0.27767
 Alpha virt. eigenvalues --    0.01747   0.07002   0.07332   0.07977   0.09676
 Alpha virt. eigenvalues --    0.11688   0.12319   0.14694   0.15751   0.16136
 Alpha virt. eigenvalues --    0.18773   0.20371   0.21473   0.22649   0.24074

 Mulliken charges:
               1
     1  C   -0.175141
     2  C   -0.031348
     3  C   -0.023622
     4  C   -0.179522
     5  H    0.088963
     6  H    0.065757
     7  H    0.049153
     8  H    0.048560
     9  H    0.070119
    10  H    0.087081
 Sum of Mulliken charges =   0.00000

 Dipole moment (field-independent basis, Debye):
    X=              0.0281    Y=             -0.0108    Z=              0.0384  Tot=              0.0488
 Quadrupole moment (field-independent basis, Debye-Ang):
   XX=            -23.5983   YY=            -23.0428   ZZ=            -29.3138
   XY=             -0.0136   XZ=              0.1149   YZ=              0.0556

 1\1\GINC-NODE21\SP\RB2PLYPD3-FC\def2QZVP\C4H6\BOITTIER\26-Aug-2020\0\\
 #p B2PLYPD3/Def2QZVP\\butadiene\\0,1\C,0,-3.845356,0.227569,-0.004521\
 C,0,-2.727052,-0.501582,0.049612\C,0,-1.382839,0.057781,0.047379\C,0,-
 0.255446,-0.651855,0.007236\H,0,-4.819368,-0.22084,0.008172\H,0,-3.791
 53,1.311374,-0.02151\H,0,-2.795195,-1.60747,0.15226\H,0,-1.288546,1.14
 9458,0.007866\H,0,-0.277544,-1.730051,0.047513\H,0,0.684656,-0.105748,
 -0.038036\\Version=ES64L-G09RevD.01\State=1-A\HF=-155.6998089\MP2=-155
 .9256858\RMSD=2.842e-09\PG=C01 [X(C4H6)]\\@

 Normal termination of Gaussian 09 at Wed Aug 26 20:38:00 2020.
