 Gaussian 09, Revision D.01,
 Gaussian 09:  ES64L-G09RevD.01 24-Apr-2013

 --------------------
 #p B2PLYPD3/Def2QZVP
 --------------------

 ---------
 butadiene
 ---------
 Symbolic Z-matrix:
 Charge =  0 Multiplicity = 1

                         Standard orientation:
 ---------------------------------------------------------------------
 Center     Atomic      Atomic             Coordinates (Angstroms)
 Number     Number       Type             X           Y           Z
 ---------------------------------------------------------------------
      1          6           0        1.820966   -0.107977    0.020532
      2          6           0        0.602658    0.395257   -0.012792
      3          6           0       -0.596324   -0.461909   -0.083039
      4          6           0       -1.833818    0.130115    0.073261
      5          1           0        2.613180    0.572974   -0.062148
      6          1           0        1.968949   -1.153508    0.286528
      7          1           0        0.491291    1.484075   -0.191686
      8          1           0       -0.494344   -1.477874   -0.087565
      9          1           0       -1.822703    1.263246    0.181474
     10          1           0       -2.717269   -0.421824   -0.114379
 ---------------------------------------------------------------------

 SCF Done:  E(RB2PLYPD3) =  -155.682983177     A.U. after   12 cycles
 E2(B2PLYPD3) =    -0.2269181351D+00 E(B2PLYPD3) =    -0.15590990131201D+03

 The electronic state is 1-A.
 Alpha  occ. eigenvalues --  -10.62622 -10.62405 -10.62360 -10.60696  -0.92780
 Alpha  occ. eigenvalues --   -0.84656  -0.69578  -0.64469  -0.54451  -0.54123
 Alpha  occ. eigenvalues --   -0.45752  -0.45702  -0.41975  -0.37331  -0.27406
 Alpha virt. eigenvalues --    0.01494   0.07053   0.07429   0.07900   0.08958
 Alpha virt. eigenvalues --    0.11815   0.12320   0.14604   0.15475   0.16299
 Alpha virt. eigenvalues --    0.18623   0.19467   0.21259   0.22642   0.24800

 Mulliken charges:
               1
     1  C   -0.186227
     2  C   -0.016408
     3  C   -0.061150
     4  C   -0.168223
     5  H    0.083071
     6  H    0.072004
     7  H    0.054594
     8  H    0.073011
     9  H    0.059329
    10  H    0.090000
 Sum of Mulliken charges =   0.00000

 Dipole moment (field-independent basis, Debye):
    X=              0.0310    Y=             -0.0465    Z=             -0.0583  Tot=              0.0808
 Quadrupole moment (field-independent basis, Debye-Ang):
   XX=            -24.2400   YY=            -22.8771   ZZ=            -29.2073
   XY=              0.2071   XZ=              0.3534   YZ=             -0.2313

 1\1\GINC-NODE22\SP\RB2PLYPD3-FC\def2QZVP\C4H6\BOITTIER\26-Aug-2020\0\\
 #p B2PLYPD3/Def2QZVP\\butadiene\\0,1\C,0,-3.826457,0.211361,0.045592\C
 ,0,-2.717268,-0.501085,0.018222\C,0,-1.385228,0.127885,-0.067183\C,0,-
 0.272144,-0.672489,0.096398\H,0,-4.727526,-0.318909,-0.025276\H,0,-3.7
 84932,1.270414,0.295531\H,0,-2.802153,-1.594905,-0.143897\H,0,-1.30485
 2,1.145597,-0.087344\H,0,-0.484211,-1.783801,0.222228\H,0,0.694597,-0.
 289454,-0.101156\\Version=ES64L-G09RevD.01\State=1-A\HF=-155.6829832\M
 P2=-155.9099013\RMSD=4.543e-09\PG=C01 [X(C4H6)]\\@

 Normal termination of Gaussian 09 at Wed Aug 26 13:24:40 2020.
