 Gaussian 09, Revision D.01,
 Gaussian 09:  ES64L-G09RevD.01 24-Apr-2013

 --------------------
 #p B2PLYPD3/Def2QZVP
 --------------------

 ---------
 butadiene
 ---------
 Symbolic Z-matrix:
 Charge =  0 Multiplicity = 1

                         Standard orientation:
 ---------------------------------------------------------------------
 Center     Atomic      Atomic             Coordinates (Angstroms)
 Number     Number       Type             X           Y           Z
 ---------------------------------------------------------------------
      1          6           0        1.829231    0.109928    0.015999
      2          6           0        0.605797   -0.412491   -0.005144
      3          6           0       -0.592911    0.386472   -0.023144
      4          6           0       -1.838032   -0.098733    0.003175
      5          1           0        2.729726   -0.488167    0.001793
      6          1           0        1.968152    1.201848   -0.045856
      7          1           0        0.465970   -1.480853    0.005377
      8          1           0       -0.437576    1.440856    0.056671
      9          1           0       -2.063772   -1.130721    0.003266
     10          1           0       -2.687006    0.545984    0.033431
 ---------------------------------------------------------------------

 SCF Done:  E(RB2PLYPD3) =  -155.700111679     A.U. after   11 cycles
 E2(B2PLYPD3) =    -0.2253920079D+00 E(B2PLYPD3) =    -0.15592550368664D+03

 The electronic state is 1-A.
 Alpha  occ. eigenvalues --  -10.62276 -10.62193 -10.61672 -10.61061  -0.93284
 Alpha  occ. eigenvalues --   -0.84957  -0.70555  -0.64428  -0.55006  -0.53929
 Alpha  occ. eigenvalues --   -0.46976  -0.45621  -0.41200  -0.38286  -0.27632
 Alpha virt. eigenvalues --    0.01667   0.07028   0.07477   0.08152   0.09648
 Alpha virt. eigenvalues --    0.11703   0.12547   0.14822   0.15773   0.16242
 Alpha virt. eigenvalues --    0.18793   0.20380   0.21926   0.22897   0.23816

 Mulliken charges:
               1
     1  C   -0.171206
     2  C   -0.031602
     3  C   -0.026630
     4  C   -0.179527
     5  H    0.085639
     6  H    0.060450
     7  H    0.055910
     8  H    0.057357
     9  H    0.066774
    10  H    0.082836
 Sum of Mulliken charges =   0.00000

 Dipole moment (field-independent basis, Debye):
    X=              0.0028    Y=             -0.0321    Z=              0.0262  Tot=              0.0415
 Quadrupole moment (field-independent basis, Debye-Ang):
   XX=            -23.3226   YY=            -23.1832   ZZ=            -29.1742
   XY=              0.2445   XZ=             -0.2371   YZ=              0.0305

 1\1\GINC-NODE38\SP\RB2PLYPD3-FC\def2QZVP\C4H6\BOITTIER\26-Aug-2020\0\\
 #p B2PLYPD3/Def2QZVP\\butadiene\\0,1\C,0,-3.829232,0.229951,0.003927\C
 ,0,-2.722453,-0.507441,0.042023\C,0,-1.397312,0.057807,0.034119\C,0,-0
 .262663,-0.648523,0.023571\H,0,-4.824155,-0.191725,0.03751\H,0,-3.7648
 78,1.330213,0.030332\H,0,-2.781285,-1.583088,0.066161\H,0,-1.356828,1.
 11969,-0.079854\H,0,-0.230302,-1.703888,0.056956\H,0,0.690084,-0.17208
 7,-0.027566\\Version=ES64L-G09RevD.01\State=1-A\HF=-155.7001117\MP2=-1
 55.9255037\RMSD=4.577e-09\PG=C01 [X(C4H6)]\\@

 Normal termination of Gaussian 09 at Wed Aug 26 20:45:56 2020.
