 Gaussian 09, Revision D.01,
 Gaussian 09:  ES64L-G09RevD.01 24-Apr-2013

 --------------------
 #p B2PLYPD3/Def2QZVP
 --------------------

 ---------
 butadiene
 ---------
 Symbolic Z-matrix:
 Charge =  0 Multiplicity = 1

                         Standard orientation:
 ---------------------------------------------------------------------
 Center     Atomic      Atomic             Coordinates (Angstroms)
 Number     Number       Type             X           Y           Z
 ---------------------------------------------------------------------
      1          6           0        1.852336    0.087890    0.010865
      2          6           0        0.613735   -0.376936   -0.028577
      3          6           0       -0.611683    0.418592   -0.004372
      4          6           0       -1.843979   -0.110467   -0.013219
      5          1           0        2.669389   -0.564438    0.027822
      6          1           0        2.084759    1.155004   -0.001593
      7          1           0        0.430867   -1.438718    0.046421
      8          1           0       -0.463795    1.525584    0.034612
      9          1           0       -1.939980   -1.217627    0.049366
     10          1           0       -2.843690    0.425721    0.055188
 ---------------------------------------------------------------------

 SCF Done:  E(RB2PLYPD3) =  -155.694340539     A.U. after   11 cycles
 E2(B2PLYPD3) =    -0.2262147225D+00 E(B2PLYPD3) =    -0.15592055526182D+03

 The electronic state is 1-A.
 Alpha  occ. eigenvalues --  -10.63211 -10.62684 -10.62467 -10.61195  -0.92890
 Alpha  occ. eigenvalues --   -0.84899  -0.70066  -0.63662  -0.54915  -0.53191
 Alpha  occ. eigenvalues --   -0.47342  -0.44849  -0.40473  -0.38088  -0.27933
 Alpha virt. eigenvalues --    0.01656   0.06971   0.07288   0.08031   0.09587
 Alpha virt. eigenvalues --    0.11510   0.12509   0.14441   0.15753   0.16289
 Alpha virt. eigenvalues --    0.18831   0.20288   0.21826   0.22522   0.23639

 Mulliken charges:
               1
     1  C   -0.175815
     2  C   -0.023781
     3  C   -0.033539
     4  C   -0.161230
     5  H    0.088866
     6  H    0.065183
     7  H    0.052509
     8  H    0.050371
     9  H    0.053179
    10  H    0.084258
 Sum of Mulliken charges =   0.00000

 Dipole moment (field-independent basis, Debye):
    X=              0.0207    Y=             -0.0176    Z=              0.1681  Tot=              0.1703
 Quadrupole moment (field-independent basis, Debye-Ang):
   XX=            -23.0813   YY=            -23.4286   ZZ=            -29.3326
   XY=              0.2386   XZ=             -0.1757   YZ=             -0.0831

 1\1\GINC-NODE34\SP\RB2PLYPD3-FC\def2QZVP\C4H6\BOITTIER\26-Aug-2020\0\\
 #p B2PLYPD3/Def2QZVP\\butadiene\\0,1\C,0,-3.857169,0.204722,0.007562\C
 ,0,-2.723056,-0.475756,0.057458\C,0,-1.373958,0.083972,0.01576\C,0,-0.
 257795,-0.659188,0.036493\H,0,-4.778888,-0.289062,0.004981\H,0,-3.8924
 9,1.296296,-0.003685\H,0,-2.73575,-1.554479,0.006056\H,0,-1.319121,1.1
 98322,-0.047791\H,0,-0.364087,-1.766524,-0.001503\H,0,0.8222,-0.314539
 ,-0.04367\\Version=ES64L-G09RevD.01\State=1-A\HF=-155.6943405\MP2=-155
 .9205553\RMSD=3.800e-09\PG=C01 [X(C4H6)]\\@

 Normal termination of Gaussian 09 at Wed Aug 26 09:30:57 2020.
