 Gaussian 09, Revision D.01,
 Gaussian 09:  ES64L-G09RevD.01 24-Apr-2013

 --------------------
 #p B2PLYPD3/Def2QZVP
 --------------------

 ---------
 butadiene
 ---------
 Symbolic Z-matrix:
 Charge =  0 Multiplicity = 1

                         Standard orientation:
 ---------------------------------------------------------------------
 Center     Atomic      Atomic             Coordinates (Angstroms)
 Number     Number       Type             X           Y           Z
 ---------------------------------------------------------------------
      1          6           0       -1.828854    0.108206    0.011015
      2          6           0       -0.605355   -0.389032   -0.015524
      3          6           0        0.599723    0.410565   -0.017667
      4          6           0        1.832116   -0.115634    0.001592
      5          1           0       -2.675522   -0.570782    0.055954
      6          1           0       -2.003631    1.163371    0.012131
      7          1           0       -0.474666   -1.456940   -0.014603
      8          1           0        0.466308    1.489641   -0.038074
      9          1           0        1.969465   -1.213204   -0.000060
     10          1           0        2.732266    0.503288    0.108152
 ---------------------------------------------------------------------

 SCF Done:  E(RB2PLYPD3) =  -155.700162870     A.U. after   11 cycles
 E2(B2PLYPD3) =    -0.2256380169D+00 E(B2PLYPD3) =    -0.15592580088657D+03

 The electronic state is 1-A.
 Alpha  occ. eigenvalues --  -10.62550 -10.62036 -10.61995 -10.61135  -0.93235
 Alpha  occ. eigenvalues --   -0.84955  -0.69918  -0.64144  -0.54370  -0.54067
 Alpha  occ. eigenvalues --   -0.46557  -0.45548  -0.41193  -0.38259  -0.27707
 Alpha virt. eigenvalues --    0.01830   0.06991   0.07382   0.08034   0.09669
 Alpha virt. eigenvalues --    0.11742   0.12373   0.14716   0.15833   0.16059
 Alpha virt. eigenvalues --    0.18703   0.20465   0.21506   0.22839   0.23980

 Mulliken charges:
               1
     1  C   -0.179065
     2  C   -0.021172
     3  C   -0.034638
     4  C   -0.173719
     5  H    0.084393
     6  H    0.068390
     7  H    0.053302
     8  H    0.054533
     9  H    0.062475
    10  H    0.085501
 Sum of Mulliken charges =   0.00000

 Dipole moment (field-independent basis, Debye):
    X=             -0.0106    Y=              0.0055    Z=              0.0907  Tot=              0.0915
 Quadrupole moment (field-independent basis, Debye-Ang):
   XX=            -23.6881   YY=            -23.0383   ZZ=            -29.2392
   XY=             -0.0908   XZ=              0.1370   YZ=              0.0153

 1\1\GINC-NODE02\SP\RB2PLYPD3-FC\def2QZVP\C4H6\BOITTIER\26-Aug-2020\0\\
 #p B2PLYPD3/Def2QZVP\\butadiene\\0,1\C,0,-3.831545,0.219938,0.029639\C
 ,0,-2.717739,-0.490183,0.021575\C,0,-1.38832,0.078763,-0.001168\C,0,-0
 .270864,-0.660055,0.037441\H,0,-4.786579,-0.293718,0.092557\H,0,-3.813
 333,1.288873,-0.001487\H,0,-2.781608,-1.56364,0.054994\H,0,-1.325171,1
 .163106,-0.054408\H,0,-0.333534,-1.763953,0.069199\H,0,0.726347,-0.210
 53,0.127912\\Version=ES64L-G09RevD.01\State=1-A\HF=-155.7001629\MP2=-1
 55.9258009\RMSD=4.602e-09\PG=C01 [X(C4H6)]\\@

 Normal termination of Gaussian 09 at Wed Aug 26 20:20:55 2020.
