 Gaussian 09, Revision D.01,
 Gaussian 09:  ES64L-G09RevD.01 24-Apr-2013

 --------------------
 #p B2PLYPD3/Def2QZVP
 --------------------

 ---------
 butadiene
 ---------
 Symbolic Z-matrix:
 Charge =  0 Multiplicity = 1

                         Standard orientation:
 ---------------------------------------------------------------------
 Center     Atomic      Atomic             Coordinates (Angstroms)
 Number     Number       Type             X           Y           Z
 ---------------------------------------------------------------------
      1          6           0        1.837822    0.097974    0.032253
      2          6           0        0.616556   -0.365912   -0.134008
      3          6           0       -0.609728    0.415290   -0.047797
      4          6           0       -1.850258   -0.134718    0.053199
      5          1           0        2.521048   -0.606876    0.243977
      6          1           0        2.097957    1.139933    0.163529
      7          1           0        0.602059   -1.455754    0.056825
      8          1           0       -0.467333    1.532975   -0.073987
      9          1           0       -2.019259   -1.210008    0.052860
     10          1           0       -2.700822    0.523927    0.134915
 ---------------------------------------------------------------------

 SCF Done:  E(RB2PLYPD3) =  -155.684168597     A.U. after   11 cycles
 E2(B2PLYPD3) =    -0.2264109358D+00 E(B2PLYPD3) =    -0.15591057953299D+03

 The electronic state is 1-A.
 Alpha  occ. eigenvalues --  -10.63542 -10.62255 -10.62011 -10.60350  -0.92937
 Alpha  occ. eigenvalues --   -0.85285  -0.70499  -0.63241  -0.54925  -0.54072
 Alpha  occ. eigenvalues --   -0.46529  -0.45499  -0.40909  -0.38030  -0.27661
 Alpha virt. eigenvalues --    0.01482   0.07084   0.07305   0.07980   0.09278
 Alpha virt. eigenvalues --    0.11539   0.12410   0.14933   0.15438   0.16370
 Alpha virt. eigenvalues --    0.18923   0.19648   0.22022   0.22632   0.24412

 Mulliken charges:
               1
     1  C   -0.162536
     2  C   -0.009926
     3  C   -0.052688
     4  C   -0.178061
     5  H    0.079170
     6  H    0.061515
     7  H    0.044866
     8  H    0.053608
     9  H    0.076597
    10  H    0.087456
 Sum of Mulliken charges =   0.00000

 Dipole moment (field-independent basis, Debye):
    X=              0.0372    Y=              0.0083    Z=              0.4096  Tot=              0.4113
 Quadrupole moment (field-independent basis, Debye-Ang):
   XX=            -23.8647   YY=            -23.0011   ZZ=            -29.1567
   XY=              0.1254   XZ=              0.6820   YZ=             -0.2124

 1\1\GINC-NODE21\SP\RB2PLYPD3-FC\def2QZVP\C4H6\BOITTIER\26-Aug-2020\0\\
 #p B2PLYPD3/Def2QZVP\\butadiene\\0,1\C,0,-3.843652,0.208477,-0.03073\C
 ,0,-2.725726,-0.464675,0.146556\C,0,-1.37921,0.084237,0.062468\C,0,-0.
 256398,-0.67928,-0.02675\H,0,-4.640747,-0.364738,-0.241688\H,0,-3.9128
 29,1.279031,-0.171127\H,0,-2.905202,-1.541113,-0.036346\H,0,-1.319789,
 1.209561,0.079728\H,0,-0.282199,-1.767426,-0.01762\H,0,0.698531,-0.183
 815,-0.107832\\Version=ES64L-G09RevD.01\State=1-A\HF=-155.6841686\MP2=
 -155.9105795\RMSD=8.832e-09\PG=C01 [X(C4H6)]\\@

 Normal termination of Gaussian 09 at Wed Aug 26 16:02:30 2020.
