 Gaussian 09, Revision D.01,
 Gaussian 09:  ES64L-G09RevD.01 24-Apr-2013

 --------------------
 #p B2PLYPD3/Def2QZVP
 --------------------

 ---------
 butadiene
 ---------
 Symbolic Z-matrix:
 Charge =  0 Multiplicity = 1

                         Standard orientation:
 ---------------------------------------------------------------------
 Center     Atomic      Atomic             Coordinates (Angstroms)
 Number     Number       Type             X           Y           Z
 ---------------------------------------------------------------------
      1          6           0       -1.829114    0.103463   -0.045901
      2          6           0       -0.599398   -0.403986    0.016654
      3          6           0        0.592341    0.421060    0.023976
      4          6           0        1.826438   -0.118854   -0.015983
      5          1           0       -2.761985   -0.505345    0.105462
      6          1           0       -1.954710    1.196119   -0.104840
      7          1           0       -0.454436   -1.467866    0.107319
      8          1           0        0.541418    1.492977    0.159151
      9          1           0        1.940713   -1.177774   -0.097307
     10          1           0        2.747400    0.451789   -0.042263
 ---------------------------------------------------------------------

 SCF Done:  E(RB2PLYPD3) =  -155.696491453     A.U. after   11 cycles
 E2(B2PLYPD3) =    -0.2262634867D+00 E(B2PLYPD3) =    -0.15592275493967D+03

 The electronic state is 1-A.
 Alpha  occ. eigenvalues --  -10.62670 -10.62510 -10.62021 -10.61474  -0.93095
 Alpha  occ. eigenvalues --   -0.84657  -0.69692  -0.64394  -0.54247  -0.54011
 Alpha  occ. eigenvalues --   -0.46485  -0.45071  -0.41540  -0.37969  -0.27558
 Alpha virt. eigenvalues --    0.01656   0.07066   0.07429   0.07911   0.09339
 Alpha virt. eigenvalues --    0.11635   0.12565   0.14489   0.15744   0.16392
 Alpha virt. eigenvalues --    0.18769   0.19848   0.21799   0.22888   0.23744

 Mulliken charges:
               1
     1  C   -0.167546
     2  C   -0.035821
     3  C   -0.032629
     4  C   -0.175701
     5  H    0.081643
     6  H    0.061869
     7  H    0.062000
     8  H    0.062046
     9  H    0.061022
    10  H    0.083117
 Sum of Mulliken charges =   0.00000

 Dipole moment (field-independent basis, Debye):
    X=              0.0624    Y=             -0.0013    Z=              0.1470  Tot=              0.1598
 Quadrupole moment (field-independent basis, Debye-Ang):
   XX=            -23.5196   YY=            -23.1845   ZZ=            -29.2714
   XY=             -0.0179   XZ=             -0.4202   YZ=             -0.0313

 1\1\GINC-NODE02\SP\RB2PLYPD3-FC\def2QZVP\C4H6\BOITTIER\26-Aug-2020\0\\
 #p B2PLYPD3/Def2QZVP\\butadiene\\0,1\C,0,-3.832654,0.211551,-0.017991\
 C,0,-2.712667,-0.505146,0.056792\C,0,-1.392964,0.09409,0.039523\C,0,-0
 .275104,-0.658086,0.012724\H,0,-4.858094,-0.216865,0.151535\H,0,-3.761
 915,1.307097,-0.106977\H,0,-2.759021,-1.574985,0.176667\H,0,-1.251206,
 1.161162,0.145041\H,0,-0.351866,-1.722217,-0.039416\H,0,0.732615,-0.26
 1712,-0.030693\\Version=ES64L-G09RevD.01\State=1-A\HF=-155.6964915\MP2
 =-155.9227549\RMSD=7.174e-09\PG=C01 [X(C4H6)]\\@

 Normal termination of Gaussian 09 at Wed Aug 26 10:53:57 2020.
