 Gaussian 09, Revision D.01,
 Gaussian 09:  ES64L-G09RevD.01 24-Apr-2013

 --------------------
 #p B2PLYPD3/Def2QZVP
 --------------------

 ---------
 butadiene
 ---------
 Symbolic Z-matrix:
 Charge =  0 Multiplicity = 1

                         Standard orientation:
 ---------------------------------------------------------------------
 Center     Atomic      Atomic             Coordinates (Angstroms)
 Number     Number       Type             X           Y           Z
 ---------------------------------------------------------------------
      1          6           0       -1.858215   -0.106537    0.052260
      2          6           0       -0.601816    0.385401   -0.057130
      3          6           0        0.620606   -0.403837   -0.062587
      4          6           0        1.842621    0.110119    0.027600
      5          1           0       -2.694796    0.516624    0.045927
      6          1           0       -2.094260   -1.170528    0.014049
      7          1           0       -0.511486    1.499356   -0.001923
      8          1           0        0.561629   -1.487295    0.002829
      9          1           0        1.947850    1.205105    0.047616
     10          1           0        2.771881   -0.474127    0.130650
 ---------------------------------------------------------------------

 SCF Done:  E(RB2PLYPD3) =  -155.695317518     A.U. after   11 cycles
 E2(B2PLYPD3) =    -0.2263672391D+00 E(B2PLYPD3) =    -0.15592168475692D+03

 The electronic state is 1-A.
 Alpha  occ. eigenvalues --  -10.63395 -10.62624 -10.61918 -10.61489  -0.92750
 Alpha  occ. eigenvalues --   -0.84890  -0.70224  -0.63667  -0.54731  -0.53828
 Alpha  occ. eigenvalues --   -0.46738  -0.44886  -0.41070  -0.38059  -0.27683
 Alpha virt. eigenvalues --    0.01463   0.07019   0.07426   0.07909   0.09521
 Alpha virt. eigenvalues --    0.11532   0.12541   0.14503   0.15808   0.16382
 Alpha virt. eigenvalues --    0.18951   0.19962   0.21831   0.22837   0.23639

 Mulliken charges:
               1
     1  C   -0.171666
     2  C   -0.038796
     3  C   -0.027230
     4  C   -0.164649
     5  H    0.085828
     6  H    0.063828
     7  H    0.051409
     8  H    0.057177
     9  H    0.057590
    10  H    0.086509
 Sum of Mulliken charges =   0.00000

 Dipole moment (field-independent basis, Debye):
    X=              0.0221    Y=             -0.0255    Z=              0.1322  Tot=              0.1364
 Quadrupole moment (field-independent basis, Debye-Ang):
   XX=            -23.1457   YY=            -23.2840   ZZ=            -29.3425
   XY=             -0.0524   XZ=              0.3447   YZ=             -0.0139

 1\1\GINC-NODE28\SP\RB2PLYPD3-FC\def2QZVP\C4H6\BOITTIER\26-Aug-2020\0\\
 #p B2PLYPD3/Def2QZVP\\butadiene\\0,1\C,0,-3.8637,0.213646,-0.03333\C,0
 ,-2.712772,-0.488503,0.088564\C,0,-1.370611,0.073229,0.071164\C,0,-0.2
 58538,-0.649941,-0.005804\H,0,-4.796769,-0.25222,-0.009063\H,0,-3.9087
 63,1.303207,-0.024358\H,0,-2.820034,-1.602056,0.064106\H,0,-1.238534,1
 .14799,-0.024138\H,0,-0.347598,-1.746496,0.004379\H,0,0.758371,-0.2412
 92,-0.125754\\Version=ES64L-G09RevD.01\State=1-A\HF=-155.6953175\MP2=-
 155.9216848\RMSD=8.095e-09\PG=C01 [X(C4H6)]\\@

 Normal termination of Gaussian 09 at Wed Aug 26 10:22:46 2020.
