 Gaussian 09, Revision D.01,
 Gaussian 09:  ES64L-G09RevD.01 24-Apr-2013

 --------------------
 #p B2PLYPD3/Def2QZVP
 --------------------

 ---------
 butadiene
 ---------
 Symbolic Z-matrix:
 Charge =  0 Multiplicity = 1

                         Standard orientation:
 ---------------------------------------------------------------------
 Center     Atomic      Atomic             Coordinates (Angstroms)
 Number     Number       Type             X           Y           Z
 ---------------------------------------------------------------------
      1          6           0        1.823497   -0.104976   -0.014446
      2          6           0        0.587361    0.410139    0.014719
      3          6           0       -0.577703   -0.396483    0.031157
      4          6           0       -1.817865    0.095281   -0.027352
      5          1           0        2.726769    0.510752   -0.005025
      6          1           0        1.939031   -1.189344   -0.178328
      7          1           0        0.461647    1.476825    0.097026
      8          1           0       -0.421140   -1.456014    0.190034
      9          1           0       -2.103814    1.176766   -0.058885
     10          1           0       -2.694234   -0.542755   -0.069288
 ---------------------------------------------------------------------

 SCF Done:  E(RB2PLYPD3) =  -155.695810833     A.U. after   11 cycles
 E2(B2PLYPD3) =    -0.2263205631D+00 E(B2PLYPD3) =    -0.15592213139586D+03

 The electronic state is 1-A.
 Alpha  occ. eigenvalues --  -10.62352 -10.62127 -10.61948 -10.61812  -0.93588
 Alpha  occ. eigenvalues --   -0.84549  -0.70256  -0.64112  -0.54938  -0.53458
 Alpha  occ. eigenvalues --   -0.46764  -0.44863  -0.41442  -0.38251  -0.27390
 Alpha virt. eigenvalues --    0.01474   0.07070   0.07330   0.07972   0.09521
 Alpha virt. eigenvalues --    0.11625   0.12440   0.14720   0.15682   0.16222
 Alpha virt. eigenvalues --    0.18709   0.20179   0.21836   0.22549   0.23555

 Mulliken charges:
               1
     1  C   -0.178265
     2  C   -0.025823
     3  C   -0.032744
     4  C   -0.174411
     5  H    0.085134
     6  H    0.061984
     7  H    0.059619
     8  H    0.063030
     9  H    0.062819
    10  H    0.078656
 Sum of Mulliken charges =   0.00000

 Dipole moment (field-independent basis, Debye):
    X=             -0.0402    Y=              0.0366    Z=              0.0083  Tot=              0.0549
 Quadrupole moment (field-independent basis, Debye-Ang):
   XX=            -23.4957   YY=            -23.2431   ZZ=            -29.2081
   XY=             -0.2207   XZ=             -0.0577   YZ=              0.0861

 1\1\GINC-NODE31\SP\RB2PLYPD3-FC\def2QZVP\C4H6\BOITTIER\26-Aug-2020\0\\
 #p B2PLYPD3/Def2QZVP\\butadiene\\0,1\C,0,-3.821721,0.230182,0.002499\C
 ,0,-2.704245,-0.506689,0.052433\C,0,-1.408346,0.066775,0.044131\C,0,-0
 .282876,-0.650926,0.005653\H,0,-4.82453,-0.204199,0.030757\H,0,-3.7321
 58,1.310704,-0.198774\H,0,-2.780812,-1.574553,0.171598\H,0,-1.362465,1
 .141652,0.166175\H,0,-0.205294,-1.767309,0.011957\H,0,0.69757,-0.19070
 4,-0.055934\\Version=ES64L-G09RevD.01\State=1-A\HF=-155.6958108\MP2=-1
 55.9221314\RMSD=5.052e-09\PG=C01 [X(C4H6)]\\@

 Normal termination of Gaussian 09 at Wed Aug 26 09:23:37 2020.
