 Gaussian 09, Revision D.01,
 Gaussian 09:  ES64L-G09RevD.01 24-Apr-2013

 --------------------
 #p B2PLYPD3/Def2QZVP
 --------------------

 ---------
 butadiene
 ---------
 Symbolic Z-matrix:
 Charge =  0 Multiplicity = 1

                         Standard orientation:
 ---------------------------------------------------------------------
 Center     Atomic      Atomic             Coordinates (Angstroms)
 Number     Number       Type             X           Y           Z
 ---------------------------------------------------------------------
      1          6           0       -1.808700   -0.129351    0.029090
      2          6           0       -0.572259    0.465183   -0.030837
      3          6           0        0.588255   -0.402700   -0.041631
      4          6           0        1.847354    0.083328    0.052357
      5          1           0       -2.817248    0.427829   -0.138527
      6          1           0       -2.006312   -1.223606    0.289222
      7          1           0       -0.560848    1.584007   -0.028484
      8          1           0        0.280653   -1.491073   -0.205219
      9          1           0        1.975249    1.142973    0.089104
     10          1           0        2.800607   -0.538889   -0.059973
 ---------------------------------------------------------------------

 SCF Done:  E(RB2PLYPD3) =  -155.674698680     A.U. after   12 cycles
 E2(B2PLYPD3) =    -0.2293527283D+00 E(B2PLYPD3) =    -0.15590405140856D+03

 The electronic state is 1-A.
 Alpha  occ. eigenvalues --  -10.63786 -10.63726 -10.63544 -10.62369  -0.92646
 Alpha  occ. eigenvalues --   -0.83568  -0.69061  -0.63441  -0.53559  -0.52895
 Alpha  occ. eigenvalues --   -0.45842  -0.44334  -0.41194  -0.37483  -0.27009
 Alpha virt. eigenvalues --    0.00951   0.06909   0.07059   0.07614   0.08731
 Alpha virt. eigenvalues --    0.11503   0.12305   0.14119   0.15532   0.16368
 Alpha virt. eigenvalues --    0.18709   0.19826   0.21336   0.22280   0.23117

 Mulliken charges:
               1
     1  C   -0.175172
     2  C   -0.036747
     3  C   -0.025056
     4  C   -0.172107
     5  H    0.069807
     6  H    0.062833
     7  H    0.066853
     8  H    0.057729
     9  H    0.069692
    10  H    0.082166
 Sum of Mulliken charges =   0.00000

 Dipole moment (field-independent basis, Debye):
    X=             -0.0764    Y=              0.0595    Z=             -0.0880  Tot=              0.1309
 Quadrupole moment (field-independent basis, Debye-Ang):
   XX=            -23.7239   YY=            -23.2941   ZZ=            -29.6221
   XY=              0.4658   XZ=             -0.2177   YZ=             -0.0503

 1\1\GINC-NODE40\SP\RB2PLYPD3-FC\def2QZVP\C4H6\BOITTIER\26-Aug-2020\0\\
 #p B2PLYPD3/Def2QZVP\\butadiene\\0,1\C,0,-3.811143,0.248972,-0.013038\
 C,0,-2.706395,-0.562375,0.071196\C,0,-1.404917,0.074868,0.05681\C,0,-0
 .258196,-0.639321,-0.016357\H,0,-4.905116,-0.105337,0.169724\H,0,-3.80
 2921,1.35148,-0.310563\H,0,-2.902881,-1.663304,0.106563\H,0,-1.50467,1
 .206313,0.182577\H,0,-0.329335,-1.704917,-0.01695\H,0,0.794306,-0.2014
 34,0.078284\\Version=ES64L-G09RevD.01\State=1-A\HF=-155.6746987\MP2=-1
 55.9040514\RMSD=4.178e-09\PG=C01 [X(C4H6)]\\@

 Normal termination of Gaussian 09 at Wed Aug 26 14:15:27 2020.
