 Gaussian 09, Revision D.01,
 Gaussian 09:  ES64L-G09RevD.01 24-Apr-2013

 --------------------
 #p B2PLYPD3/Def2QZVP
 --------------------

 ---------
 butadiene
 ---------
 Symbolic Z-matrix:
 Charge =  0 Multiplicity = 1

                         Standard orientation:
 ---------------------------------------------------------------------
 Center     Atomic      Atomic             Coordinates (Angstroms)
 Number     Number       Type             X           Y           Z
 ---------------------------------------------------------------------
      1          6           0        1.831799    0.076628    0.030655
      2          6           0        0.587683   -0.357447   -0.032930
      3          6           0       -0.605747    0.414736   -0.050256
      4          6           0       -1.813494   -0.127356    0.009972
      5          1           0        2.682417   -0.527298   -0.008141
      6          1           0        2.023780    1.158363    0.103311
      7          1           0        0.464434   -1.473836   -0.011653
      8          1           0       -0.485668    1.509774   -0.033166
      9          1           0       -1.976776   -1.209385    0.085392
     10          1           0       -2.709632    0.503018    0.119609
 ---------------------------------------------------------------------

 SCF Done:  E(RB2PLYPD3) =  -155.696079516     A.U. after   11 cycles
 E2(B2PLYPD3) =    -0.2256653619D+00 E(B2PLYPD3) =    -0.15592174487815D+03

 The electronic state is 1-A.
 Alpha  occ. eigenvalues --  -10.62489 -10.62282 -10.61888 -10.60954  -0.93618
 Alpha  occ. eigenvalues --   -0.85227  -0.70465  -0.63428  -0.55182  -0.53802
 Alpha  occ. eigenvalues --   -0.47305  -0.44568  -0.40687  -0.38704  -0.27785
 Alpha virt. eigenvalues --    0.01690   0.07034   0.07239   0.07967   0.09990
 Alpha virt. eigenvalues --    0.11648   0.12459   0.14758   0.15800   0.16288
 Alpha virt. eigenvalues --    0.18757   0.20216   0.21916   0.22449   0.23684

 Mulliken charges:
               1
     1  C   -0.176430
     2  C   -0.012741
     3  C   -0.031013
     4  C   -0.164995
     5  H    0.092304
     6  H    0.051742
     7  H    0.039711
     8  H    0.053121
     9  H    0.067201
    10  H    0.081100
 Sum of Mulliken charges =   0.00000

 Dipole moment (field-independent basis, Debye):
    X=             -0.0393    Y=              0.0013    Z=              0.1738  Tot=              0.1782
 Quadrupole moment (field-independent basis, Debye-Ang):
   XX=            -23.3861   YY=            -23.2948   ZZ=            -29.1454
   XY=              0.0580   XZ=             -0.3591   YZ=              0.0632

 1\1\GINC-NODE38\SP\RB2PLYPD3-FC\def2QZVP\C4H6\BOITTIER\26-Aug-2020\0\\
 #p B2PLYPD3/Def2QZVP\\butadiene\\0,1\C,0,-3.839796,0.193501,-0.011365\
 C,0,-2.695485,-0.458539,0.064023\C,0,-1.381044,0.082801,0.057752\C,0,-
 0.292967,-0.67231,0.012582\H,0,-4.78613,-0.243497,0.045802\H,0,-3.8314
 82,1.289559,-0.115643\H,0,-2.778275,-1.578799,0.075479\H,0,-1.29927,1.
 180396,0.008571\H,0,-0.330455,-1.767673,-0.031122\H,0,0.702517,-0.2196
 74,-0.116206\\Version=ES64L-G09RevD.01\State=1-A\HF=-155.6960795\MP2=-
 155.9217449\RMSD=6.040e-09\PG=C01 [X(C4H6)]\\@

 Normal termination of Gaussian 09 at Wed Aug 26 11:01:19 2020.
