 Gaussian 09, Revision D.01,
 Gaussian 09:  ES64L-G09RevD.01 24-Apr-2013

 --------------------
 #p B2PLYPD3/Def2QZVP
 --------------------

 ---------
 butadiene
 ---------
 Symbolic Z-matrix:
 Charge =  0 Multiplicity = 1

                         Standard orientation:
 ---------------------------------------------------------------------
 Center     Atomic      Atomic             Coordinates (Angstroms)
 Number     Number       Type             X           Y           Z
 ---------------------------------------------------------------------
      1          6           0       -1.859390    0.099434   -0.046825
      2          6           0       -0.609371   -0.373781    0.030846
      3          6           0        0.619704    0.420819    0.028866
      4          6           0        1.845984   -0.121293   -0.019642
      5          1           0       -2.632335   -0.581613    0.050130
      6          1           0       -2.015262    1.169454   -0.133017
      7          1           0       -0.511589   -1.426630    0.152342
      8          1           0        0.480962    1.467904    0.175795
      9          1           0        1.908004   -1.234289   -0.146233
     10          1           0        2.788663    0.454108   -0.058488
 ---------------------------------------------------------------------

 SCF Done:  E(RB2PLYPD3) =  -155.694893467     A.U. after   11 cycles
 E2(B2PLYPD3) =    -0.2259583096D+00 E(B2PLYPD3) =    -0.15592085177692D+03

 The electronic state is 1-A.
 Alpha  occ. eigenvalues --  -10.62639 -10.62422 -10.62209 -10.60977  -0.92844
 Alpha  occ. eigenvalues --   -0.84985  -0.70039  -0.64206  -0.54742  -0.53888
 Alpha  occ. eigenvalues --   -0.46923  -0.45432  -0.41368  -0.37630  -0.27780
 Alpha virt. eigenvalues --    0.01621   0.07053   0.07514   0.08014   0.09495
 Alpha virt. eigenvalues --    0.11661   0.12393   0.14531   0.15634   0.16216
 Alpha virt. eigenvalues --    0.18773   0.20053   0.21366   0.22425   0.24193

 Mulliken charges:
               1
     1  C   -0.187377
     2  C   -0.024215
     3  C   -0.042755
     4  C   -0.168637
     5  H    0.092463
     6  H    0.067779
     7  H    0.052544
     8  H    0.061735
     9  H    0.060152
    10  H    0.088313
 Sum of Mulliken charges =   0.00000

 Dipole moment (field-independent basis, Debye):
    X=              0.0393    Y=              0.0113    Z=              0.0778  Tot=              0.0879
 Quadrupole moment (field-independent basis, Debye-Ang):
   XX=            -23.5846   YY=            -23.1669   ZZ=            -29.2279
   XY=              0.1432   XZ=             -0.3371   YZ=             -0.0190

 1\1\GINC-NODE36\SP\RB2PLYPD3-FC\def2QZVP\C4H6\BOITTIER\26-Aug-2020\0\\
 #p B2PLYPD3/Def2QZVP\\butadiene\\0,1\C,0,-3.865482,0.206686,-0.021171\
 C,0,-2.717886,-0.47721,0.067281\C,0,-1.368167,0.088263,0.04455\C,0,-0.
 256717,-0.662328,0.008597\H,0,-4.745722,-0.325046,0.093321\H,0,-3.8310
 26,1.285009,-0.133862\H,0,-2.80632,-1.527546,0.214883\H,0,-1.319683,1.
 146683,0.165465\H,0,-0.39222,-1.771604,-0.090286\H,0,0.77231,-0.263031
 ,-0.045306\\Version=ES64L-G09RevD.01\State=1-A\HF=-155.6948935\MP2=-15
 5.9208518\RMSD=4.079e-09\PG=C01 [X(C4H6)]\\@

 Normal termination of Gaussian 09 at Wed Aug 26 09:38:36 2020.
