 Gaussian 09, Revision D.01,
 Gaussian 09:  ES64L-G09RevD.01 24-Apr-2013

 --------------------
 #p B2PLYPD3/Def2QZVP
 --------------------

 ---------
 butadiene
 ---------
 Symbolic Z-matrix:
 Charge =  0 Multiplicity = 1

                         Standard orientation:
 ---------------------------------------------------------------------
 Center     Atomic      Atomic             Coordinates (Angstroms)
 Number     Number       Type             X           Y           Z
 ---------------------------------------------------------------------
      1          6           0        1.832229   -0.120179   -0.000881
      2          6           0        0.596029    0.421374   -0.017095
      3          6           0       -0.600231   -0.396180   -0.015518
      4          6           0       -1.827888    0.102198    0.006400
      5          1           0        2.737437    0.494770    0.040909
      6          1           0        1.988540   -1.161997    0.022021
      7          1           0        0.451875    1.484483    0.058788
      8          1           0       -0.458890   -1.467975    0.013266
      9          1           0       -2.036780    1.160432   -0.026511
     10          1           0       -2.683021   -0.552995    0.054089
 ---------------------------------------------------------------------

 SCF Done:  E(RB2PLYPD3) =  -155.700083458     A.U. after   11 cycles
 E2(B2PLYPD3) =    -0.2256058238D+00 E(B2PLYPD3) =    -0.15592568928222D+03

 The electronic state is 1-A.
 Alpha  occ. eigenvalues --  -10.62608 -10.62217 -10.61548 -10.61192  -0.93110
 Alpha  occ. eigenvalues --   -0.84802  -0.70275  -0.64477  -0.54568  -0.54092
 Alpha  occ. eigenvalues --   -0.46636  -0.45843  -0.41298  -0.38134  -0.27542
 Alpha virt. eigenvalues --    0.01731   0.07026   0.07449   0.08103   0.09476
 Alpha virt. eigenvalues --    0.11721   0.12490   0.14832   0.15827   0.16183
 Alpha virt. eigenvalues --    0.18756   0.20426   0.21870   0.23014   0.23820

 Mulliken charges:
               1
     1  C   -0.176806
     2  C   -0.036091
     3  C   -0.025463
     4  C   -0.177407
     5  H    0.080908
     6  H    0.069104
     7  H    0.061170
     8  H    0.055870
     9  H    0.066373
    10  H    0.082343
 Sum of Mulliken charges =   0.00000

 Dipole moment (field-independent basis, Debye):
    X=             -0.0034    Y=             -0.0134    Z=              0.1234  Tot=              0.1242
 Quadrupole moment (field-independent basis, Debye-Ang):
   XX=            -23.5359   YY=            -23.0323   ZZ=            -29.2342
   XY=             -0.3173   XZ=              0.0933   YZ=             -0.0136

 1\1\GINC-NODE25\SP\RB2PLYPD3-FC\def2QZVP\C4H6\BOITTIER\26-Aug-2020\0\\
 #p B2PLYPD3/Def2QZVP\\butadiene\\0,1\C,0,-3.831298,0.238823,0.02187\C,
 0,-2.71506,-0.519957,0.022478\C,0,-1.389469,0.064693,0.001806\C,0,-0.2
 73572,-0.649011,0.039282\H,0,-4.833513,-0.198731,0.080372\H,0,-3.79435
 4,1.291878,0.01469\H,0,-2.76743,-1.588904,0.129001\H,0,-1.3323,1.14463
 7,-0.00034\H,0,-0.261867,-1.728101,0.036982\H,0,0.687152,-0.160207,0.0
 69015\\Version=ES64L-G09RevD.01\State=1-A\HF=-155.7000835\MP2=-155.925
 6893\RMSD=5.348e-09\PG=C01 [X(C4H6)]\\@

 Normal termination of Gaussian 09 at Wed Aug 26 20:13:33 2020.
