 Gaussian 09, Revision D.01,
 Gaussian 09:  ES64L-G09RevD.01 24-Apr-2013

 --------------------
 #p B2PLYPD3/Def2QZVP
 --------------------

 ---------
 butadiene
 ---------
 Symbolic Z-matrix:
 Charge =  0 Multiplicity = 1

                         Standard orientation:
 ---------------------------------------------------------------------
 Center     Atomic      Atomic             Coordinates (Angstroms)
 Number     Number       Type             X           Y           Z
 ---------------------------------------------------------------------
      1          6           0       -1.824464   -0.111174    0.046410
      2          6           0       -0.579369    0.406129   -0.064805
      3          6           0        0.599331   -0.421742   -0.029085
      4          6           0        1.817737    0.108989    0.033352
      5          1           0       -2.657226    0.584102    0.090498
      6          1           0       -2.064398   -1.169449   -0.015520
      7          1           0       -0.462917    1.475445   -0.009196
      8          1           0        0.450055   -1.494808   -0.073027
      9          1           0        1.952805    1.209321   -0.016011
     10          1           0        2.702270   -0.497818    0.108023
 ---------------------------------------------------------------------

 SCF Done:  E(RB2PLYPD3) =  -155.697746178     A.U. after   11 cycles
 E2(B2PLYPD3) =    -0.2262629535D+00 E(B2PLYPD3) =    -0.15592400913164D+03

 The electronic state is 1-A.
 Alpha  occ. eigenvalues --  -10.62515 -10.62324 -10.61704 -10.61570  -0.93180
 Alpha  occ. eigenvalues --   -0.84565  -0.69961  -0.64224  -0.54480  -0.53814
 Alpha  occ. eigenvalues --   -0.46180  -0.45564  -0.41536  -0.38171  -0.27352
 Alpha virt. eigenvalues --    0.01677   0.07038   0.07312   0.08077   0.09314
 Alpha virt. eigenvalues --    0.11728   0.12348   0.14813   0.15676   0.16301
 Alpha virt. eigenvalues --    0.18651   0.19966   0.21770   0.23065   0.24115

 Mulliken charges:
               1
     1  C   -0.178854
     2  C   -0.033933
     3  C   -0.028525
     4  C   -0.174352
     5  H    0.077205
     6  H    0.071089
     7  H    0.060665
     8  H    0.058810
     9  H    0.062672
    10  H    0.085224
 Sum of Mulliken charges =   0.00000

 Dipole moment (field-independent basis, Debye):
    X=              0.0178    Y=             -0.0235    Z=              0.0033  Tot=              0.0297
 Quadrupole moment (field-independent basis, Debye-Ang):
   XX=            -23.8423   YY=            -22.8999   ZZ=            -29.3059
   XY=              0.2189   XZ=              0.0129   YZ=              0.0915

 1\1\GINC-NODE01\SP\RB2PLYPD3-FC\def2QZVP\C4H6\BOITTIER\26-Aug-2020\0\\
 #p B2PLYPD3/Def2QZVP\\butadiene\\0,1\C,0,-3.82642,0.229559,-0.028402\C
 ,0,-2.69847,-0.507089,0.09534\C,0,-1.386891,0.087215,0.0449\C,0,-0.288
 017,-0.661182,-0.004749\H,0,-4.773652,-0.300164,-0.059847\H,0,-3.86603
 7,1.314994,0.011739\H,0,-2.78223,-1.58037,0.061533\H,0,-1.334717,1.170
 025,0.066911\H,0,-0.35901,-1.766268,0.067053\H,0,0.693455,-0.230363,-0
 .090164\\Version=ES64L-G09RevD.01\State=1-A\HF=-155.6977462\MP2=-155.9
 240091\RMSD=7.022e-09\PG=C01 [X(C4H6)]\\@

 Normal termination of Gaussian 09 at Wed Aug 26 10:00:34 2020.
