 Gaussian 09, Revision D.01,
 Gaussian 09:  ES64L-G09RevD.01 24-Apr-2013

 --------------------
 #p B2PLYPD3/Def2QZVP
 --------------------

 ---------
 butadiene
 ---------
 Symbolic Z-matrix:
 Charge =  0 Multiplicity = 1

                         Standard orientation:
 ---------------------------------------------------------------------
 Center     Atomic      Atomic             Coordinates (Angstroms)
 Number     Number       Type             X           Y           Z
 ---------------------------------------------------------------------
      1          6           0       -1.812552   -0.104093    0.051907
      2          6           0       -0.603819    0.359918   -0.033422
      3          6           0        0.602056   -0.390096   -0.099604
      4          6           0        1.824142    0.094971    0.029347
      5          1           0       -2.644076    0.623222    0.193430
      6          1           0       -2.171619   -1.171734   -0.046215
      7          1           0       -0.479092    1.456123   -0.144078
      8          1           0        0.544938   -1.449710    0.003903
      9          1           0        1.932147    1.226113    0.018853
     10          1           0        2.758742   -0.448215    0.284741
 ---------------------------------------------------------------------

 SCF Done:  E(RB2PLYPD3) =  -155.685026449     A.U. after   11 cycles
 E2(B2PLYPD3) =    -0.2259822411D+00 E(B2PLYPD3) =    -0.15591100868976D+03

 The electronic state is 1-A.
 Alpha  occ. eigenvalues --  -10.62278 -10.62239 -10.61855 -10.61817  -0.93896
 Alpha  occ. eigenvalues --   -0.85435  -0.69811  -0.63494  -0.54924  -0.53629
 Alpha  occ. eigenvalues --   -0.47348  -0.43729  -0.40580  -0.38397  -0.28034
 Alpha virt. eigenvalues --    0.01818   0.06917   0.07336   0.07815   0.09829
 Alpha virt. eigenvalues --    0.11442   0.12388   0.14570   0.15401   0.16591
 Alpha virt. eigenvalues --    0.18820   0.19604   0.21723   0.22682   0.23623

 Mulliken charges:
               1
     1  C   -0.170854
     2  C   -0.026064
     3  C   -0.028849
     4  C   -0.158617
     5  H    0.073980
     6  H    0.071607
     7  H    0.051752
     8  H    0.057113
     9  H    0.042984
    10  H    0.086947
 Sum of Mulliken charges =   0.00000

 Dipole moment (field-independent basis, Debye):
    X=             -0.0093    Y=             -0.0459    Z=              0.1783  Tot=              0.1844
 Quadrupole moment (field-independent basis, Debye-Ang):
   XX=            -23.3763   YY=            -23.5356   ZZ=            -29.0151
   XY=              0.0610   XZ=              0.6496   YZ=             -0.1642

 1\1\GINC-NODE03\SP\RB2PLYPD3-FC\def2QZVP\C4H6\BOITTIER\26-Aug-2020\0\\
 #p B2PLYPD3/Def2QZVP\\butadiene\\0,1\C,0,-3.817863,0.210894,-0.031339\
 C,0,-2.712689,-0.461664,0.068063\C,0,-1.390089,0.058539,0.102041\C,0,-
 0.277715,-0.645058,-0.011916\H,0,-4.768971,-0.357849,-0.142571\H,0,-3.
 976133,1.328908,0.02705\H,0,-2.787987,-1.557423,0.220078\H,0,-1.254883
 ,1.106315,-0.041634\H,0,-0.376783,-1.77581,0.041392\H,0,0.737419,-0.29
 066,-0.290592\\Version=ES64L-G09RevD.01\State=1-A\HF=-155.6850264\MP2=
 -155.9110087\RMSD=7.674e-09\PG=C01 [X(C4H6)]\\@

 Normal termination of Gaussian 09 at Wed Aug 26 13:38:51 2020.
