 Gaussian 09, Revision D.01,
 Gaussian 09:  ES64L-G09RevD.01 24-Apr-2013

 --------------------
 #p B2PLYPD3/Def2QZVP
 --------------------

 ---------
 butadiene
 ---------
 Symbolic Z-matrix:
 Charge =  0 Multiplicity = 1

                         Standard orientation:
 ---------------------------------------------------------------------
 Center     Atomic      Atomic             Coordinates (Angstroms)
 Number     Number       Type             X           Y           Z
 ---------------------------------------------------------------------
      1          6           0        1.839616    0.093993    0.006568
      2          6           0        0.598755   -0.387827   -0.021246
      3          6           0       -0.605625    0.416651   -0.004237
      4          6           0       -1.830022   -0.122205    0.012000
      5          1           0        2.711410   -0.534071    0.002285
      6          1           0        1.964767    1.205572    0.084143
      7          1           0        0.445229   -1.460589   -0.028805
      8          1           0       -0.484355    1.489780   -0.059215
      9          1           0       -1.939326   -1.203493    0.064215
     10          1           0       -2.714069    0.499132   -0.021133
 ---------------------------------------------------------------------

 SCF Done:  E(RB2PLYPD3) =  -155.699792430     A.U. after   11 cycles
 E2(B2PLYPD3) =    -0.2259041504D+00 E(B2PLYPD3) =    -0.15592569658041D+03

 The electronic state is 1-A.
 Alpha  occ. eigenvalues --  -10.62473 -10.62317 -10.61725 -10.61644  -0.93134
 Alpha  occ. eigenvalues --   -0.84870  -0.69938  -0.64003  -0.54652  -0.53755
 Alpha  occ. eigenvalues --   -0.46748  -0.45278  -0.41241  -0.38205  -0.27668
 Alpha virt. eigenvalues --    0.01756   0.07040   0.07325   0.08065   0.09597
 Alpha virt. eigenvalues --    0.11709   0.12421   0.14574   0.15811   0.16131
 Alpha virt. eigenvalues --    0.18677   0.20457   0.21331   0.22905   0.23971

 Mulliken charges:
               1
     1  C   -0.176946
     2  C   -0.025405
     3  C   -0.029188
     4  C   -0.177585
     5  H    0.091717
     6  H    0.058518
     7  H    0.049965
     8  H    0.054684
     9  H    0.066410
    10  H    0.087830
 Sum of Mulliken charges =   0.00000

 Dipole moment (field-independent basis, Debye):
    X=             -0.0396    Y=             -0.0183    Z=              0.0219  Tot=              0.0489
 Quadrupole moment (field-independent basis, Debye-Ang):
   XX=            -23.6058   YY=            -23.1132   ZZ=            -29.2882
   XY=             -0.0861   XZ=              0.1423   YZ=             -0.0410

 1\1\GINC-NODE38\SP\RB2PLYPD3-FC\def2QZVP\C4H6\BOITTIER\26-Aug-2020\0\\
 #p B2PLYPD3/Def2QZVP\\butadiene\\0,1\C,0,-3.84468,0.208046,0.00996\C,0
 ,-2.710634,-0.488139,0.05384\C,0,-1.381261,0.085969,0.01957\C,0,-0.273
 744,-0.664485,0.02084\H,0,-4.815189,-0.252711,0.027922\H,0,-3.768054,1
 .321619,-0.096675\H,0,-2.752492,-1.570459,0.089563\H,0,-1.307496,1.164
 473,0.046448\H,0,-0.360742,-1.748789,-0.0031\H,0,0.707675,-0.211575,0.
 040491\\Version=ES64L-G09RevD.01\State=1-A\HF=-155.6997924\MP2=-155.92
 56966\RMSD=5.598e-09\PG=C01 [X(C4H6)]\\@

 Normal termination of Gaussian 09 at Wed Aug 26 18:34:52 2020.
