 Gaussian 09, Revision D.01,
 Gaussian 09:  ES64L-G09RevD.01 24-Apr-2013

 --------------------
 #p B2PLYPD3/Def2QZVP
 --------------------

 ---------
 butadiene
 ---------
 Symbolic Z-matrix:
 Charge =  0 Multiplicity = 1

                         Standard orientation:
 ---------------------------------------------------------------------
 Center     Atomic      Atomic             Coordinates (Angstroms)
 Number     Number       Type             X           Y           Z
 ---------------------------------------------------------------------
      1          6           0        1.795314   -0.118741    0.027541
      2          6           0        0.592739    0.395016   -0.106263
      3          6           0       -0.597050   -0.429165   -0.045376
      4          6           0       -1.810962    0.131576    0.061646
      5          1           0        2.642559    0.603213    0.325837
      6          1           0        1.964702   -1.151681    0.147386
      7          1           0        0.541712    1.466918   -0.089043
      8          1           0       -0.415868   -1.499056   -0.236749
      9          1           0       -1.950206    1.267910   -0.009836
     10          1           0       -2.663138   -0.559418    0.237122
 ---------------------------------------------------------------------

 SCF Done:  E(RB2PLYPD3) =  -155.682746642     A.U. after   11 cycles
 E2(B2PLYPD3) =    -0.2268417582D+00 E(B2PLYPD3) =    -0.15590958840003D+03

 The electronic state is 1-A.
 Alpha  occ. eigenvalues --  -10.62886 -10.62589 -10.61813 -10.61251  -0.93452
 Alpha  occ. eigenvalues --   -0.84800  -0.68960  -0.64174  -0.54208  -0.53109
 Alpha  occ. eigenvalues --   -0.45958  -0.45402  -0.41338  -0.37748  -0.27592
 Alpha virt. eigenvalues --    0.01962   0.06861   0.07191   0.07802   0.09024
 Alpha virt. eigenvalues --    0.11795   0.12207   0.14647   0.15089   0.16134
 Alpha virt. eigenvalues --    0.18404   0.20054   0.21331   0.22760   0.24335

 Mulliken charges:
               1
     1  C   -0.165185
     2  C   -0.017418
     3  C   -0.047697
     4  C   -0.182892
     5  H    0.064321
     6  H    0.062847
     7  H    0.059100
     8  H    0.068562
     9  H    0.075282
    10  H    0.083079
 Sum of Mulliken charges =   0.00000

 Dipole moment (field-independent basis, Debye):
    X=             -0.0616    Y=             -0.0156    Z=              0.2169  Tot=              0.2260
 Quadrupole moment (field-independent basis, Debye-Ang):
   XX=            -24.8462   YY=            -22.7870   ZZ=            -29.1273
   XY=             -0.1179   XZ=              0.6370   YZ=              0.0870

 1\1\GINC-NODE35\SP\RB2PLYPD3-FC\def2QZVP\C4H6\BOITTIER\26-Aug-2020\0\\
 #p B2PLYPD3/Def2QZVP\\butadiene\\0,1\C,0,-3.799139,0.225119,0.060241\C
 ,0,-2.710284,-0.502138,-0.056082\C,0,-1.390934,0.0957,-0.034037\C,0,-0
 .296735,-0.669978,0.092186\H,0,-4.759198,-0.319429,0.391566\H,0,-3.778
 422,1.275676,0.137189\H,0,-2.852925,-1.564059,0.005966\H,0,-1.378595,1
 .172037,-0.269541\H,0,-0.365186,-1.814741,0.068007\H,0,0.667821,-0.137
 472,0.235496\\Version=ES64L-G09RevD.01\State=1-A\HF=-155.6827466\MP2=-
 155.9095884\RMSD=7.254e-09\PG=C01 [X(C4H6)]\\@

 Normal termination of Gaussian 09 at Wed Aug 26 14:37:08 2020.
