 Gaussian 09, Revision D.01,
 Gaussian 09:  ES64L-G09RevD.01 24-Apr-2013

 --------------------
 #p B2PLYPD3/Def2QZVP
 --------------------

 ---------
 butadiene
 ---------
 Symbolic Z-matrix:
 Charge =  0 Multiplicity = 1

                         Standard orientation:
 ---------------------------------------------------------------------
 Center     Atomic      Atomic             Coordinates (Angstroms)
 Number     Number       Type             X           Y           Z
 ---------------------------------------------------------------------
      1          6           0        1.788719   -0.128251    0.066417
      2          6           0        0.618110    0.440826   -0.067680
      3          6           0       -0.580311   -0.403688   -0.091451
      4          6           0       -1.839375    0.075981    0.022559
      5          1           0        2.783707    0.467926    0.175417
      6          1           0        1.900620   -1.279397    0.102443
      7          1           0        0.589349    1.566760   -0.108883
      8          1           0       -0.403041   -1.429369   -0.210490
      9          1           0       -2.002724    1.191210    0.070596
     10          1           0       -2.790775   -0.426333    0.391845
 ---------------------------------------------------------------------

 SCF Done:  E(RB2PLYPD3) =  -155.675704630     A.U. after   11 cycles
 E2(B2PLYPD3) =    -0.2276444062D+00 E(B2PLYPD3) =    -0.15590334903570D+03

 The electronic state is 1-A.
 Alpha  occ. eigenvalues --  -10.63085 -10.63004 -10.62785 -10.62694  -0.93198
 Alpha  occ. eigenvalues --   -0.84410  -0.68726  -0.63785  -0.54101  -0.52890
 Alpha  occ. eigenvalues --   -0.46828  -0.43407  -0.40931  -0.37807  -0.27752
 Alpha virt. eigenvalues --    0.01793   0.06866   0.07076   0.07629   0.09010
 Alpha virt. eigenvalues --    0.11395   0.12626   0.13768   0.15656   0.16430
 Alpha virt. eigenvalues --    0.18728   0.19581   0.21729   0.22707   0.23153

 Mulliken charges:
               1
     1  C   -0.155394
     2  C   -0.031513
     3  C   -0.041711
     4  C   -0.162734
     5  H    0.074201
     6  H    0.053575
     7  H    0.062734
     8  H    0.074766
     9  H    0.047061
    10  H    0.079014
 Sum of Mulliken charges =   0.00000

 Dipole moment (field-independent basis, Debye):
    X=              0.1462    Y=              0.0276    Z=              0.2553  Tot=              0.2954
 Quadrupole moment (field-independent basis, Debye-Ang):
   XX=            -23.8546   YY=            -23.3747   ZZ=            -29.2752
   XY=             -0.1209   XZ=             -0.6657   YZ=             -0.0226

 1\1\GINC-NODE11\SP\RB2PLYPD3-FC\def2QZVP\C4H6\BOITTIER\26-Aug-2020\0\\
 #p B2PLYPD3/Def2QZVP\\butadiene\\0,1\C,0,-3.790505,0.231637,0.08136\C,
 0,-2.740354,-0.541047,-0.02954\C,0,-1.409944,0.07439,-0.064559\C,0,-0.
 257583,-0.619866,0.071071\H,0,-4.876568,-0.173804,0.197098\H,0,-3.6944
 69,1.384757,0.088296\H,0,-2.91365,-1.654619,-0.042923\H,0,-1.400177,1.
 111861,-0.210079\H,0,-0.296851,-1.744728,0.147696\H,0,0.767176,-0.2867
 38,0.435417\\Version=ES64L-G09RevD.01\State=1-A\HF=-155.6757046\MP2=-1
 55.903349\RMSD=8.314e-09\PG=C01 [X(C4H6)]\\@

 Normal termination of Gaussian 09 at Wed Aug 26 13:47:23 2020.
