 Gaussian 09, Revision D.01,
 Gaussian 09:  ES64L-G09RevD.01 24-Apr-2013

 --------------------
 #p B2PLYPD3/Def2QZVP
 --------------------

 ---------
 butadiene
 ---------
 Symbolic Z-matrix:
 Charge =  0 Multiplicity = 1

                         Standard orientation:
 ---------------------------------------------------------------------
 Center     Atomic      Atomic             Coordinates (Angstroms)
 Number     Number       Type             X           Y           Z
 ---------------------------------------------------------------------
      1          6           0       -1.842522    0.108098   -0.022204
      2          6           0       -0.607298   -0.395459    0.002535
      3          6           0        0.603234    0.412331    0.011751
      4          6           0        1.840999   -0.113811   -0.010879
      5          1           0       -2.661725   -0.578791    0.067451
      6          1           0       -2.054106    1.156962   -0.040264
      7          1           0       -0.436474   -1.456866    0.051149
      8          1           0        0.490745    1.496354    0.070654
      9          1           0        1.995038   -1.181609   -0.033557
     10          1           0        2.700040    0.497000   -0.002655
 ---------------------------------------------------------------------

 SCF Done:  E(RB2PLYPD3) =  -155.700230089     A.U. after   11 cycles
 E2(B2PLYPD3) =    -0.2255981549D+00 E(B2PLYPD3) =    -0.15592582824350D+03

 The electronic state is 1-A.
 Alpha  occ. eigenvalues --  -10.62626 -10.62397 -10.61290 -10.61254  -0.92897
 Alpha  occ. eigenvalues --   -0.84927  -0.70449  -0.64187  -0.54635  -0.54163
 Alpha  occ. eigenvalues --   -0.46802  -0.45947  -0.41279  -0.37949  -0.27588
 Alpha virt. eigenvalues --    0.01665   0.07043   0.07441   0.08130   0.09554
 Alpha virt. eigenvalues --    0.11719   0.12410   0.14875   0.15893   0.16078
 Alpha virt. eigenvalues --    0.18819   0.20456   0.21678   0.22961   0.23864

 Mulliken charges:
               1
     1  C   -0.177951
     2  C   -0.031278
     3  C   -0.030535
     4  C   -0.179562
     5  H    0.083786
     6  H    0.072623
     7  H    0.057207
     8  H    0.053916
     9  H    0.063940
    10  H    0.087855
 Sum of Mulliken charges =   0.00000

 Dipole moment (field-independent basis, Debye):
    X=              0.0244    Y=              0.0087    Z=              0.1099  Tot=              0.1129
 Quadrupole moment (field-independent basis, Debye-Ang):
   XX=            -23.5764   YY=            -22.9847   ZZ=            -29.2459
   XY=             -0.2553   XZ=             -0.1882   YZ=             -0.0414

 1\1\GINC-NODE21\SP\RB2PLYPD3-FC\def2QZVP\C4H6\BOITTIER\26-Aug-2020\0\\
 #p B2PLYPD3/Def2QZVP\\butadiene\\0,1\C,0,-3.843829,0.224942,0.001031\C
 ,0,-2.720756,-0.494099,0.041595\C,0,-1.383407,0.07973,0.026912\C,0,-0.
 262184,-0.663386,0.020815\H,0,-4.773888,-0.298348,0.111063\H,0,-3.8611
 02,1.293782,-0.048892\H,0,-2.745691,-1.566934,0.122418\H,0,-1.296454,1
 .167385,0.052899\H,0,-0.305147,-1.741576,0.030564\H,0,0.693696,-0.2191
 97,0.01094\\Version=ES64L-G09RevD.01\State=1-A\HF=-155.7002301\MP2=-15
 5.9258282\RMSD=3.361e-09\PG=C01 [X(C4H6)]\\@

 Normal termination of Gaussian 09 at Wed Aug 26 12:06:25 2020.
