 Gaussian 09, Revision D.01,
 Gaussian 09:  ES64L-G09RevD.01 24-Apr-2013

 --------------------
 #p B2PLYPD3/Def2QZVP
 --------------------

 ---------
 butadiene
 ---------
 Symbolic Z-matrix:
 Charge =  0 Multiplicity = 1

                         Standard orientation:
 ---------------------------------------------------------------------
 Center     Atomic      Atomic             Coordinates (Angstroms)
 Number     Number       Type             X           Y           Z
 ---------------------------------------------------------------------
      1          6           0        1.838496    0.103778   -0.008042
      2          6           0        0.593676   -0.392621    0.008537
      3          6           0       -0.596521    0.414967   -0.011969
      4          6           0       -1.827412   -0.112174    0.007634
      5          1           0        2.638510   -0.574567    0.001037
      6          1           0        2.033850    1.168473    0.074904
      7          1           0        0.423078   -1.466865   -0.046867
      8          1           0       -0.468802    1.477749   -0.035182
      9          1           0       -1.950784   -1.180619    0.034654
     10          1           0       -2.725291    0.492134   -0.005514
 ---------------------------------------------------------------------

 SCF Done:  E(RB2PLYPD3) =  -155.699878729     A.U. after   11 cycles
 E2(B2PLYPD3) =    -0.2257254925D+00 E(B2PLYPD3) =    -0.15592560422133D+03

 The electronic state is 1-A.
 Alpha  occ. eigenvalues --  -10.62411 -10.62192 -10.61475 -10.61197  -0.93232
 Alpha  occ. eigenvalues --   -0.84855  -0.70461  -0.64281  -0.54701  -0.54110
 Alpha  occ. eigenvalues --   -0.46490  -0.45962  -0.41517  -0.38213  -0.27461
 Alpha virt. eigenvalues --    0.01602   0.07062   0.07415   0.08145   0.09571
 Alpha virt. eigenvalues --    0.11756   0.12447   0.14848   0.15833   0.16136
 Alpha virt. eigenvalues --    0.18690   0.20406   0.21708   0.22994   0.23993

 Mulliken charges:
               1
     1  C   -0.183509
     2  C   -0.028046
     3  C   -0.026919
     4  C   -0.177107
     5  H    0.087337
     6  H    0.070592
     7  H    0.052367
     8  H    0.056189
     9  H    0.063358
    10  H    0.085737
 Sum of Mulliken charges =   0.00000

 Dipole moment (field-independent basis, Debye):
    X=             -0.0314    Y=              0.0058    Z=              0.0261  Tot=              0.0413
 Quadrupole moment (field-independent basis, Debye-Ang):
   XX=            -23.6382   YY=            -23.0101   ZZ=            -29.2289
   XY=              0.1643   XZ=              0.0998   YZ=              0.0719

 1\1\GINC-NODE08\SP\RB2PLYPD3-FC\def2QZVP\C4H6\BOITTIER\26-Aug-2020\0\\
 #p B2PLYPD3/Def2QZVP\\butadiene\\0,1\C,0,-3.83943,0.224044,0.023917\C,
 0,-2.707286,-0.493241,0.027847\C,0,-1.388734,0.081734,0.024167\C,0,-0.
 275949,-0.663289,0.026084\H,0,-4.750641,-0.295391,0.035719\H,0,-3.8358
 03,1.303049,-0.095885\H,0,-2.737098,-1.578009,0.120379\H,0,-1.318611,1
 .150031,0.01072\H,0,-0.3514,-1.736478,0.035908\H,0,0.717845,-0.234455,
 0.021156\\Version=ES64L-G09RevD.01\State=1-A\HF=-155.6998787\MP2=-155.
 9256042\RMSD=2.771e-09\PG=C01 [X(C4H6)]\\@

 Normal termination of Gaussian 09 at Wed Aug 26 21:49:55 2020.
