 Gaussian 09, Revision D.01,
 Gaussian 09:  ES64L-G09RevD.01 24-Apr-2013

 --------------------
 #p B2PLYPD3/Def2QZVP
 --------------------

 ---------
 butadiene
 ---------
 Symbolic Z-matrix:
 Charge =  0 Multiplicity = 1

                         Standard orientation:
 ---------------------------------------------------------------------
 Center     Atomic      Atomic             Coordinates (Angstroms)
 Number     Number       Type             X           Y           Z
 ---------------------------------------------------------------------
      1          6           0        1.831617    0.104191    0.040196
      2          6           0        0.626779   -0.378570   -0.070405
      3          6           0       -0.605565    0.439529   -0.066830
      4          6           0       -1.825907   -0.130902    0.073500
      5          1           0        2.641228   -0.546169    0.293861
      6          1           0        2.082515    1.122477   -0.029541
      7          1           0        0.493984   -1.492461   -0.183836
      8          1           0       -0.606708    1.548245   -0.031910
      9          1           0       -1.884545   -1.191690    0.009832
     10          1           0       -2.888013    0.354112    0.082831
 ---------------------------------------------------------------------

 SCF Done:  E(RB2PLYPD3) =  -155.682947334     A.U. after   12 cycles
 E2(B2PLYPD3) =    -0.2264320327D+00 E(B2PLYPD3) =    -0.15590937936674D+03

 The electronic state is 1-A.
 Alpha  occ. eigenvalues --  -10.63453 -10.63046 -10.62349 -10.60575  -0.92810
 Alpha  occ. eigenvalues --   -0.85105  -0.69402  -0.63883  -0.54318  -0.54012
 Alpha  occ. eigenvalues --   -0.46466  -0.44786  -0.41138  -0.37526  -0.27806
 Alpha virt. eigenvalues --    0.01899   0.06952   0.07372   0.07794   0.09162
 Alpha virt. eigenvalues --    0.11437   0.12669   0.14189   0.15586   0.16966
 Alpha virt. eigenvalues --    0.18756   0.19190   0.22134   0.22753   0.24052

 Mulliken charges:
               1
     1  C   -0.172325
     2  C   -0.027542
     3  C   -0.048207
     4  C   -0.159387
     5  H    0.081126
     6  H    0.073787
     7  H    0.059510
     8  H    0.062377
     9  H    0.055844
    10  H    0.074818
 Sum of Mulliken charges =   0.00000

 Dipole moment (field-independent basis, Debye):
    X=              0.0431    Y=             -0.0057    Z=              0.0220  Tot=              0.0487
 Quadrupole moment (field-independent basis, Debye-Ang):
   XX=            -23.2996   YY=            -23.3214   ZZ=            -29.2121
   XY=              0.1878   XZ=              0.4291   YZ=             -0.0024

 1\1\GINC-NODE26\SP\RB2PLYPD3-FC\def2QZVP\C4H6\BOITTIER\26-Aug-2020\0\\
 #p B2PLYPD3/Def2QZVP\\butadiene\\0,1\C,0,-3.835798,0.198855,-0.029099\
 C,0,-2.732337,-0.481358,0.099771\C,0,-1.377332,0.111579,0.080849\C,0,-
 0.273664,-0.66426,-0.038772\H,0,-4.74541,-0.308611,-0.26966\H,0,-3.907
 278,1.246634,0.012963\H,0,-2.793726,-1.598071,0.24273\H,0,-1.184924,1.
 202173,0.01715\H,0,-0.398926,-1.717211,0.052707\H,0,0.856193,-0.370094
 ,-0.055612\\Version=ES64L-G09RevD.01\State=1-A\HF=-155.6829473\MP2=-15
 5.9093794\RMSD=3.343e-09\PG=C01 [X(C4H6)]\\@

 Normal termination of Gaussian 09 at Wed Aug 26 12:23:42 2020.
