 Gaussian 09, Revision D.01,
 Gaussian 09:  ES64L-G09RevD.01 24-Apr-2013

 --------------------
 #p B2PLYPD3/Def2QZVP
 --------------------

 ---------
 butadiene
 ---------
 Symbolic Z-matrix:
 Charge =  0 Multiplicity = 1

                         Standard orientation:
 ---------------------------------------------------------------------
 Center     Atomic      Atomic             Coordinates (Angstroms)
 Number     Number       Type             X           Y           Z
 ---------------------------------------------------------------------
      1          6           0       -1.828451   -0.107353    0.017329
      2          6           0       -0.590359    0.402442   -0.022379
      3          6           0        0.593317   -0.422521   -0.044892
      4          6           0        1.819226    0.099944    0.047336
      5          1           0       -2.647248    0.567273   -0.010554
      6          1           0       -2.080130   -1.153191    0.105819
      7          1           0       -0.446543    1.505267   -0.058477
      8          1           0        0.456120   -1.482614   -0.013906
      9          1           0        1.997972    1.179259    0.070636
     10          1           0        2.757433   -0.451073   -0.077881
 ---------------------------------------------------------------------

 SCF Done:  E(RB2PLYPD3) =  -155.696608983     A.U. after   11 cycles
 E2(B2PLYPD3) =    -0.2260646622D+00 E(B2PLYPD3) =    -0.15592267364522D+03

 The electronic state is 1-A.
 Alpha  occ. eigenvalues --  -10.62790 -10.62380 -10.61725 -10.61251  -0.93138
 Alpha  occ. eigenvalues --   -0.84710  -0.70269  -0.64167  -0.54757  -0.53834
 Alpha  occ. eigenvalues --   -0.46596  -0.45272  -0.41245  -0.38116  -0.27506
 Alpha virt. eigenvalues --    0.01591   0.07019   0.07352   0.08069   0.09423
 Alpha virt. eigenvalues --    0.11625   0.12523   0.14811   0.15690   0.16391
 Alpha virt. eigenvalues --    0.18819   0.20036   0.22227   0.22618   0.23727

 Mulliken charges:
               1
     1  C   -0.181032
     2  C   -0.027059
     3  C   -0.035782
     4  C   -0.162379
     5  H    0.082014
     6  H    0.070678
     7  H    0.055444
     8  H    0.065232
     9  H    0.055501
    10  H    0.077384
 Sum of Mulliken charges =   0.00000

 Dipole moment (field-independent basis, Debye):
    X=             -0.0042    Y=             -0.0076    Z=             -0.0302  Tot=              0.0314
 Quadrupole moment (field-independent basis, Debye-Ang):
   XX=            -23.4828   YY=            -23.0889   ZZ=            -29.2547
   XY=              0.4388   XZ=             -0.2802   YZ=             -0.0831

 1\1\GINC-NODE28\SP\RB2PLYPD3-FC\def2QZVP\C4H6\BOITTIER\26-Aug-2020\0\\
 #p B2PLYPD3/Def2QZVP\\butadiene\\0,1\C,0,-3.828321,0.227873,-0.00423\C
 ,0,-2.706997,-0.50218,0.058977\C,0,-1.390141,0.087775,0.057526\C,0,-0.
 283447,-0.657141,-0.010725\H,0,-4.758543,-0.28075,0.043882\H,0,-3.8806
 52,1.298478,-0.130787\H,0,-2.771384,-1.610479,0.134715\H,0,-1.327212,1
 .153067,-0.011562\H,0,-0.309265,-1.750988,0.004975\H,0,0.741371,-0.286
 703,0.099069\\Version=ES64L-G09RevD.01\State=1-A\HF=-155.696609\MP2=-1
 55.9226736\RMSD=5.516e-09\PG=C01 [X(C4H6)]\\@

 Normal termination of Gaussian 09 at Wed Aug 26 10:01:30 2020.
