 Gaussian 09, Revision D.01,
 Gaussian 09:  ES64L-G09RevD.01 24-Apr-2013

 --------------------
 #p B2PLYPD3/Def2QZVP
 --------------------

 ---------
 butadiene
 ---------
 Symbolic Z-matrix:
 Charge =  0 Multiplicity = 1

                         Standard orientation:
 ---------------------------------------------------------------------
 Center     Atomic      Atomic             Coordinates (Angstroms)
 Number     Number       Type             X           Y           Z
 ---------------------------------------------------------------------
      1          6           0       -1.855544   -0.108455   -0.009931
      2          6           0       -0.626303    0.378308    0.047738
      3          6           0        0.621230   -0.417868    0.007555
      4          6           0        1.845293    0.127498   -0.030385
      5          1           0       -2.682610    0.565325   -0.104068
      6          1           0       -1.980682   -1.179883   -0.138446
      7          1           0       -0.521406    1.505980    0.080950
      8          1           0        0.527770   -1.499665    0.167685
      9          1           0        2.011553    1.220181   -0.055300
     10          1           0        2.737319   -0.488834   -0.040684
 ---------------------------------------------------------------------

 SCF Done:  E(RB2PLYPD3) =  -155.695885589     A.U. after   11 cycles
 E2(B2PLYPD3) =    -0.2261193242D+00 E(B2PLYPD3) =    -0.15592200491323D+03

 The electronic state is 1-A.
 Alpha  occ. eigenvalues --  -10.63134 -10.62963 -10.62030 -10.61186  -0.92518
 Alpha  occ. eigenvalues --   -0.85133  -0.69650  -0.63201  -0.54486  -0.53748
 Alpha  occ. eigenvalues --   -0.46808  -0.45101  -0.40795  -0.37703  -0.28025
 Alpha virt. eigenvalues --    0.01866   0.07021   0.07303   0.07896   0.09373
 Alpha virt. eigenvalues --    0.11603   0.12375   0.14507   0.15519   0.16217
 Alpha virt. eigenvalues --    0.18801   0.20100   0.21496   0.22673   0.23824

 Mulliken charges:
               1
     1  C   -0.173919
     2  C   -0.022329
     3  C   -0.043797
     4  C   -0.172121
     5  H    0.089685
     6  H    0.064492
     7  H    0.044420
     8  H    0.060786
     9  H    0.067519
    10  H    0.085263
 Sum of Mulliken charges =   0.00000

 Dipole moment (field-independent basis, Debye):
    X=              0.0772    Y=              0.0116    Z=             -0.0575  Tot=              0.0970
 Quadrupole moment (field-independent basis, Debye-Ang):
   XX=            -23.5854   YY=            -23.1133   ZZ=            -29.3194
   XY=             -0.0617   XZ=              0.4529   YZ=             -0.0911

 1\1\GINC-NODE34\SP\RB2PLYPD3-FC\def2QZVP\C4H6\BOITTIER\26-Aug-2020\0\\
 #p B2PLYPD3/Def2QZVP\\butadiene\\0,1\C,0,-3.859611,0.211088,0.034755\C
 ,0,-2.733548,-0.482858,-0.006694\C,0,-1.366863,0.086307,0.001792\C,0,-
 0.255265,-0.660939,0.058078\H,0,-4.789936,-0.30549,0.155261\H,0,-3.796
 578,1.291965,0.123445\H,0,-2.825477,-1.612116,0.001981\H,0,-1.273153,1
 .16139,-0.198398\H,0,-0.280241,-1.764263,0.123437\H,0,0.729944,-0.2083
 41,0.043973\\Version=ES64L-G09RevD.01\State=1-A\HF=-155.6958856\MP2=-1
 55.9220049\RMSD=6.025e-09\PG=C01 [X(C4H6)]\\@

 Normal termination of Gaussian 09 at Wed Aug 26 09:22:02 2020.
