 Gaussian 09, Revision D.01,
 Gaussian 09:  ES64L-G09RevD.01 24-Apr-2013

 --------------------
 #p B2PLYPD3/Def2QZVP
 --------------------

 ---------
 butadiene
 ---------
 Symbolic Z-matrix:
 Charge =  0 Multiplicity = 1

                         Standard orientation:
 ---------------------------------------------------------------------
 Center     Atomic      Atomic             Coordinates (Angstroms)
 Number     Number       Type             X           Y           Z
 ---------------------------------------------------------------------
      1          6           0        1.842768   -0.126677    0.021367
      2          6           0        0.622290    0.418605   -0.021905
      3          6           0       -0.607432   -0.392215   -0.021579
      4          6           0       -1.852848    0.103146    0.016385
      5          1           0        2.686245    0.528199    0.062825
      6          1           0        2.014044   -1.187381   -0.014782
      7          1           0        0.474830    1.496385   -0.050155
      8          1           0       -0.462743   -1.464252   -0.033884
      9          1           0       -2.024029    1.149258    0.013623
     10          1           0       -2.717015   -0.539366    0.056768
 ---------------------------------------------------------------------

 SCF Done:  E(RB2PLYPD3) =  -155.700418583     A.U. after   11 cycles
 E2(B2PLYPD3) =    -0.2255909363D+00 E(B2PLYPD3) =    -0.15592600951963D+03

 The electronic state is 1-A.
 Alpha  occ. eigenvalues --  -10.62790 -10.62582 -10.61418 -10.61238  -0.92637
 Alpha  occ. eigenvalues --   -0.84946  -0.70216  -0.64207  -0.54462  -0.54103
 Alpha  occ. eigenvalues --   -0.46859  -0.46061  -0.41091  -0.37766  -0.27706
 Alpha virt. eigenvalues --    0.01786   0.07008   0.07451   0.08132   0.09447
 Alpha virt. eigenvalues --    0.11705   0.12411   0.14792   0.15907   0.16026
 Alpha virt. eigenvalues --    0.18821   0.20586   0.21583   0.23077   0.23812

 Mulliken charges:
               1
     1  C   -0.176262
     2  C   -0.038302
     3  C   -0.028023
     4  C   -0.180268
     5  H    0.085507
     6  H    0.073263
     7  H    0.056981
     8  H    0.054301
     9  H    0.066253
    10  H    0.086550
 Sum of Mulliken charges =   0.00000

 Dipole moment (field-independent basis, Debye):
    X=              0.0356    Y=              0.0073    Z=              0.0000  Tot=              0.0363
 Quadrupole moment (field-independent basis, Debye-Ang):
   XX=            -23.5287   YY=            -22.9882   ZZ=            -29.2878
   XY=             -0.2444   XZ=             -0.0556   YZ=              0.0165

 1\1\GINC-NODE27\SP\RB2PLYPD3-FC\def2QZVP\C4H6\BOITTIER\26-Aug-2020\0\\
 #p B2PLYPD3/Def2QZVP\\butadiene\\0,1\C,0,-3.841619,0.239998,0.038715\C
 ,0,-2.738519,-0.515866,0.013999\C,0,-1.383578,0.061519,-0.0062\C,0,-0.
 246777,-0.647376,0.048905\H,0,-4.788527,-0.251929,0.09708\H,0,-3.82046
 4,1.312745,-0.028387\H,0,-2.786346,-1.602998,0.017166\H,0,-1.33417,1.1
 4134,-0.049733\H,0,-0.265527,-1.706874,0.076691\H,0,0.718511,-0.168955
 ,0.072752\\Version=ES64L-G09RevD.01\State=1-A\HF=-155.7004186\MP2=-155
 .9260095\RMSD=3.854e-09\PG=C01 [X(C4H6)]\\@

 Normal termination of Gaussian 09 at Wed Aug 26 16:34:42 2020.
