 Gaussian 09, Revision D.01,
 Gaussian 09:  ES64L-G09RevD.01 24-Apr-2013

 --------------------
 #p B2PLYPD3/Def2QZVP
 --------------------

 ---------
 butadiene
 ---------
 Symbolic Z-matrix:
 Charge =  0 Multiplicity = 1

                         Standard orientation:
 ---------------------------------------------------------------------
 Center     Atomic      Atomic             Coordinates (Angstroms)
 Number     Number       Type             X           Y           Z
 ---------------------------------------------------------------------
      1          6           0        1.821128    0.114500    0.032763
      2          6           0        0.601359   -0.407647   -0.029076
      3          6           0       -0.587779    0.382941   -0.049762
      4          6           0       -1.826366   -0.105166    0.013825
      5          1           0        2.762755   -0.521381   -0.063685
      6          1           0        1.872366    1.248594    0.202446
      7          1           0        0.469666   -1.490430   -0.059171
      8          1           0       -0.438508    1.439002   -0.116301
      9          1           0       -2.051660   -1.147656    0.179484
     10          1           0       -2.664676    0.564100    0.050720
 ---------------------------------------------------------------------

 SCF Done:  E(RB2PLYPD3) =  -155.692723773     A.U. after   11 cycles
 E2(B2PLYPD3) =    -0.2262971662D+00 E(B2PLYPD3) =    -0.15591902093877D+03

 The electronic state is 1-A.
 Alpha  occ. eigenvalues --  -10.62710 -10.62176 -10.62090 -10.61307  -0.93545
 Alpha  occ. eigenvalues --   -0.84797  -0.69856  -0.63941  -0.54397  -0.53561
 Alpha  occ. eigenvalues --   -0.46586  -0.45037  -0.41137  -0.38388  -0.27595
 Alpha virt. eigenvalues --    0.01602   0.06935   0.07305   0.07903   0.09677
 Alpha virt. eigenvalues --    0.11746   0.12275   0.14747   0.15741   0.16021
 Alpha virt. eigenvalues --    0.18570   0.20154   0.21328   0.22481   0.24010

 Mulliken charges:
               1
     1  C   -0.173509
     2  C   -0.025864
     3  C   -0.028703
     4  C   -0.175658
     5  H    0.088844
     6  H    0.058185
     7  H    0.053879
     8  H    0.055226
     9  H    0.066773
    10  H    0.080827
 Sum of Mulliken charges =   0.00000

 Dipole moment (field-independent basis, Debye):
    X=             -0.0296    Y=             -0.0388    Z=              0.1266  Tot=              0.1357
 Quadrupole moment (field-independent basis, Debye-Ang):
   XX=            -23.7975   YY=            -23.1903   ZZ=            -29.2131
   XY=             -0.0677   XZ=             -0.3737   YZ=              0.0545

 1\1\GINC-NODE29\SP\RB2PLYPD3-FC\def2QZVP\C4H6\BOITTIER\26-Aug-2020\0\\
 #p B2PLYPD3/Def2QZVP\\butadiene\\0,1\C,0,-3.8212,0.228058,-0.012827\C,
 0,-2.715865,-0.504288,0.065937\C,0,-1.402988,0.057661,0.057317\C,0,-0.
 273926,-0.648967,0.00951\H,0,-4.861742,-0.222715,0.107105\H,0,-3.66727
 9,1.346092,-0.222337\H,0,-2.78242,-1.591302,0.134042\H,0,-1.357832,1.1
 24932,0.08675\H,0,-0.24261,-1.720111,-0.11955\H,0,0.671517,-0.144585,-
 0.05196\\Version=ES64L-G09RevD.01\State=1-A\HF=-155.6927238\MP2=-155.9
 190209\RMSD=8.546e-09\PG=C01 [X(C4H6)]\\@

 Normal termination of Gaussian 09 at Wed Aug 26 10:07:08 2020.
