 Gaussian 09, Revision D.01,
 Gaussian 09:  ES64L-G09RevD.01 24-Apr-2013

 --------------------
 #p B2PLYPD3/Def2QZVP
 --------------------

 ---------
 butadiene
 ---------
 Symbolic Z-matrix:
 Charge =  0 Multiplicity = 1

                         Standard orientation:
 ---------------------------------------------------------------------
 Center     Atomic      Atomic             Coordinates (Angstroms)
 Number     Number       Type             X           Y           Z
 ---------------------------------------------------------------------
      1          6           0       -1.820439   -0.104926    0.035509
      2          6           0       -0.582739    0.382979   -0.045998
      3          6           0        0.593129   -0.398558   -0.040038
      4          6           0        1.819726    0.112150    0.021534
      5          1           0       -2.698335    0.529588    0.163925
      6          1           0       -2.075545   -1.158455   -0.048672
      7          1           0       -0.455811    1.480427   -0.106545
      8          1           0        0.513536   -1.472655   -0.011746
      9          1           0        1.916424    1.209025    0.063108
     10          1           0        2.741668   -0.537807    0.113879
 ---------------------------------------------------------------------

 SCF Done:  E(RB2PLYPD3) =  -155.694825400     A.U. after   11 cycles
 E2(B2PLYPD3) =    -0.2262790985D+00 E(B2PLYPD3) =    -0.15592110449855D+03

 The electronic state is 1-A.
 Alpha  occ. eigenvalues --  -10.62533 -10.62127 -10.61939 -10.61636  -0.93713
 Alpha  occ. eigenvalues --   -0.84797  -0.70068  -0.63927  -0.54712  -0.53704
 Alpha  occ. eigenvalues --   -0.46354  -0.44887  -0.41381  -0.38533  -0.27441
 Alpha virt. eigenvalues --    0.01533   0.06962   0.07351   0.07844   0.09783
 Alpha virt. eigenvalues --    0.11665   0.12430   0.14646   0.15735   0.16264
 Alpha virt. eigenvalues --    0.18730   0.20260   0.21586   0.22601   0.23797

 Mulliken charges:
               1
     1  C   -0.175997
     2  C   -0.027619
     3  C   -0.023124
     4  C   -0.171254
     5  H    0.079529
     6  H    0.066812
     7  H    0.051918
     8  H    0.055581
     9  H    0.060291
    10  H    0.083864
 Sum of Mulliken charges =   0.00000

 Dipole moment (field-independent basis, Debye):
    X=             -0.0389    Y=             -0.0487    Z=              0.0917  Tot=              0.1108
 Quadrupole moment (field-independent basis, Debye-Ang):
   XX=            -23.5730   YY=            -23.2244   ZZ=            -29.2161
   XY=              0.0197   XZ=              0.1365   YZ=              0.0518

 1\1\GINC-NODE37\SP\RB2PLYPD3-FC\def2QZVP\C4H6\BOITTIER\26-Aug-2020\0\\
 #p B2PLYPD3/Def2QZVP\\butadiene\\0,1\C,0,-3.82467,0.217398,-0.017691\C
 ,0,-2.695937,-0.485075,0.077643\C,0,-1.397633,0.069193,0.051306\C,0,-0
 .284582,-0.657481,0.004221\H,0,-4.803827,-0.250103,-0.12947\H,0,-3.883
 655,1.301611,0.037929\H,0,-2.77035,-1.585303,0.167808\H,0,-1.280779,1.
 138719,-0.005959\H,0,-0.389059,-1.754365,-0.007731\H,0,0.739737,-0.188
 68,-0.105071\\Version=ES64L-G09RevD.01\State=1-A\HF=-155.6948254\MP2=-
 155.9211045\RMSD=4.549e-09\PG=C01 [X(C4H6)]\\@

 Normal termination of Gaussian 09 at Wed Aug 26 11:08:22 2020.
