 Gaussian 09, Revision D.01,
 Gaussian 09:  ES64L-G09RevD.01 24-Apr-2013

 --------------------
 #p B2PLYPD3/Def2QZVP
 --------------------

 ---------
 butadiene
 ---------
 Symbolic Z-matrix:
 Charge =  0 Multiplicity = 1

                         Standard orientation:
 ---------------------------------------------------------------------
 Center     Atomic      Atomic             Coordinates (Angstroms)
 Number     Number       Type             X           Y           Z
 ---------------------------------------------------------------------
      1          6           0       -1.835506   -0.093941    0.008776
      2          6           0       -0.588887    0.363209   -0.047395
      3          6           0        0.613502   -0.417082   -0.015618
      4          6           0        1.823259    0.129953    0.025939
      5          1           0       -2.693655    0.580399    0.050867
      6          1           0       -1.994109   -1.160865    0.129103
      7          1           0       -0.479389    1.440462   -0.040185
      8          1           0        0.478391   -1.480318   -0.038619
      9          1           0        1.930010    1.250221    0.116108
     10          1           0        2.684535   -0.522735   -0.047491
 ---------------------------------------------------------------------

 SCF Done:  E(RB2PLYPD3) =  -155.697090594     A.U. after   11 cycles
 E2(B2PLYPD3) =    -0.2258109254D+00 E(B2PLYPD3) =    -0.15592290151931D+03

 The electronic state is 1-A.
 Alpha  occ. eigenvalues --  -10.62176 -10.61999 -10.61956 -10.61388  -0.93462
 Alpha  occ. eigenvalues --   -0.85051  -0.69944  -0.63981  -0.54502  -0.53889
 Alpha  occ. eigenvalues --   -0.46644  -0.45257  -0.41204  -0.38385  -0.27688
 Alpha virt. eigenvalues --    0.01720   0.06981   0.07350   0.07992   0.09818
 Alpha virt. eigenvalues --    0.11787   0.12262   0.14707   0.15861   0.15985
 Alpha virt. eigenvalues --    0.18644   0.20461   0.21137   0.22534   0.24227

 Mulliken charges:
               1
     1  C   -0.180318
     2  C   -0.013521
     3  C   -0.037882
     4  C   -0.173809
     5  H    0.086850
     6  H    0.059678
     7  H    0.046062
     8  H    0.055449
     9  H    0.068956
    10  H    0.088537
 Sum of Mulliken charges =   0.00000

 Dipole moment (field-independent basis, Debye):
    X=              0.0469    Y=             -0.0175    Z=              0.1177  Tot=              0.1279
 Quadrupole moment (field-independent basis, Debye-Ang):
   XX=            -23.8415   YY=            -23.0572   ZZ=            -29.2091
   XY=             -0.1465   XZ=             -0.3708   YZ=              0.0862

 1\1\GINC-NODE19\SP\RB2PLYPD3-FC\def2QZVP\C4H6\BOITTIER\26-Aug-2020\0\\
 #p B2PLYPD3/Def2QZVP\\butadiene\\0,1\C,0,-3.843268,0.20416,0.002673\C,
 0,-2.698678,-0.467379,0.074434\C,0,-1.375994,0.084221,0.031452\C,0,-0.
 283694,-0.67128,0.00727\H,0,-4.808253,-0.306461,-0.028879\H,0,-3.80820
 5,1.279335,-0.141304\H,0,-2.783812,-1.546729,0.0909\H,0,-1.31858,1.154
 716,0.030956\H,0,-0.379174,-1.794273,-0.05829\H,0,0.680469,-0.181827,0
 .070634\\Version=ES64L-G09RevD.01\State=1-A\HF=-155.6970906\MP2=-155.9
 229015\RMSD=5.460e-09\PG=C01 [X(C4H6)]\\@

 Normal termination of Gaussian 09 at Wed Aug 26 09:07:43 2020.
