 Gaussian 09, Revision D.01,
 Gaussian 09:  ES64L-G09RevD.01 24-Apr-2013

 --------------------
 #p B2PLYPD3/Def2QZVP
 --------------------

 ---------
 butadiene
 ---------
 Symbolic Z-matrix:
 Charge =  0 Multiplicity = 1

                         Standard orientation:
 ---------------------------------------------------------------------
 Center     Atomic      Atomic             Coordinates (Angstroms)
 Number     Number       Type             X           Y           Z
 ---------------------------------------------------------------------
      1          6           0        1.842268   -0.112568    0.002635
      2          6           0        0.604621    0.395862   -0.021750
      3          6           0       -0.603088   -0.393653   -0.006280
      4          6           0       -1.844199    0.108515    0.006853
      5          1           0        2.680056    0.560986    0.074334
      6          1           0        2.002133   -1.176463    0.015186
      7          1           0        0.477386    1.478663    0.008084
      8          1           0       -0.418762   -1.475914   -0.035973
      9          1           0       -2.025524    1.170820   -0.016062
     10          1           0       -2.712904   -0.547030    0.065681
 ---------------------------------------------------------------------

 SCF Done:  E(RB2PLYPD3) =  -155.700288500     A.U. after   11 cycles
 E2(B2PLYPD3) =    -0.2259574120D+00 E(B2PLYPD3) =    -0.15592624591199D+03

 The electronic state is 1-A.
 Alpha  occ. eigenvalues --  -10.62648 -10.62409 -10.61704 -10.61461  -0.93057
 Alpha  occ. eigenvalues --   -0.84852  -0.70370  -0.63886  -0.54521  -0.53924
 Alpha  occ. eigenvalues --   -0.46590  -0.45926  -0.41056  -0.38167  -0.27583
 Alpha virt. eigenvalues --    0.01543   0.06994   0.07374   0.08053   0.09693
 Alpha virt. eigenvalues --    0.11731   0.12340   0.14830   0.15724   0.16068
 Alpha virt. eigenvalues --    0.18752   0.20473   0.21587   0.22855   0.23830

 Mulliken charges:
               1
     1  C   -0.181785
     2  C   -0.022263
     3  C   -0.029240
     4  C   -0.178249
     5  H    0.087962
     6  H    0.067857
     7  H    0.049616
     8  H    0.050177
     9  H    0.069188
    10  H    0.086736
 Sum of Mulliken charges =   0.00000

 Dipole moment (field-independent basis, Debye):
    X=             -0.0003    Y=              0.0179    Z=              0.0834  Tot=              0.0853
 Quadrupole moment (field-independent basis, Debye-Ang):
   XX=            -23.5966   YY=            -23.0814   ZZ=            -29.2906
   XY=             -0.2031   XZ=              0.1267   YZ=              0.0304

 1\1\GINC-NODE03\SP\RB2PLYPD3-FC\def2QZVP\C4H6\BOITTIER\26-Aug-2020\0\\
 #p B2PLYPD3/Def2QZVP\\butadiene\\0,1\C,0,-3.843282,0.230454,0.024177\C
 ,0,-2.71877,-0.495006,0.017411\C,0,-1.387637,0.061895,0.008473\C,0,-0.
 258394,-0.65684,0.039006\H,0,-4.789154,-0.276937,0.116837\H,0,-3.80709
 ,1.305532,0.002162\H,0,-2.790273,-1.581378,0.08237\H,0,-1.37237,1.1581
 2,-0.056381\H,0,-0.273246,-1.734588,0.050631\H,0,0.715254,-0.168595,0.
 077417\\Version=ES64L-G09RevD.01\State=1-A\HF=-155.7002885\MP2=-155.92
 62459\RMSD=2.537e-09\PG=C01 [X(C4H6)]\\@

 Normal termination of Gaussian 09 at Wed Aug 26 12:54:25 2020.
