 Gaussian 09, Revision D.01,
 Gaussian 09:  ES64L-G09RevD.01 24-Apr-2013

 --------------------
 #p B2PLYPD3/Def2QZVP
 --------------------

 ---------
 butadiene
 ---------
 Symbolic Z-matrix:
 Charge =  0 Multiplicity = 1

                         Standard orientation:
 ---------------------------------------------------------------------
 Center     Atomic      Atomic             Coordinates (Angstroms)
 Number     Number       Type             X           Y           Z
 ---------------------------------------------------------------------
      1          6           0        1.832703   -0.125659   -0.025540
      2          6           0        0.604158    0.414405    0.016302
      3          6           0       -0.591681   -0.377134   -0.000777
      4          6           0       -1.823415    0.096520   -0.025667
      5          1           0        2.652526    0.504414    0.019306
      6          1           0        1.910670   -1.201764   -0.024900
      7          1           0        0.455592    1.497932    0.138504
      8          1           0       -0.498565   -1.461286    0.073467
      9          1           0       -1.992165    1.156465   -0.107147
     10          1           0       -2.658650   -0.544551    0.114861
 ---------------------------------------------------------------------

 SCF Done:  E(RB2PLYPD3) =  -155.696900402     A.U. after   11 cycles
 E2(B2PLYPD3) =    -0.2254251768D+00 E(B2PLYPD3) =    -0.15592232557846D+03

 The electronic state is 1-A.
 Alpha  occ. eigenvalues --  -10.62538 -10.61908 -10.61108 -10.60804  -0.93423
 Alpha  occ. eigenvalues --   -0.85286  -0.70526  -0.63854  -0.55082  -0.54304
 Alpha  occ. eigenvalues --   -0.46516  -0.46002  -0.41461  -0.38178  -0.27613
 Alpha virt. eigenvalues --    0.01706   0.07138   0.07353   0.08103   0.09761
 Alpha virt. eigenvalues --    0.11806   0.12447   0.14825   0.15674   0.16265
 Alpha virt. eigenvalues --    0.18703   0.20178   0.21636   0.22727   0.24401

 Mulliken charges:
               1
     1  C   -0.181370
     2  C   -0.037235
     3  C   -0.010846
     4  C   -0.182656
     5  H    0.093256
     6  H    0.071987
     7  H    0.051708
     8  H    0.045973
     9  H    0.061885
    10  H    0.087298
 Sum of Mulliken charges =   0.00000

 Dipole moment (field-independent basis, Debye):
    X=              0.0096    Y=              0.0100    Z=              0.2041  Tot=              0.2046
 Quadrupole moment (field-independent basis, Debye-Ang):
   XX=            -23.7454   YY=            -23.0407   ZZ=            -29.1014
   XY=              0.0508   XZ=             -0.1060   YZ=             -0.0855

 1\1\GINC-NODE24\SP\RB2PLYPD3-FC\def2QZVP\C4H6\BOITTIER\26-Aug-2020\0\\
 #p B2PLYPD3/Def2QZVP\\butadiene\\0,1\C,0,-3.829217,0.239398,-0.003657\
 C,0,-2.718382,-0.512456,0.055542\C,0,-1.399245,0.049216,0.020051\C,0,-
 0.273444,-0.639711,0.010769\H,0,-4.749281,-0.230727,0.056144\H,0,-3.71
 1447,1.311501,-0.032062\H,0,-2.767744,-1.601321,0.207109\H,0,-1.294735
 ,1.133941,0.064972\H,0,-0.299209,-1.714497,-0.041857\H,0,0.664237,-0.1
 56589,0.136015\\Version=ES64L-G09RevD.01\State=1-A\HF=-155.6969004\MP2
 =-155.9223256\RMSD=6.964e-09\PG=C01 [X(C4H6)]\\@

 Normal termination of Gaussian 09 at Wed Aug 26 11:11:21 2020.
