 Gaussian 09, Revision D.01,
 Gaussian 09:  ES64L-G09RevD.01 24-Apr-2013

 --------------------
 #p B2PLYPD3/Def2QZVP
 --------------------

 ---------
 butadiene
 ---------
 Symbolic Z-matrix:
 Charge =  0 Multiplicity = 1

                         Standard orientation:
 ---------------------------------------------------------------------
 Center     Atomic      Atomic             Coordinates (Angstroms)
 Number     Number       Type             X           Y           Z
 ---------------------------------------------------------------------
      1          6           0        1.833196    0.102749    0.009216
      2          6           0        0.596882   -0.381865   -0.017887
      3          6           0       -0.611393    0.408085   -0.026847
      4          6           0       -1.828170   -0.119705    0.022422
      5          1           0        2.673349   -0.553664    0.061553
      6          1           0        2.028397    1.168024    0.053557
      7          1           0        0.472206   -1.467694   -0.035868
      8          1           0       -0.468953    1.478620   -0.062530
      9          1           0       -1.929864   -1.182202   -0.009206
     10          1           0       -2.718226    0.501334    0.071070
 ---------------------------------------------------------------------

 SCF Done:  E(RB2PLYPD3) =  -155.701050939     A.U. after   11 cycles
 E2(B2PLYPD3) =    -0.2252731266D+00 E(B2PLYPD3) =    -0.15592632406569D+03

 The electronic state is 1-A.
 Alpha  occ. eigenvalues --  -10.62295 -10.62207 -10.61321 -10.61173  -0.93314
 Alpha  occ. eigenvalues --   -0.85180  -0.70255  -0.64084  -0.54700  -0.54188
 Alpha  occ. eigenvalues --   -0.46773  -0.45724  -0.41169  -0.38291  -0.27761
 Alpha virt. eigenvalues --    0.01861   0.07029   0.07427   0.08077   0.09765
 Alpha virt. eigenvalues --    0.11740   0.12459   0.14791   0.15882   0.16069
 Alpha virt. eigenvalues --    0.18726   0.20574   0.21595   0.22684   0.24126

 Mulliken charges:
               1
     1  C   -0.179827
     2  C   -0.022598
     3  C   -0.029164
     4  C   -0.176031
     5  H    0.086307
     6  H    0.064125
     7  H    0.047685
     8  H    0.054166
     9  H    0.067631
    10  H    0.087707
 Sum of Mulliken charges =   0.00000

 Dipole moment (field-independent basis, Debye):
    X=             -0.0212    Y=              0.0072    Z=              0.0437  Tot=              0.0491
 Quadrupole moment (field-independent basis, Debye-Ang):
   XX=            -23.5439   YY=            -23.1025   ZZ=            -29.1633
   XY=              0.0619   XZ=              0.1095   YZ=              0.0515

 1\1\GINC-NODE08\SP\RB2PLYPD3-FC\def2QZVP\C4H6\BOITTIER\26-Aug-2020\0\\
 #p B2PLYPD3/Def2QZVP\\butadiene\\0,1\C,0,-3.838305,0.214706,0.005895\C
 ,0,-2.709257,-0.483302,0.051658\C,0,-1.378574,0.076305,0.039314\C,0,-0
 .276729,-0.66303,0.010039\H,0,-4.782975,-0.281184,-0.028253\H,0,-3.838
 825,1.295799,-0.07232\H,0,-2.781884,-1.572743,0.103969\H,0,-1.326021,1
 .155584,0.041069\H,0,-0.367726,-1.72497,0.075195\H,0,0.71038,-0.214056
 ,-0.0555\\Version=ES64L-G09RevD.01\State=1-A\HF=-155.7010509\MP2=-155.
 9263241\RMSD=4.134e-09\PG=C01 [X(C4H6)]\\@

 Normal termination of Gaussian 09 at Wed Aug 26 21:07:18 2020.
