 Gaussian 09, Revision D.01,
 Gaussian 09:  ES64L-G09RevD.01 24-Apr-2013

 --------------------
 #p B2PLYPD3/Def2QZVP
 --------------------

 ---------
 butadiene
 ---------
 Symbolic Z-matrix:
 Charge =  0 Multiplicity = 1

                         Standard orientation:
 ---------------------------------------------------------------------
 Center     Atomic      Atomic             Coordinates (Angstroms)
 Number     Number       Type             X           Y           Z
 ---------------------------------------------------------------------
      1          6           0        1.850277    0.094436    0.070019
      2          6           0        0.650681   -0.372085   -0.071073
      3          6           0       -0.625573    0.408023   -0.047523
      4          6           0       -1.860095   -0.146500    0.032905
      5          1           0        2.691294   -0.514251   -0.023914
      6          1           0        1.957297    1.217168    0.061318
      7          1           0        0.542817   -1.469534   -0.109582
      8          1           0       -0.591541    1.506427   -0.004896
      9          1           0       -2.031213   -1.143718    0.230687
     10          1           0       -2.660392    0.500665   -0.059582
 ---------------------------------------------------------------------

 SCF Done:  E(RB2PLYPD3) =  -155.686892030     A.U. after   12 cycles
 E2(B2PLYPD3) =    -0.2253001291D+00 E(B2PLYPD3) =    -0.15591219215947D+03

 The electronic state is 1-A.
 Alpha  occ. eigenvalues --  -10.63307 -10.62378 -10.60908 -10.60776  -0.92599
 Alpha  occ. eigenvalues --   -0.85788  -0.70176  -0.63525  -0.55131  -0.54346
 Alpha  occ. eigenvalues --   -0.46872  -0.46022  -0.40632  -0.37559  -0.28149
 Alpha virt. eigenvalues --    0.01826   0.07054   0.07510   0.08042   0.09573
 Alpha virt. eigenvalues --    0.11692   0.12392   0.14583   0.15927   0.16063
 Alpha virt. eigenvalues --    0.18868   0.20241   0.21491   0.22377   0.24378

 Mulliken charges:
               1
     1  C   -0.160710
     2  C   -0.025993
     3  C   -0.045301
     4  C   -0.179645
     5  H    0.090201
     6  H    0.055232
     7  H    0.048351
     8  H    0.053973
     9  H    0.076729
    10  H    0.087164
 Sum of Mulliken charges =   0.00000

 Dipole moment (field-independent basis, Debye):
    X=             -0.0344    Y=             -0.0435    Z=              0.0231  Tot=              0.0600
 Quadrupole moment (field-independent basis, Debye-Ang):
   XX=            -23.4628   YY=            -23.1251   ZZ=            -29.1215
   XY=             -0.2007   XZ=             -0.3597   YZ=             -0.1429

 1\1\GINC-NODE21\SP\RB2PLYPD3-FC\def2QZVP\C4H6\BOITTIER\26-Aug-2020\0\\
 #p B2PLYPD3/Def2QZVP\\butadiene\\0,1\C,0,-3.858115,0.191399,-0.045442\
 C,0,-2.753927,-0.468284,0.103435\C,0,-1.364317,0.084147,0.061583\C,0,-
 0.241709,-0.672652,-0.009232\H,0,-4.789423,-0.264282,0.062508\H,0,-3.7
 73784,1.316003,-0.059987\H,0,-2.832912,-1.567159,0.164652\H,0,-1.21242
 3,1.171396,-0.003888\H,0,-0.242615,-1.688249,-0.186446\H,0,0.656919,-0
 .168388,0.06846\\Version=ES64L-G09RevD.01\State=1-A\HF=-155.686892\MP2
 =-155.9121922\RMSD=3.162e-09\PG=C01 [X(C4H6)]\\@

 Normal termination of Gaussian 09 at Wed Aug 26 15:56:49 2020.
