 Gaussian 09, Revision D.01,
 Gaussian 09:  ES64L-G09RevD.01 24-Apr-2013

 --------------------
 #p B2PLYPD3/Def2QZVP
 --------------------

 ---------
 butadiene
 ---------
 Symbolic Z-matrix:
 Charge =  0 Multiplicity = 1

                         Standard orientation:
 ---------------------------------------------------------------------
 Center     Atomic      Atomic             Coordinates (Angstroms)
 Number     Number       Type             X           Y           Z
 ---------------------------------------------------------------------
      1          6           0       -1.843454   -0.123704    0.009493
      2          6           0       -0.614302    0.415524   -0.016316
      3          6           0        0.609118   -0.391280   -0.026057
      4          6           0        1.842691    0.104213    0.014992
      5          1           0       -2.707748    0.529827   -0.011135
      6          1           0       -2.008024   -1.216503    0.120059
      7          1           0       -0.480888    1.498778   -0.021825
      8          1           0        0.485041   -1.460604   -0.072990
      9          1           0        2.015701    1.161322    0.062073
     10          1           0        2.731604   -0.541330    0.031140
 ---------------------------------------------------------------------

 SCF Done:  E(RB2PLYPD3) =  -155.699747365     A.U. after   11 cycles
 E2(B2PLYPD3) =    -0.2259048689D+00 E(B2PLYPD3) =    -0.15592565223385D+03

 The electronic state is 1-A.
 Alpha  occ. eigenvalues --  -10.62872 -10.62391 -10.62002 -10.61450  -0.92759
 Alpha  occ. eigenvalues --   -0.84834  -0.69814  -0.64017  -0.54309  -0.53808
 Alpha  occ. eigenvalues --   -0.46608  -0.45597  -0.41016  -0.37948  -0.27741
 Alpha virt. eigenvalues --    0.01780   0.06980   0.07380   0.08016   0.09493
 Alpha virt. eigenvalues --    0.11677   0.12324   0.14655   0.15847   0.16093
 Alpha virt. eigenvalues --    0.18806   0.20492   0.21435   0.22766   0.23763

 Mulliken charges:
               1
     1  C   -0.174619
     2  C   -0.040732
     3  C   -0.025849
     4  C   -0.175390
     5  H    0.085767
     6  H    0.069625
     7  H    0.056631
     8  H    0.056478
     9  H    0.064515
    10  H    0.083575
 Sum of Mulliken charges =   0.00000

 Dipole moment (field-independent basis, Debye):
    X=             -0.0033    Y=              0.0159    Z=              0.0757  Tot=              0.0774
 Quadrupole moment (field-independent basis, Debye-Ang):
   XX=            -23.5854   YY=            -23.0380   ZZ=            -29.3278
   XY=              0.1274   XZ=             -0.0133   YZ=             -0.0511

 1\1\GINC-NODE19\SP\RB2PLYPD3-FC\def2QZVP\C4H6\BOITTIER\26-Aug-2020\0\\
 #p B2PLYPD3/Def2QZVP\\butadiene\\0,1\C,0,-3.843187,0.23488,0.005892\C,
 0,-2.729626,-0.513544,0.051627\C,0,-1.382051,0.062332,0.037674\C,0,-0.
 256605,-0.646022,0.015178\H,0,-4.809967,-0.253243,0.045952\H,0,-3.8109
 28,1.335374,-0.140356\H,0,-2.791241,-1.602489,0.092503\H,0,-1.31353,1.
 137605,0.049683\H,0,-0.274801,-1.718003,0.002723\H,0,0.732995,-0.16999
 6,-0.020096\\Version=ES64L-G09RevD.01\State=1-A\HF=-155.6997474\MP2=-1
 55.9256522\RMSD=5.156e-09\PG=C01 [X(C4H6)]\\@

 Normal termination of Gaussian 09 at Wed Aug 26 16:30:54 2020.
