 Gaussian 09, Revision D.01,
 Gaussian 09:  ES64L-G09RevD.01 24-Apr-2013

 --------------------
 #p B2PLYPD3/Def2QZVP
 --------------------

 ---------
 butadiene
 ---------
 Symbolic Z-matrix:
 Charge =  0 Multiplicity = 1

                         Standard orientation:
 ---------------------------------------------------------------------
 Center     Atomic      Atomic             Coordinates (Angstroms)
 Number     Number       Type             X           Y           Z
 ---------------------------------------------------------------------
      1          6           0        1.829852   -0.164570    0.042906
      2          6           0        0.613168    0.488423   -0.023255
      3          6           0       -0.570450   -0.377533   -0.078376
      4          6           0       -1.849304    0.065903    0.074221
      5          1           0        2.722331    0.437460   -0.120871
      6          1           0        1.966819   -1.204352    0.244419
      7          1           0        0.517487    1.522194   -0.089811
      8          1           0       -0.467259   -1.444366   -0.158879
      9          1           0       -2.046237    1.155001    0.103555
     10          1           0       -2.832730   -0.539272   -0.071390
 ---------------------------------------------------------------------

 SCF Done:  E(RB2PLYPD3) =  -155.681042172     A.U. after   12 cycles
 E2(B2PLYPD3) =    -0.2282430786D+00 E(B2PLYPD3) =    -0.15590928525068D+03

 The electronic state is 1-A.
 Alpha  occ. eigenvalues --  -10.63375 -10.62982 -10.62644 -10.62361  -0.92365
 Alpha  occ. eigenvalues --   -0.83709  -0.69683  -0.64954  -0.54091  -0.53183
 Alpha  occ. eigenvalues --   -0.47178  -0.44760  -0.41296  -0.37063  -0.26994
 Alpha virt. eigenvalues --    0.00877   0.06938   0.07467   0.07870   0.08744
 Alpha virt. eigenvalues --    0.11574   0.12347   0.14391   0.15881   0.16322
 Alpha virt. eigenvalues --    0.18922   0.20196   0.21248   0.22383   0.23420

 Mulliken charges:
               1
     1  C   -0.175395
     2  C   -0.053824
     3  C   -0.038714
     4  C   -0.165394
     5  H    0.076918
     6  H    0.083653
     7  H    0.082163
     8  H    0.067494
     9  H    0.050555
    10  H    0.072543
 Sum of Mulliken charges =   0.00000

 Dipole moment (field-independent basis, Debye):
    X=              0.1498    Y=              0.0255    Z=             -0.1578  Tot=              0.2191
 Quadrupole moment (field-independent basis, Debye-Ang):
   XX=            -23.8064   YY=            -23.0101   ZZ=            -29.5080
   XY=             -0.2974   XZ=              0.1733   YZ=             -0.1996

 1\1\GINC-NODE28\SP\RB2PLYPD3-FC\def2QZVP\C4H6\BOITTIER\26-Aug-2020\0\\
 #p B2PLYPD3/Def2QZVP\\butadiene\\0,1\C,0,-3.818947,0.277028,0.061877\C
 ,0,-2.739757,-0.584973,0.003568\C,0,-1.419673,0.053146,-0.060069\C,0,-
 0.24133,-0.611581,0.098153\H,0,-4.805421,-0.156241,-0.096015\H,0,-3.76
 6263,1.326578,0.252097\H,0,-2.8318,-1.619734,-0.051796\H,0,-1.329254,1
 .120205,-0.152117\H,0,-0.243611,-1.717961,0.139338\H,0,0.834777,-0.194
 902,-0.053297\\Version=ES64L-G09RevD.01\State=1-A\HF=-155.6810422\MP2=
 -155.9092853\RMSD=5.374e-09\PG=C01 [X(C4H6)]\\@

 Normal termination of Gaussian 09 at Wed Aug 26 11:52:28 2020.
