 Gaussian 09, Revision D.01,
 Gaussian 09:  ES64L-G09RevD.01 24-Apr-2013

 --------------------
 #p B2PLYPD3/Def2QZVP
 --------------------

 ---------
 butadiene
 ---------
 Symbolic Z-matrix:
 Charge =  0 Multiplicity = 1

                         Standard orientation:
 ---------------------------------------------------------------------
 Center     Atomic      Atomic             Coordinates (Angstroms)
 Number     Number       Type             X           Y           Z
 ---------------------------------------------------------------------
      1          6           0        1.865115    0.101354   -0.072775
      2          6           0        0.618147   -0.320362    0.059283
      3          6           0       -0.629046    0.403166    0.023485
      4          6           0       -1.836939   -0.133303   -0.037898
      5          1           0        2.582393   -0.738859   -0.057154
      6          1           0        2.138051    1.098073    0.005699
      7          1           0        0.436453   -1.395765    0.279109
      8          1           0       -0.604749    1.538108    0.126079
      9          1           0       -1.898959   -1.186469   -0.184517
     10          1           0       -2.756854    0.379781   -0.001784
 ---------------------------------------------------------------------

 SCF Done:  E(RB2PLYPD3) =  -155.686785611     A.U. after   11 cycles
 E2(B2PLYPD3) =    -0.2257225084D+00 E(B2PLYPD3) =    -0.15591250811951D+03

 The electronic state is 1-A.
 Alpha  occ. eigenvalues --  -10.62768 -10.62590 -10.61237 -10.61040  -0.93238
 Alpha  occ. eigenvalues --   -0.85713  -0.70814  -0.63258  -0.54868  -0.54535
 Alpha  occ. eigenvalues --   -0.47390  -0.45504  -0.40628  -0.37388  -0.28089
 Alpha virt. eigenvalues --    0.01529   0.06927   0.07423   0.07923   0.09941
 Alpha virt. eigenvalues --    0.11589   0.12395   0.14758   0.15442   0.16420
 Alpha virt. eigenvalues --    0.18956   0.20111   0.21199   0.22079   0.24053

 Mulliken charges:
               1
     1  C   -0.180332
     2  C   -0.029473
     3  C   -0.020273
     4  C   -0.171745
     5  H    0.082155
     6  H    0.084747
     7  H    0.045974
     8  H    0.038841
     9  H    0.058283
    10  H    0.091824
 Sum of Mulliken charges =   0.00000

 Dipole moment (field-independent basis, Debye):
    X=             -0.1212    Y=              0.0020    Z=              0.1858  Tot=              0.2218
 Quadrupole moment (field-independent basis, Debye-Ang):
   XX=            -23.3838   YY=            -23.4194   ZZ=            -29.0478
   XY=              0.0884   XZ=              0.2316   YZ=              0.1252

 1\1\GINC-NODE38\SP\RB2PLYPD3-FC\def2QZVP\C4H6\BOITTIER\26-Aug-2020\0\\
 #p B2PLYPD3/Def2QZVP\\butadiene\\0,1\C,0,-3.869928,0.206608,0.082015\C
 ,0,-2.71571,-0.430908,-0.025545\C,0,-1.361719,0.066021,-0.019581\C,0,-
 0.264985,-0.668468,0.07137\H,0,-4.722207,-0.496133,0.103597\H,0,-3.966
 107,1.230744,-0.044459\H,0,-2.724452,-1.530678,-0.193638\H,0,-1.189161
 ,1.181829,-0.175803\H,0,-0.385992,-1.708305,0.267835\H,0,0.729836,-0.3
 25135,0.014294\\Version=ES64L-G09RevD.01\State=1-A\HF=-155.6867856\MP2
 =-155.9125081\RMSD=4.789e-09\PG=C01 [X(C4H6)]\\@

 Normal termination of Gaussian 09 at Wed Aug 26 11:42:30 2020.
