 Gaussian 09, Revision D.01,
 Gaussian 09:  ES64L-G09RevD.01 24-Apr-2013

 --------------------
 #p B2PLYPD3/Def2QZVP
 --------------------

 ---------
 butadiene
 ---------
 Symbolic Z-matrix:
 Charge =  0 Multiplicity = 1

                         Standard orientation:
 ---------------------------------------------------------------------
 Center     Atomic      Atomic             Coordinates (Angstroms)
 Number     Number       Type             X           Y           Z
 ---------------------------------------------------------------------
      1          6           0        1.835003    0.078112   -0.014041
      2          6           0        0.618264   -0.375579   -0.013196
      3          6           0       -0.598799    0.481162    0.028070
      4          6           0       -1.819171   -0.168004   -0.068233
      5          1           0        2.699882   -0.623477    0.056750
      6          1           0        1.986449    1.118761   -0.170096
      7          1           0        0.330194   -1.437287    0.265501
      8          1           0       -0.518213    1.622247    0.178641
      9          1           0       -1.982668   -1.218824   -0.067215
     10          1           0       -2.727426    0.444430    0.140816
 ---------------------------------------------------------------------

 SCF Done:  E(RB2PLYPD3) =  -155.678947058     A.U. after   12 cycles
 E2(B2PLYPD3) =    -0.2276808089D+00 E(B2PLYPD3) =    -0.15590662786693D+03

 The electronic state is 1-A.
 Alpha  occ. eigenvalues --  -10.64400 -10.62623 -10.62374 -10.61130  -0.92516
 Alpha  occ. eigenvalues --   -0.84496  -0.69296  -0.63215  -0.53945  -0.53327
 Alpha  occ. eigenvalues --   -0.46717  -0.45172  -0.40173  -0.37323  -0.27849
 Alpha virt. eigenvalues --    0.01675   0.06846   0.07098   0.07797   0.08932
 Alpha virt. eigenvalues --    0.11665   0.12228   0.14667   0.15122   0.16156
 Alpha virt. eigenvalues --    0.18703   0.19457   0.21344   0.23308   0.23531

 Mulliken charges:
               1
     1  C   -0.184754
     2  C   -0.006747
     3  C   -0.056824
     4  C   -0.173468
     5  H    0.086897
     6  H    0.072693
     7  H    0.055808
     8  H    0.061808
     9  H    0.073335
    10  H    0.071253
 Sum of Mulliken charges =   0.00000

 Dipole moment (field-independent basis, Debye):
    X=              0.0254    Y=              0.0146    Z=              0.3506  Tot=              0.3518
 Quadrupole moment (field-independent basis, Debye-Ang):
   XX=            -24.1209   YY=            -23.0040   ZZ=            -29.3622
   XY=              0.5222   XZ=             -0.4559   YZ=             -0.1363

 1\1\GINC-NODE19\SP\RB2PLYPD3-FC\def2QZVP\C4H6\BOITTIER\26-Aug-2020\0\\
 #p B2PLYPD3/Def2QZVP\\butadiene\\0,1\C,0,-3.839307,0.192269,0.03319\C,
 0,-2.724553,-0.473748,0.039275\C,0,-1.373085,0.14782,-0.025043\C,0,-0.
 289391,-0.708925,0.082628\H,0,-4.817146,-0.342852,-0.019069\H,0,-3.799
 226,1.246329,0.165816\H,0,-2.634913,-1.575904,-0.215866\H,0,-1.247296,
 1.281087,-0.201461\H,0,-0.318382,-1.771754,0.105196\H,0,0.713069,-0.27
 5464,-0.142961\\Version=ES64L-G09RevD.01\State=1-A\HF=-155.6789471\MP2
 =-155.9066279\RMSD=3.475e-09\PG=C01 [X(C4H6)]\\@

 Normal termination of Gaussian 09 at Wed Aug 26 13:13:35 2020.
