 Gaussian 09, Revision D.01,
 Gaussian 09:  ES64L-G09RevD.01 24-Apr-2013

 --------------------
 #p B2PLYPD3/Def2QZVP
 --------------------

 ---------
 butadiene
 ---------
 Symbolic Z-matrix:
 Charge =  0 Multiplicity = 1

                         Standard orientation:
 ---------------------------------------------------------------------
 Center     Atomic      Atomic             Coordinates (Angstroms)
 Number     Number       Type             X           Y           Z
 ---------------------------------------------------------------------
      1          6           0        1.856703    0.091308   -0.033718
      2          6           0        0.606860   -0.358986    0.045000
      3          6           0       -0.629198    0.410667    0.032757
      4          6           0       -1.837540   -0.136809   -0.023033
      5          1           0        2.730504   -0.561313   -0.064874
      6          1           0        2.000084    1.144382    0.049449
      7          1           0        0.467554   -1.416912   -0.010815
      8          1           0       -0.490033    1.475114   -0.046378
      9          1           0       -1.990560   -1.228158   -0.002943
     10          1           0       -2.698501    0.549806   -0.050475
 ---------------------------------------------------------------------

 SCF Done:  E(RB2PLYPD3) =  -155.697375594     A.U. after   11 cycles
 E2(B2PLYPD3) =    -0.2256107618D+00 E(B2PLYPD3) =    -0.15592298635547D+03

 The electronic state is 1-A.
 Alpha  occ. eigenvalues --  -10.62445 -10.62051 -10.62040 -10.61303  -0.93101
 Alpha  occ. eigenvalues --   -0.85171  -0.70056  -0.64140  -0.54288  -0.54097
 Alpha  occ. eigenvalues --   -0.47189  -0.45405  -0.40733  -0.38156  -0.27925
 Alpha virt. eigenvalues --    0.01738   0.06962   0.07497   0.08030   0.09727
 Alpha virt. eigenvalues --    0.11761   0.12314   0.14724   0.15694   0.15969
 Alpha virt. eigenvalues --    0.18776   0.20062   0.21450   0.23147   0.24017

 Mulliken charges:
               1
     1  C   -0.181511
     2  C   -0.018889
     3  C   -0.038795
     4  C   -0.173287
     5  H    0.088966
     6  H    0.061558
     7  H    0.048373
     8  H    0.054794
     9  H    0.073596
    10  H    0.085195
 Sum of Mulliken charges =   0.00000

 Dipole moment (field-independent basis, Debye):
    X=             -0.0521    Y=             -0.0015    Z=             -0.0521  Tot=              0.0737
 Quadrupole moment (field-independent basis, Debye-Ang):
   XX=            -23.5520   YY=            -23.1554   ZZ=            -29.2255
   XY=              0.0000   XZ=              0.0661   YZ=              0.0433

 1\1\GINC-NODE08\SP\RB2PLYPD3-FC\def2QZVP\C4H6\BOITTIER\26-Aug-2020\0\\
 #p B2PLYPD3/Def2QZVP\\butadiene\\0,1\C,0,-3.864461,0.202712,0.05362\C,
 0,-2.713774,-0.463146,-0.006568\C,0,-1.361445,0.076696,-0.018118\C,0,-
 0.268213,-0.672816,0.05939\H,0,-4.83942,-0.284314,0.105329\H,0,-3.8204
 44,1.261071,-0.066288\H,0,-2.762761,-1.526504,0.086163\H,0,-1.310655,1
 .151098,0.023795\H,0,-0.309877,-1.774088,0.07745\H,0,0.700318,-0.14806
 6,0.065037\\Version=ES64L-G09RevD.01\State=1-A\HF=-155.6973756\MP2=-15
 5.9229864\RMSD=4.819e-09\PG=C01 [X(C4H6)]\\@

 Normal termination of Gaussian 09 at Wed Aug 26 10:17:19 2020.
