 Gaussian 09, Revision D.01,
 Gaussian 09:  ES64L-G09RevD.01 24-Apr-2013

 --------------------
 #p B2PLYPD3/Def2QZVP
 --------------------

 ---------
 butadiene
 ---------
 Symbolic Z-matrix:
 Charge =  0 Multiplicity = 1

                         Standard orientation:
 ---------------------------------------------------------------------
 Center     Atomic      Atomic             Coordinates (Angstroms)
 Number     Number       Type             X           Y           Z
 ---------------------------------------------------------------------
      1          6           0        1.852192    0.093870    0.026748
      2          6           0        0.611316   -0.383509   -0.024175
      3          6           0       -0.610221    0.416988   -0.028245
      4          6           0       -1.841504   -0.122280    0.008192
      5          1           0        2.725516   -0.549831   -0.012319
      6          1           0        2.039478    1.169704    0.031859
      7          1           0        0.435645   -1.449750    0.008591
      8          1           0       -0.490779    1.481732   -0.026988
      9          1           0       -2.020908   -1.180263    0.022209
     10          1           0       -2.759653    0.497998    0.081531
 ---------------------------------------------------------------------

 SCF Done:  E(RB2PLYPD3) =  -155.699689306     A.U. after   11 cycles
 E2(B2PLYPD3) =    -0.2258684515D+00 E(B2PLYPD3) =    -0.15592555775799D+03

 The electronic state is 1-A.
 Alpha  occ. eigenvalues --  -10.62705 -10.62485 -10.61985 -10.61622  -0.92843
 Alpha  occ. eigenvalues --   -0.84775  -0.70129  -0.64306  -0.54554  -0.53665
 Alpha  occ. eigenvalues --   -0.47047  -0.45420  -0.40901  -0.38026  -0.27728
 Alpha virt. eigenvalues --    0.01625   0.06951   0.07453   0.08077   0.09552
 Alpha virt. eigenvalues --    0.11635   0.12440   0.14653   0.15792   0.16207
 Alpha virt. eigenvalues --    0.18884   0.20298   0.21761   0.22932   0.23520

 Mulliken charges:
               1
     1  C   -0.174031
     2  C   -0.029659
     3  C   -0.035564
     4  C   -0.171991
     5  H    0.086817
     6  H    0.062755
     7  H    0.055137
     8  H    0.059713
     9  H    0.066988
    10  H    0.079835
 Sum of Mulliken charges =   0.00000

 Dipole moment (field-independent basis, Debye):
    X=             -0.0330    Y=             -0.0104    Z=              0.0561  Tot=              0.0659
 Quadrupole moment (field-independent basis, Debye-Ang):
   XX=            -23.3273   YY=            -23.1951   ZZ=            -29.3111
   XY=              0.2715   XZ=             -0.2610   YZ=              0.0252

 1\1\GINC-NODE28\SP\RB2PLYPD3-FC\def2QZVP\C4H6\BOITTIER\26-Aug-2020\0\\
 #p B2PLYPD3/Def2QZVP\\butadiene\\0,1\C,0,-3.85613,0.20964,-0.006155\C,
 0,-2.721237,-0.481851,0.057984\C,0,-1.375527,0.085316,0.039222\C,0,-0.
 261674,-0.667722,0.017784\H,0,-4.830863,-0.264884,0.051235\H,0,-3.8466
 72,1.30105,-0.041595\H,0,-2.740592,-1.562786,0.055294\H,0,-1.301311,1.
 153708,0.007934\H,0,-0.275771,-1.74069,0.033601\H,0,0.752753,-0.225253
 ,-0.073211\\Version=ES64L-G09RevD.01\State=1-A\HF=-155.6996893\MP2=-15
 5.9255578\RMSD=5.191e-09\PG=C01 [X(C4H6)]\\@

 Normal termination of Gaussian 09 at Wed Aug 26 21:20:57 2020.
