 Gaussian 09, Revision D.01,
 Gaussian 09:  ES64L-G09RevD.01 24-Apr-2013

 --------------------
 #p B2PLYPD3/Def2QZVP
 --------------------

 ---------
 butadiene
 ---------
 Symbolic Z-matrix:
 Charge =  0 Multiplicity = 1

                         Standard orientation:
 ---------------------------------------------------------------------
 Center     Atomic      Atomic             Coordinates (Angstroms)
 Number     Number       Type             X           Y           Z
 ---------------------------------------------------------------------
      1          6           0        1.829060    0.109821    0.010526
      2          6           0        0.605051   -0.410059   -0.027570
      3          6           0       -0.590742    0.400267   -0.027729
      4          6           0       -1.834021   -0.107286    0.014856
      5          1           0        2.743385   -0.482999    0.061223
      6          1           0        1.924544    1.190292    0.059569
      7          1           0        0.492314   -1.476635   -0.030932
      8          1           0       -0.481302    1.476619   -0.010564
      9          1           0       -2.029399   -1.186451    0.071613
     10          1           0       -2.705625    0.522714    0.028591
 ---------------------------------------------------------------------

 SCF Done:  E(RB2PLYPD3) =  -155.700357866     A.U. after   11 cycles
 E2(B2PLYPD3) =    -0.2258275993D+00 E(B2PLYPD3) =    -0.15592618546516D+03

 The electronic state is 1-A.
 Alpha  occ. eigenvalues --  -10.62588 -10.62250 -10.61670 -10.61522  -0.93167
 Alpha  occ. eigenvalues --   -0.84797  -0.70016  -0.64306  -0.54670  -0.53932
 Alpha  occ. eigenvalues --   -0.46576  -0.45247  -0.41486  -0.38235  -0.27560
 Alpha virt. eigenvalues --    0.01707   0.07027   0.07418   0.08044   0.09564
 Alpha virt. eigenvalues --    0.11662   0.12520   0.14616   0.15913   0.16255
 Alpha virt. eigenvalues --    0.18758   0.20509   0.21612   0.22759   0.23833

 Mulliken charges:
               1
     1  C   -0.171333
     2  C   -0.027685
     3  C   -0.033303
     4  C   -0.176038
     5  H    0.086096
     6  H    0.060366
     7  H    0.058151
     8  H    0.056068
     9  H    0.063561
    10  H    0.084117
 Sum of Mulliken charges =   0.00000

 Dipole moment (field-independent basis, Debye):
    X=              0.0061    Y=             -0.0120    Z=              0.1281  Tot=              0.1288
 Quadrupole moment (field-independent basis, Debye-Ang):
   XX=            -23.4664   YY=            -23.1164   ZZ=            -29.2693
   XY=              0.0103   XZ=              0.0588   YZ=             -0.0077

 1\1\GINC-NODE15\SP\RB2PLYPD3-FC\def2QZVP\C4H6\BOITTIER\26-Aug-2020\0\\
 #p B2PLYPD3/Def2QZVP\\butadiene\\0,1\C,0,-3.830353,0.222541,0.003731\C
 ,0,-2.719838,-0.50788,0.060001\C,0,-1.397691,0.073512,0.038541\C,0,-0.
 266264,-0.650662,0.01384\H,0,-4.836635,-0.197188,-0.031213\H,0,-3.7298
 92,1.300596,-0.077785\H,0,-2.800975,-1.576741,0.095479\H,0,-1.311596,1
 .15098,-0.011018\H,0,-0.268573,-1.748572,-0.010219\H,0,0.70448,-0.1886
 04,-0.016823\\Version=ES64L-G09RevD.01\State=1-A\HF=-155.7003579\MP2=-
 155.9261855\RMSD=4.163e-09\PG=C01 [X(C4H6)]\\@

 Normal termination of Gaussian 09 at Wed Aug 26 21:46:37 2020.
