 Gaussian 09, Revision D.01,
 Gaussian 09:  ES64L-G09RevD.01 24-Apr-2013

 --------------------
 #p B2PLYPD3/Def2QZVP
 --------------------

 ---------
 butadiene
 ---------
 Symbolic Z-matrix:
 Charge =  0 Multiplicity = 1

                         Standard orientation:
 ---------------------------------------------------------------------
 Center     Atomic      Atomic             Coordinates (Angstroms)
 Number     Number       Type             X           Y           Z
 ---------------------------------------------------------------------
      1          6           0       -1.839850   -0.103341    0.009188
      2          6           0       -0.599891    0.389486   -0.013714
      3          6           0        0.605590   -0.410927   -0.035045
      4          6           0        1.831561    0.115909    0.006226
      5          1           0       -2.724853    0.520859    0.045264
      6          1           0       -2.001844   -1.146359    0.030785
      7          1           0       -0.425824    1.469982   -0.015761
      8          1           0        0.498859   -1.492692    0.025362
      9          1           0        1.942935    1.195969    0.045156
     10          1           0        2.726264   -0.494523    0.069269
 ---------------------------------------------------------------------

 SCF Done:  E(RB2PLYPD3) =  -155.700394223     A.U. after   11 cycles
 E2(B2PLYPD3) =    -0.2257081443D+00 E(B2PLYPD3) =    -0.15592610236730D+03

 The electronic state is 1-A.
 Alpha  occ. eigenvalues --  -10.62592 -10.62458 -10.61609 -10.61242  -0.93136
 Alpha  occ. eigenvalues --   -0.84945  -0.70245  -0.64110  -0.54739  -0.53941
 Alpha  occ. eigenvalues --   -0.46767  -0.45570  -0.41187  -0.38228  -0.27660
 Alpha virt. eigenvalues --    0.01700   0.07027   0.07408   0.08062   0.09612
 Alpha virt. eigenvalues --    0.11696   0.12559   0.14685   0.15783   0.16217
 Alpha virt. eigenvalues --    0.18763   0.20410   0.21784   0.23016   0.23697

 Mulliken charges:
               1
     1  C   -0.177083
     2  C   -0.027148
     3  C   -0.026620
     4  C   -0.175117
     5  H    0.086118
     6  H    0.066857
     7  H    0.050617
     8  H    0.053097
     9  H    0.062115
    10  H    0.087164
 Sum of Mulliken charges =   0.00000

 Dipole moment (field-independent basis, Debye):
    X=              0.0164    Y=             -0.0299    Z=              0.1523  Tot=              0.1561
 Quadrupole moment (field-independent basis, Debye-Ang):
   XX=            -23.4004   YY=            -23.1869   ZZ=            -29.2409
   XY=              0.1063   XZ=              0.1415   YZ=             -0.0574

 1\1\GINC-NODE25\SP\RB2PLYPD3-FC\def2QZVP\C4H6\BOITTIER\26-Aug-2020\0\\
 #p B2PLYPD3/Def2QZVP\\butadiene\\0,1\C,0,-3.843417,0.216367,0.006867\C
 ,0,-2.712233,-0.490538,0.046985\C,0,-1.382345,0.080147,0.043024\C,0,-0
 .271364,-0.65976,0.020109\H,0,-4.826438,-0.239223,-0.009429\H,0,-3.815
 259,1.27025,-0.049115\H,0,-2.735357,-1.584073,0.084668\H,0,-1.293053,1
 .160918,-0.052973\H,0,-0.356288,-1.742916,0.016771\H,0,0.718217,-0.222
 668,-0.0622\\Version=ES64L-G09RevD.01\State=1-A\HF=-155.7003942\MP2=-1
 55.9261024\RMSD=2.908e-09\PG=C01 [X(C4H6)]\\@

 Normal termination of Gaussian 09 at Wed Aug 26 20:11:13 2020.
