 Gaussian 09, Revision D.01,
 Gaussian 09:  ES64L-G09RevD.01 24-Apr-2013

 --------------------
 #p B2PLYPD3/Def2QZVP
 --------------------

 ---------
 butadiene
 ---------
 Symbolic Z-matrix:
 Charge =  0 Multiplicity = 1

                         Standard orientation:
 ---------------------------------------------------------------------
 Center     Atomic      Atomic             Coordinates (Angstroms)
 Number     Number       Type             X           Y           Z
 ---------------------------------------------------------------------
      1          6           0        1.831231   -0.122239    0.019922
      2          6           0        0.604421    0.418743   -0.018107
      3          6           0       -0.600422   -0.396532   -0.010838
      4          6           0       -1.838699    0.100422    0.013504
      5          1           0        2.702964    0.510394   -0.021984
      6          1           0        1.940829   -1.210979    0.022252
      7          1           0        0.518173    1.505582   -0.051319
      8          1           0       -0.442730   -1.462562    0.000167
      9          1           0       -1.999347    1.165258    0.091982
     10          1           0       -2.699078   -0.510053   -0.067987
 ---------------------------------------------------------------------

 SCF Done:  E(RB2PLYPD3) =  -155.700055256     A.U. after   11 cycles
 E2(B2PLYPD3) =    -0.2257605651D+00 E(B2PLYPD3) =    -0.15592581582098D+03

 The electronic state is 1-A.
 Alpha  occ. eigenvalues --  -10.62591 -10.62432 -10.61622 -10.61149  -0.92979
 Alpha  occ. eigenvalues --   -0.84897  -0.70084  -0.64131  -0.54668  -0.54045
 Alpha  occ. eigenvalues --   -0.46466  -0.45693  -0.41542  -0.37996  -0.27571
 Alpha virt. eigenvalues --    0.01739   0.07057   0.07393   0.08088   0.09487
 Alpha virt. eigenvalues --    0.11726   0.12479   0.14658   0.15838   0.16184
 Alpha virt. eigenvalues --    0.18760   0.20438   0.21536   0.22942   0.23988

 Mulliken charges:
               1
     1  C   -0.177644
     2  C   -0.030176
     3  C   -0.030572
     4  C   -0.177472
     5  H    0.087244
     6  H    0.065087
     7  H    0.054861
     8  H    0.055839
     9  H    0.064922
    10  H    0.087910
 Sum of Mulliken charges =   0.00000

 Dipole moment (field-independent basis, Debye):
    X=              0.0038    Y=              0.0147    Z=             -0.0462  Tot=              0.0486
 Quadrupole moment (field-independent basis, Debye-Ang):
   XX=            -23.6041   YY=            -23.0203   ZZ=            -29.2664
   XY=             -0.0166   XZ=             -0.0269   YZ=              0.0531

 1\1\GINC-NODE04\SP\RB2PLYPD3-FC\def2QZVP\C4H6\BOITTIER\26-Aug-2020\0\\
 #p B2PLYPD3/Def2QZVP\\butadiene\\0,1\C,0,-3.831809,0.234582,0.036088\C
 ,0,-2.722228,-0.518838,0.01717\C,0,-1.390542,0.066629,0.002529\C,0,-0.
 261573,-0.643681,0.044649\H,0,-4.803113,-0.232168,0.011342\H,0,-3.7440
 92,1.324871,0.005297\H,0,-2.832673,-1.603994,0.016982\H,0,-1.354187,1.
 143486,-0.019013\H,0,-0.294518,-1.717201,0.155604\H,0,0.694186,-0.2003
 95,-0.053302\\Version=ES64L-G09RevD.01\State=1-A\HF=-155.7000553\MP2=-
 155.9258158\RMSD=4.171e-09\PG=C01 [X(C4H6)]\\@

 Normal termination of Gaussian 09 at Wed Aug 26 19:55:09 2020.
