 Gaussian 09, Revision D.01,
 Gaussian 09:  ES64L-G09RevD.01 24-Apr-2013

 --------------------
 #p B2PLYPD3/Def2QZVP
 --------------------

 ---------
 butadiene
 ---------
 Symbolic Z-matrix:
 Charge =  0 Multiplicity = 1

                         Standard orientation:
 ---------------------------------------------------------------------
 Center     Atomic      Atomic             Coordinates (Angstroms)
 Number     Number       Type             X           Y           Z
 ---------------------------------------------------------------------
      1          6           0       -1.836648    0.089704    0.021419
      2          6           0       -0.596491   -0.390246   -0.012063
      3          6           0        0.602668    0.422085   -0.030967
      4          6           0        1.837446   -0.117903    0.015102
      5          1           0       -2.748053   -0.515656   -0.025243
      6          1           0       -2.024117    1.167034    0.061239
      7          1           0       -0.435800   -1.467366   -0.069622
      8          1           0        0.444144    1.485142   -0.015214
      9          1           0        1.979508   -1.188157    0.093999
     10          1           0        2.742469    0.497170   -0.006097
 ---------------------------------------------------------------------

 SCF Done:  E(RB2PLYPD3) =  -155.699591055     A.U. after   11 cycles
 E2(B2PLYPD3) =    -0.2261076645D+00 E(B2PLYPD3) =    -0.15592569871977D+03

 The electronic state is 1-A.
 Alpha  occ. eigenvalues --  -10.62699 -10.62471 -10.61967 -10.61690  -0.93031
 Alpha  occ. eigenvalues --   -0.84616  -0.70135  -0.64226  -0.54674  -0.53523
 Alpha  occ. eigenvalues --   -0.46926  -0.45329  -0.41030  -0.38137  -0.27577
 Alpha virt. eigenvalues --    0.01576   0.06999   0.07369   0.08077   0.09508
 Alpha virt. eigenvalues --    0.11638   0.12497   0.14624   0.15798   0.16207
 Alpha virt. eigenvalues --    0.18820   0.20455   0.21755   0.22800   0.23485

 Mulliken charges:
               1
     1  C   -0.173709
     2  C   -0.022939
     3  C   -0.037020
     4  C   -0.173958
     5  H    0.084441
     6  H    0.057638
     7  H    0.053364
     8  H    0.059727
     9  H    0.067687
    10  H    0.084769
 Sum of Mulliken charges =   0.00000

 Dipole moment (field-independent basis, Debye):
    X=              0.0133    Y=              0.0111    Z=              0.0085  Tot=              0.0193
 Quadrupole moment (field-independent basis, Debye-Ang):
   XX=            -23.3329   YY=            -23.2329   ZZ=            -29.3149
   XY=             -0.2626   XZ=              0.1711   YZ=              0.0365

 1\1\GINC-NODE30\SP\RB2PLYPD3-FC\def2QZVP\C4H6\BOITTIER\26-Aug-2020\0\\
 #p B2PLYPD3/Def2QZVP\\butadiene\\0,1\C,0,-3.842258,0.209872,0.038555\C
 ,0,-2.711002,-0.489729,0.021725\C,0,-1.383423,0.088534,-0.015242\C,0,-
 0.268298,-0.666945,0.049041\H,0,-4.849177,-0.219435,0.005321\H,0,-3.82
 9236,1.303989,0.048954\H,0,-2.750345,-1.579214,-0.006494\H,0,-1.344604
 ,1.162679,-0.02843\H,0,-0.324439,-1.742606,0.156987\H,0,0.733998,-0.22
 8748,0.014159\\Version=ES64L-G09RevD.01\State=1-A\HF=-155.6995911\MP2=
 -155.9256987\RMSD=5.712e-09\PG=C01 [X(C4H6)]\\@

 Normal termination of Gaussian 09 at Wed Aug 26 19:11:31 2020.
