 Gaussian 09, Revision D.01,
 Gaussian 09:  ES64L-G09RevD.01 24-Apr-2013

 --------------------
 #p B2PLYPD3/Def2QZVP
 --------------------

 ---------
 butadiene
 ---------
 Symbolic Z-matrix:
 Charge =  0 Multiplicity = 1

                         Standard orientation:
 ---------------------------------------------------------------------
 Center     Atomic      Atomic             Coordinates (Angstroms)
 Number     Number       Type             X           Y           Z
 ---------------------------------------------------------------------
      1          6           0        1.832421   -0.124340   -0.022899
      2          6           0        0.602934    0.418488   -0.003690
      3          6           0       -0.607169   -0.392013    0.017165
      4          6           0       -1.834598    0.106786   -0.013506
      5          1           0        2.725427    0.490808    0.045837
      6          1           0        1.941401   -1.212036   -0.013224
      7          1           0        0.508313    1.510718    0.082800
      8          1           0       -0.451025   -1.452819    0.054619
      9          1           0       -1.983748    1.170107   -0.035387
     10          1           0       -2.701901   -0.560305    0.002936
 ---------------------------------------------------------------------

 SCF Done:  E(RB2PLYPD3) =  -155.699998433     A.U. after   11 cycles
 E2(B2PLYPD3) =    -0.2258371872D+00 E(B2PLYPD3) =    -0.15592583562004D+03

 The electronic state is 1-A.
 Alpha  occ. eigenvalues --  -10.62757 -10.62223 -10.61763 -10.61353  -0.93016
 Alpha  occ. eigenvalues --   -0.84887  -0.69774  -0.64091  -0.54236  -0.54093
 Alpha  occ. eigenvalues --   -0.46489  -0.45584  -0.41292  -0.38053  -0.27702
 Alpha virt. eigenvalues --    0.01840   0.07029   0.07361   0.08015   0.09513
 Alpha virt. eigenvalues --    0.11739   0.12400   0.14636   0.15811   0.16080
 Alpha virt. eigenvalues --    0.18717   0.20415   0.21385   0.22975   0.24025

 Mulliken charges:
               1
     1  C   -0.177614
     2  C   -0.031237
     3  C   -0.028027
     4  C   -0.176638
     5  H    0.086424
     6  H    0.063421
     7  H    0.053569
     8  H    0.055346
     9  H    0.069035
    10  H    0.085721
 Sum of Mulliken charges =   0.00000

 Dipole moment (field-independent basis, Debye):
    X=              0.0080    Y=             -0.0006    Z=              0.1356  Tot=              0.1358
 Quadrupole moment (field-independent basis, Debye-Ang):
   XX=            -23.7031   YY=            -23.0155   ZZ=            -29.2943
   XY=             -0.0125   XZ=              0.2217   YZ=              0.0465

 1\1\GINC-NODE22\SP\RB2PLYPD3-FC\def2QZVP\C4H6\BOITTIER\26-Aug-2020\0\\
 #p B2PLYPD3/Def2QZVP\\butadiene\\0,1\C,0,-3.83383,0.233509,0.000636\C,
 0,-2.720413,-0.518544,0.037898\C,0,-1.38534,0.063902,0.032021\C,0,-0.2
 66406,-0.646108,0.017974\H,0,-4.821599,-0.210321,0.089616\H,0,-3.74754
 2,1.322965,-0.025696\H,0,-2.821078,-1.606771,0.160491\H,0,-1.350085,1.
 13621,0.034339\H,0,-0.3089,-1.719137,0.031304\H,0,0.705804,-0.143842,0
 .012404\\Version=ES64L-G09RevD.01\State=1-A\HF=-155.6999984\MP2=-155.9
 258356\RMSD=5.043e-09\PG=C01 [X(C4H6)]\\@

 Normal termination of Gaussian 09 at Wed Aug 26 08:38:26 2020.
