 Gaussian 09, Revision D.01,
 Gaussian 09:  ES64L-G09RevD.01 24-Apr-2013

 --------------------
 #p B2PLYPD3/Def2QZVP
 --------------------

 ---------
 butadiene
 ---------
 Symbolic Z-matrix:
 Charge =  0 Multiplicity = 1

                         Standard orientation:
 ---------------------------------------------------------------------
 Center     Atomic      Atomic             Coordinates (Angstroms)
 Number     Number       Type             X           Y           Z
 ---------------------------------------------------------------------
      1          6           0        1.832962   -0.121122   -0.029416
      2          6           0        0.607899    0.414552    0.017570
      3          6           0       -0.601234   -0.386364    0.020073
      4          6           0       -1.839361    0.093912   -0.015276
      5          1           0        2.734868    0.497169    0.007540
      6          1           0        1.966923   -1.212122   -0.004213
      7          1           0        0.480726    1.498304    0.032952
      8          1           0       -0.480467   -1.450958    0.067980
      9          1           0       -1.984207    1.182352   -0.001051
     10          1           0       -2.719436   -0.520609   -0.060914
 ---------------------------------------------------------------------

 SCF Done:  E(RB2PLYPD3) =  -155.700153207     A.U. after   11 cycles
 E2(B2PLYPD3) =    -0.2257973126D+00 E(B2PLYPD3) =    -0.15592595051923D+03

 The electronic state is 1-A.
 Alpha  occ. eigenvalues --  -10.62707 -10.62197 -10.61929 -10.61432  -0.93097
 Alpha  occ. eigenvalues --   -0.84907  -0.69945  -0.64063  -0.54669  -0.53783
 Alpha  occ. eigenvalues --   -0.46864  -0.45130  -0.41210  -0.38161  -0.27728
 Alpha virt. eigenvalues --    0.01756   0.07014   0.07372   0.08040   0.09634
 Alpha virt. eigenvalues --    0.11666   0.12477   0.14559   0.15832   0.16235
 Alpha virt. eigenvalues --    0.18771   0.20345   0.21583   0.22772   0.23850

 Mulliken charges:
               1
     1  C   -0.170855
     2  C   -0.034954
     3  C   -0.023485
     4  C   -0.176121
     5  H    0.085049
     6  H    0.064796
     7  H    0.054821
     8  H    0.053413
     9  H    0.058210
    10  H    0.089126
 Sum of Mulliken charges =   0.00000

 Dipole moment (field-independent basis, Debye):
    X=              0.0104    Y=             -0.0146    Z=              0.0660  Tot=              0.0684
 Quadrupole moment (field-independent basis, Debye-Ang):
   XX=            -23.4504   YY=            -23.1637   ZZ=            -29.2803
   XY=              0.0133   XZ=              0.1947   YZ=              0.0104

 1\1\GINC-NODE27\SP\RB2PLYPD3-FC\def2QZVP\C4H6\BOITTIER\26-Aug-2020\0\\
 #p B2PLYPD3/Def2QZVP\\butadiene\\0,1\C,0,-3.833687,0.231561,-0.007645\
 C,0,-2.724146,-0.513328,0.055534\C,0,-1.391125,0.057719,0.034598\C,0,-
 0.259226,-0.63744,0.013837\H,0,-4.831545,-0.213786,0.047397\H,0,-3.769
 961,1.329172,-0.01485\H,0,-2.793047,-1.601408,0.103089\H,0,-1.319033,1
 .127662,0.050873\H,0,-0.311586,-1.733331,0.06038\H,0,0.716435,-0.19214
 3,-0.049776\\Version=ES64L-G09RevD.01\State=1-A\HF=-155.7001532\MP2=-1
 55.9259505\RMSD=5.232e-09\PG=C01 [X(C4H6)]\\@

 Normal termination of Gaussian 09 at Wed Aug 26 21:13:10 2020.
