 Gaussian 09, Revision D.01,
 Gaussian 09:  ES64L-G09RevD.01 24-Apr-2013

 --------------------
 #p B2PLYPD3/Def2QZVP
 --------------------

 ---------
 butadiene
 ---------
 Symbolic Z-matrix:
 Charge =  0 Multiplicity = 1

                         Standard orientation:
 ---------------------------------------------------------------------
 Center     Atomic      Atomic             Coordinates (Angstroms)
 Number     Number       Type             X           Y           Z
 ---------------------------------------------------------------------
      1          6           0       -1.809160   -0.093928   -0.041615
      2          6           0       -0.605551    0.382937    0.060874
      3          6           0        0.606925   -0.445460    0.029209
      4          6           0        1.827466    0.123429   -0.021622
      5          1           0       -2.716353    0.513562   -0.139539
      6          1           0       -1.985046   -1.222374    0.182016
      7          1           0       -0.579774    1.521765   -0.031225
      8          1           0        0.484835   -1.459054   -0.157809
      9          1           0        1.889208    1.284509    0.020752
     10          1           0        2.789053   -0.440271   -0.035271
 ---------------------------------------------------------------------

 SCF Done:  E(RB2PLYPD3) =  -155.679313960     A.U. after   11 cycles
 E2(B2PLYPD3) =    -0.2269382703D+00 E(B2PLYPD3) =    -0.15590625223039D+03

 The electronic state is 1-A.
 Alpha  occ. eigenvalues --  -10.63014 -10.62709 -10.62639 -10.61739  -0.93133
 Alpha  occ. eigenvalues --   -0.84935  -0.68831  -0.63355  -0.54408  -0.53252
 Alpha  occ. eigenvalues --   -0.46706  -0.43748  -0.40465  -0.38153  -0.28008
 Alpha virt. eigenvalues --    0.01995   0.06946   0.07216   0.07748   0.08952
 Alpha virt. eigenvalues --    0.11651   0.12340   0.14045   0.15348   0.16451
 Alpha virt. eigenvalues --    0.18695   0.19345   0.21224   0.22979   0.24147

 Mulliken charges:
               1
     1  C   -0.166017
     2  C   -0.017689
     3  C   -0.052835
     4  C   -0.162236
     5  H    0.081129
     6  H    0.050385
     7  H    0.047391
     8  H    0.075303
     9  H    0.058627
    10  H    0.085940
 Sum of Mulliken charges =   0.00000

 Dipole moment (field-independent basis, Debye):
    X=              0.0085    Y=             -0.0008    Z=             -0.0938  Tot=              0.0942
 Quadrupole moment (field-independent basis, Debye-Ang):
   XX=            -23.5892   YY=            -23.3501   ZZ=            -29.3215
   XY=             -0.3718   XZ=             -0.0594   YZ=             -0.1021

 1\1\GINC-NODE35\SP\RB2PLYPD3-FC\def2QZVP\C4H6\BOITTIER\26-Aug-2020\0\\
 #p B2PLYPD3/Def2QZVP\\butadiene\\0,1\C,0,-3.819778,0.193122,0.061519\C
 ,0,-2.718728,-0.490814,-0.019086\C,0,-1.379777,0.112961,-0.016097\C,0,
 -0.277558,-0.65856,0.060109\H,0,-4.818953,-0.241812,0.18033\H,0,-3.796
 185,1.325452,-0.20608\H,0,-2.892456,-1.612134,0.117061\H,0,-1.321684,1
 .138715,0.131237\H,0,-0.420316,-1.813258,0.062846\H,0,0.767948,-0.2719
 32,0.054633\\Version=ES64L-G09RevD.01\State=1-A\HF=-155.679314\MP2=-15
 5.9062522\RMSD=8.849e-09\PG=C01 [X(C4H6)]\\@

 Normal termination of Gaussian 09 at Wed Aug 26 12:28:37 2020.
