 Gaussian 09, Revision D.01,
 Gaussian 09:  ES64L-G09RevD.01 24-Apr-2013

 --------------------
 #p B2PLYPD3/Def2QZVP
 --------------------

 ---------
 butadiene
 ---------
 Symbolic Z-matrix:
 Charge =  0 Multiplicity = 1

                         Standard orientation:
 ---------------------------------------------------------------------
 Center     Atomic      Atomic             Coordinates (Angstroms)
 Number     Number       Type             X           Y           Z
 ---------------------------------------------------------------------
      1          6           0       -1.847927    0.086766   -0.059069
      2          6           0       -0.596779   -0.366400    0.016726
      3          6           0        0.593816    0.443670    0.057165
      4          6           0        1.807033   -0.136533   -0.025246
      5          1           0       -2.677741   -0.599195    0.116005
      6          1           0       -2.050592    1.051175   -0.019202
      7          1           0       -0.372920   -1.404823    0.099721
      8          1           0        0.545312    1.530530   -0.028480
      9          1           0        2.078276   -1.173955   -0.133028
     10          1           0        2.740808    0.431250    0.027531
 ---------------------------------------------------------------------

 SCF Done:  E(RB2PLYPD3) =  -155.685571723     A.U. after   11 cycles
 E2(B2PLYPD3) =    -0.2258866430D+00 E(B2PLYPD3) =    -0.15591145836615D+03

 The electronic state is 1-A.
 Alpha  occ. eigenvalues --  -10.62875 -10.62120 -10.61961 -10.60266  -0.93286
 Alpha  occ. eigenvalues --   -0.84936  -0.70983  -0.64920  -0.54814  -0.54471
 Alpha  occ. eigenvalues --   -0.46792  -0.45649  -0.41223  -0.38004  -0.27484
 Alpha virt. eigenvalues --    0.01308   0.06966   0.07573   0.08083   0.09385
 Alpha virt. eigenvalues --    0.11716   0.12707   0.14937   0.15656   0.16354
 Alpha virt. eigenvalues --    0.18983   0.20069   0.22313   0.22910   0.23571

 Mulliken charges:
               1
     1  C   -0.177392
     2  C   -0.025461
     3  C   -0.037924
     4  C   -0.167814
     5  H    0.075830
     6  H    0.071234
     7  H    0.062335
     8  H    0.065231
     9  H    0.064842
    10  H    0.069117
 Sum of Mulliken charges =   0.00000

 Dipole moment (field-independent basis, Debye):
    X=              0.2012    Y=              0.0049    Z=              0.1056  Tot=              0.2273
 Quadrupole moment (field-independent basis, Debye-Ang):
   XX=            -23.3926   YY=            -23.1759   ZZ=            -29.1108
   XY=             -0.6161   XZ=             -0.6276   YZ=             -0.1186

 1\1\GINC-NODE28\SP\RB2PLYPD3-FC\def2QZVP\C4H6\BOITTIER\26-Aug-2020\0\\
 #p B2PLYPD3/Def2QZVP\\butadiene\\0,1\C,0,-3.848639,0.20671,-0.030309\C
 ,0,-2.702012,-0.467141,0.057142\C,0,-1.382036,0.10986,0.067113\C,0,-0.
 297547,-0.686889,0.000808\H,0,-4.789216,-0.308067,0.16995\H,0,-3.86944
 2,1.192736,-0.022204\H,0,-2.672945,-1.525802,0.174249\H,0,-1.229851,1.
 183611,-0.054753\H,0,-0.22343,-1.759505,-0.072919\H,0,0.725419,-0.3000
 19,0.03194\\Version=ES64L-G09RevD.01\State=1-A\HF=-155.6855717\MP2=-15
 5.9114584\RMSD=6.608e-09\PG=C01 [X(C4H6)]\\@

 Normal termination of Gaussian 09 at Wed Aug 26 15:01:27 2020.
