 Gaussian 09, Revision D.01,
 Gaussian 09:  ES64L-G09RevD.01 24-Apr-2013

 --------------------
 #p B2PLYPD3/Def2QZVP
 --------------------

 ---------
 butadiene
 ---------
 Symbolic Z-matrix:
 Charge =  0 Multiplicity = 1

                         Standard orientation:
 ---------------------------------------------------------------------
 Center     Atomic      Atomic             Coordinates (Angstroms)
 Number     Number       Type             X           Y           Z
 ---------------------------------------------------------------------
      1          6           0        1.833025    0.088692    0.043549
      2          6           0        0.585346   -0.391401   -0.043465
      3          6           0       -0.608392    0.431501   -0.041783
      4          6           0       -1.824121   -0.111972    0.025588
      5          1           0        2.703809   -0.555651   -0.003482
      6          1           0        2.102988    1.156959    0.011873
      7          1           0        0.423545   -1.449440    0.039212
      8          1           0       -0.457312    1.535114   -0.029112
      9          1           0       -1.912526   -1.219873   -0.031606
     10          1           0       -2.775655    0.431969    0.109775
 ---------------------------------------------------------------------

 SCF Done:  E(RB2PLYPD3) =  -155.696284407     A.U. after   11 cycles
 E2(B2PLYPD3) =    -0.2264336962D+00 E(B2PLYPD3) =    -0.15592271810280D+03

 The electronic state is 1-A.
 Alpha  occ. eigenvalues --  -10.62911 -10.62565 -10.62116 -10.61756  -0.93067
 Alpha  occ. eigenvalues --   -0.84593  -0.69905  -0.63929  -0.54801  -0.53192
 Alpha  occ. eigenvalues --   -0.46900  -0.44750  -0.40950  -0.38224  -0.27632
 Alpha virt. eigenvalues --    0.01648   0.07019   0.07246   0.08051   0.09341
 Alpha virt. eigenvalues --    0.11587   0.12538   0.14553   0.15666   0.16317
 Alpha virt. eigenvalues --    0.18775   0.19840   0.22061   0.22738   0.23868

 Mulliken charges:
               1
     1  C   -0.171473
     2  C   -0.032376
     3  C   -0.029167
     4  C   -0.166760
     5  H    0.078917
     6  H    0.061079
     7  H    0.061044
     8  H    0.055356
     9  H    0.056998
    10  H    0.086381
 Sum of Mulliken charges =   0.00000

 Dipole moment (field-independent basis, Debye):
    X=             -0.0401    Y=              0.0085    Z=              0.0245  Tot=              0.0477
 Quadrupole moment (field-independent basis, Debye-Ang):
   XX=            -23.3263   YY=            -23.2703   ZZ=            -29.3428
   XY=              0.2893   XZ=             -0.2510   YZ=              0.0311

 1\1\GINC-NODE20\SP\RB2PLYPD3-FC\def2QZVP\C4H6\BOITTIER\26-Aug-2020\0\\
 #p B2PLYPD3/Def2QZVP\\butadiene\\0,1\C,0,-3.839419,0.208476,-0.023009\
 C,0,-2.701543,-0.491621,0.076314\C,0,-1.376331,0.096159,0.053769\C,0,-
 0.282279,-0.664169,0.000369\H,0,-4.81404,-0.262434,0.040349\H,0,-3.907
 198,1.308687,-0.018583\H,0,-2.738409,-1.56307,0.020634\H,0,-1.320949,1
 .208011,0.012972\H,0,-0.399842,-1.767534,0.085779\H,0,0.752977,-0.3077
 55,-0.097568\\Version=ES64L-G09RevD.01\State=1-A\HF=-155.6962844\MP2=-
 155.9227181\RMSD=4.219e-09\PG=C01 [X(C4H6)]\\@

 Normal termination of Gaussian 09 at Wed Aug 26 09:50:49 2020.
