 Gaussian 09, Revision D.01,
 Gaussian 09:  ES64L-G09RevD.01 24-Apr-2013

 --------------------
 #p B2PLYPD3/Def2QZVP
 --------------------

 ---------
 butadiene
 ---------
 Symbolic Z-matrix:
 Charge =  0 Multiplicity = 1

                         Standard orientation:
 ---------------------------------------------------------------------
 Center     Atomic      Atomic             Coordinates (Angstroms)
 Number     Number       Type             X           Y           Z
 ---------------------------------------------------------------------
      1          6           0       -1.830624    0.115091    0.016247
      2          6           0       -0.614295   -0.410194   -0.032252
      3          6           0        0.606910    0.400522   -0.021641
      4          6           0        1.840793   -0.115637    0.032288
      5          1           0       -2.733616   -0.494010    0.065412
      6          1           0       -1.946832    1.199317    0.029219
      7          1           0       -0.506244   -1.478895   -0.045140
      8          1           0        0.472307    1.467384   -0.027979
      9          1           0        1.995964   -1.165328    0.029611
     10          1           0        2.701716    0.532843   -0.018979
 ---------------------------------------------------------------------

 SCF Done:  E(RB2PLYPD3) =  -155.700852412     A.U. after   11 cycles
 E2(B2PLYPD3) =    -0.2253919755D+00 E(B2PLYPD3) =    -0.15592624438719D+03

 The electronic state is 1-A.
 Alpha  occ. eigenvalues --  -10.62526 -10.62300 -10.61509 -10.61227  -0.92951
 Alpha  occ. eigenvalues --   -0.85044  -0.69878  -0.64396  -0.54429  -0.54192
 Alpha  occ. eigenvalues --   -0.46675  -0.45758  -0.41239  -0.38023  -0.27790
 Alpha virt. eigenvalues --    0.01936   0.07013   0.07477   0.08083   0.09515
 Alpha virt. eigenvalues --    0.11730   0.12488   0.14657   0.15890   0.16143
 Alpha virt. eigenvalues --    0.18784   0.20373   0.21588   0.23004   0.23973

 Mulliken charges:
               1
     1  C   -0.172283
     2  C   -0.030996
     3  C   -0.033825
     4  C   -0.177871
     5  H    0.085637
     6  H    0.062023
     7  H    0.056528
     8  H    0.056820
     9  H    0.069066
    10  H    0.084901
 Sum of Mulliken charges =   0.00000

 Dipole moment (field-independent basis, Debye):
    X=             -0.0260    Y=             -0.0178    Z=             -0.0095  Tot=              0.0329
 Quadrupole moment (field-independent basis, Debye-Ang):
   XX=            -23.5697   YY=            -23.0298   ZZ=            -29.2386
   XY=             -0.0439   XZ=             -0.2612   YZ=             -0.0399

 1\1\GINC-NODE08\SP\RB2PLYPD3-FC\def2QZVP\C4H6\BOITTIER\26-Aug-2020\0\\
 #p B2PLYPD3/Def2QZVP\\butadiene\\0,1\C,0,-3.833453,0.223829,0.038269\C
 ,0,-2.729532,-0.509658,0.005301\C,0,-1.384118,0.072049,-0.008598\C,0,-
 0.260743,-0.652551,0.060539\H,0,-4.829681,-0.214101,0.105821\H,0,-3.75
 5931,1.311409,0.018784\H,0,-2.812336,-1.580518,0.024407\H,0,-1.327878,
 1.145234,-0.046862\H,0,-0.293752,-1.71275,0.089273\H,0,0.701035,-0.168
 497,-0.010285\\Version=ES64L-G09RevD.01\State=1-A\HF=-155.7008524\MP2=
 -155.9262444\RMSD=5.503e-09\PG=C01 [X(C4H6)]\\@

 Normal termination of Gaussian 09 at Wed Aug 26 21:26:23 2020.
