 Gaussian 09, Revision D.01,
 Gaussian 09:  ES64L-G09RevD.01 24-Apr-2013

 --------------------
 #p B2PLYPD3/Def2QZVP
 --------------------

 ---------
 butadiene
 ---------
 Symbolic Z-matrix:
 Charge =  0 Multiplicity = 1

                         Standard orientation:
 ---------------------------------------------------------------------
 Center     Atomic      Atomic             Coordinates (Angstroms)
 Number     Number       Type             X           Y           Z
 ---------------------------------------------------------------------
      1          6           0        1.825567    0.092409    0.020203
      2          6           0        0.596122   -0.377965   -0.042607
      3          6           0       -0.606637    0.416210   -0.039956
      4          6           0       -1.818090   -0.136291    0.009242
      5          1           0        2.741069   -0.523632    0.057302
      6          1           0        2.008269    1.188900    0.056567
      7          1           0        0.475725   -1.459444    0.058611
      8          1           0       -0.535905    1.486585   -0.011610
      9          1           0       -1.969334   -1.191825    0.011072
     10          1           0       -2.701595    0.533233    0.146763
 ---------------------------------------------------------------------

 SCF Done:  E(RB2PLYPD3) =  -155.696936144     A.U. after   11 cycles
 E2(B2PLYPD3) =    -0.2257089191D+00 E(B2PLYPD3) =    -0.15592264506282D+03

 The electronic state is 1-A.
 Alpha  occ. eigenvalues --  -10.62314 -10.62213 -10.61701 -10.61647  -0.93392
 Alpha  occ. eigenvalues --   -0.85052  -0.69668  -0.64147  -0.54332  -0.54134
 Alpha  occ. eigenvalues --   -0.46572  -0.45011  -0.40977  -0.38414  -0.27799
 Alpha virt. eigenvalues --    0.01904   0.06986   0.07389   0.07900   0.09665
 Alpha virt. eigenvalues --    0.11702   0.12370   0.14641   0.15655   0.16344
 Alpha virt. eigenvalues --    0.18747   0.19950   0.21660   0.22985   0.23880

 Mulliken charges:
               1
     1  C   -0.169783
     2  C   -0.026634
     3  C   -0.032241
     4  C   -0.172874
     5  H    0.083801
     6  H    0.055281
     7  H    0.053166
     8  H    0.059528
     9  H    0.071990
    10  H    0.077764
 Sum of Mulliken charges =   0.00000

 Dipole moment (field-independent basis, Debye):
    X=             -0.0102    Y=             -0.0023    Z=              0.2256  Tot=              0.2258
 Quadrupole moment (field-independent basis, Debye-Ang):
   XX=            -23.6569   YY=            -23.1151   ZZ=            -29.2045
   XY=              0.0292   XZ=             -0.1318   YZ=              0.0224

 1\1\GINC-NODE22\SP\RB2PLYPD3-FC\def2QZVP\C4H6\BOITTIER\26-Aug-2020\0\\
 #p B2PLYPD3/Def2QZVP\\butadiene\\0,1\C,0,-3.83267,0.200911,-0.005585\C
 ,0,-2.706273,-0.478869,0.070974\C,0,-1.381435,0.088234,0.047611\C,0,-0
 .287811,-0.672149,0.014429\H,0,-4.843309,-0.243157,-0.026589\H,0,-3.81
 7533,1.311028,-0.071961\H,0,-2.780612,-1.566841,-0.000637\H,0,-1.26072
 8,1.152953,-0.009952\H,0,-0.326774,-1.73741,0.041485\H,0,0.700142,-0.1
 74486,-0.140604\\Version=ES64L-G09RevD.01\State=1-A\HF=-155.6969361\MP
 2=-155.9226451\RMSD=5.923e-09\PG=C01 [X(C4H6)]\\@

 Normal termination of Gaussian 09 at Wed Aug 26 08:50:37 2020.
