 Gaussian 09, Revision D.01,
 Gaussian 09:  ES64L-G09RevD.01 24-Apr-2013

 --------------------
 #p B2PLYPD3/Def2QZVP
 --------------------

 ---------
 butadiene
 ---------
 Symbolic Z-matrix:
 Charge =  0 Multiplicity = 1

                         Standard orientation:
 ---------------------------------------------------------------------
 Center     Atomic      Atomic             Coordinates (Angstroms)
 Number     Number       Type             X           Y           Z
 ---------------------------------------------------------------------
      1          6           0        1.835960    0.092961   -0.017958
      2          6           0        0.595222   -0.384345    0.003455
      3          6           0       -0.612299    0.419384    0.011834
      4          6           0       -1.831878   -0.120987   -0.024110
      5          1           0        2.729652   -0.515202    0.060231
      6          1           0        2.001925    1.175877   -0.107925
      7          1           0        0.470482   -1.484915    0.075557
      8          1           0       -0.447272    1.513575    0.153791
      9          1           0       -1.900190   -1.190527   -0.010726
     10          1           0       -2.776627    0.459117   -0.010252
 ---------------------------------------------------------------------

 SCF Done:  E(RB2PLYPD3) =  -155.697197268     A.U. after   11 cycles
 E2(B2PLYPD3) =    -0.2262002315D+00 E(B2PLYPD3) =    -0.15592339749989D+03

 The electronic state is 1-A.
 Alpha  occ. eigenvalues --  -10.62969 -10.62657 -10.61842 -10.61585  -0.93075
 Alpha  occ. eigenvalues --   -0.84886  -0.69874  -0.63566  -0.54597  -0.53586
 Alpha  occ. eigenvalues --   -0.46973  -0.44974  -0.40923  -0.38059  -0.27782
 Alpha virt. eigenvalues --    0.01741   0.07065   0.07238   0.07941   0.09530
 Alpha virt. eigenvalues --    0.11616   0.12560   0.14472   0.15636   0.16264
 Alpha virt. eigenvalues --    0.18724   0.20192   0.21729   0.22592   0.23813

 Mulliken charges:
               1
     1  C   -0.177086
     2  C   -0.021376
     3  C   -0.032289
     4  C   -0.170885
     5  H    0.088589
     6  H    0.058445
     7  H    0.046735
     8  H    0.054463
     9  H    0.065815
    10  H    0.087588
 Sum of Mulliken charges =   0.00000

 Dipole moment (field-independent basis, Debye):
    X=             -0.0230    Y=             -0.0143    Z=              0.1530  Tot=              0.1554
 Quadrupole moment (field-independent basis, Debye-Ang):
   XX=            -23.3097   YY=            -23.3503   ZZ=            -29.2913
   XY=              0.0661   XZ=             -0.0032   YZ=             -0.0651

 1\1\GINC-NODE02\SP\RB2PLYPD3-FC\def2QZVP\C4H6\BOITTIER\26-Aug-2020\0\\
 #p B2PLYPD3/Def2QZVP\\butadiene\\0,1\C,0,-3.843419,0.205311,0.0337\C,0
 ,-2.708309,-0.486931,0.027552\C,0,-1.376406,0.086949,-0.001677\C,0,-0.
 273201,-0.661919,0.051254\H,0,-4.831855,-0.234878,-0.02865\H,0,-3.8124
 31,1.302526,0.092902\H,0,-2.782952,-1.593623,-0.013356\H,0,-1.343311,1
 .1886,-0.174622\H,0,-0.397591,-1.726346,0.068084\H,0,0.76011,-0.261043
 ,0.022458\\Version=ES64L-G09RevD.01\State=1-A\HF=-155.6971973\MP2=-155
 .9233975\RMSD=5.488e-09\PG=C01 [X(C4H6)]\\@

 Normal termination of Gaussian 09 at Wed Aug 26 08:43:16 2020.
