 Gaussian 09, Revision D.01,
 Gaussian 09:  ES64L-G09RevD.01 24-Apr-2013

 --------------------
 #p B2PLYPD3/Def2QZVP
 --------------------

 ---------
 butadiene
 ---------
 Symbolic Z-matrix:
 Charge =  0 Multiplicity = 1

                         Standard orientation:
 ---------------------------------------------------------------------
 Center     Atomic      Atomic             Coordinates (Angstroms)
 Number     Number       Type             X           Y           Z
 ---------------------------------------------------------------------
      1          6           0       -1.823794   -0.133535    0.015786
      2          6           0       -0.606245    0.425981   -0.060499
      3          6           0        0.605676   -0.378553   -0.037375
      4          6           0        1.844320    0.091118    0.027958
      5          1           0       -2.716086    0.522486    0.164133
      6          1           0       -1.996574   -1.189237    0.066337
      7          1           0       -0.460686    1.502821   -0.001192
      8          1           0        0.397860   -1.465474   -0.055797
      9          1           0        1.970639    1.166682    0.038115
     10          1           0        2.685110   -0.567343    0.113183
 ---------------------------------------------------------------------

 SCF Done:  E(RB2PLYPD3) =  -155.697459730     A.U. after   11 cycles
 E2(B2PLYPD3) =    -0.2260559727D+00 E(B2PLYPD3) =    -0.15592351570285D+03

 The electronic state is 1-A.
 Alpha  occ. eigenvalues --  -10.62761 -10.62441 -10.62018 -10.61223  -0.93046
 Alpha  occ. eigenvalues --   -0.84882  -0.70015  -0.63907  -0.54633  -0.53565
 Alpha  occ. eigenvalues --   -0.47175  -0.45277  -0.40791  -0.38173  -0.27718
 Alpha virt. eigenvalues --    0.01740   0.06996   0.07297   0.08062   0.09515
 Alpha virt. eigenvalues --    0.11765   0.12360   0.14750   0.15694   0.16022
 Alpha virt. eigenvalues --    0.18708   0.20308   0.21598   0.23206   0.23678

 Mulliken charges:
               1
     1  C   -0.172556
     2  C   -0.033501
     3  C   -0.017497
     4  C   -0.183515
     5  H    0.077802
     6  H    0.071622
     7  H    0.055628
     8  H    0.044766
     9  H    0.063940
    10  H    0.093313
 Sum of Mulliken charges =   0.00000

 Dipole moment (field-independent basis, Debye):
    X=             -0.0457    Y=             -0.0172    Z=              0.2307  Tot=              0.2358
 Quadrupole moment (field-independent basis, Debye-Ang):
   XX=            -23.7902   YY=            -23.0761   ZZ=            -29.2657
   XY=              0.2401   XZ=             -0.2436   YZ=              0.0538

 1\1\GINC-NODE17\SP\RB2PLYPD3-FC\def2QZVP\C4H6\BOITTIER\26-Aug-2020\0\\
 #p B2PLYPD3/Def2QZVP\\butadiene\\0,1\C,0,-3.823308,0.247392,-0.007676\
 C,0,-2.727537,-0.521585,0.08857\C,0,-1.389678,0.048538,0.047886\C,0,-0
 .257027,-0.639883,0.000176\H,0,-4.820101,-0.239546,-0.141278\H,0,-3.80
 1533,1.315101,-0.087913\H,0,-2.78006,-1.608178,0.05947\H,0,-1.396597,1
 .155211,0.035605\H,0,-0.328175,-1.720364,0.020099\H,0,0.689263,-0.1476
 75,-0.099965\\Version=ES64L-G09RevD.01\State=1-A\HF=-155.6974597\MP2=-
 155.9235157\RMSD=6.007e-09\PG=C01 [X(C4H6)]\\@

 Normal termination of Gaussian 09 at Wed Aug 26 10:24:51 2020.
