 Gaussian 09, Revision D.01,
 Gaussian 09:  ES64L-G09RevD.01 24-Apr-2013

 --------------------
 #p B2PLYPD3/Def2QZVP
 --------------------

 ---------
 butadiene
 ---------
 Symbolic Z-matrix:
 Charge =  0 Multiplicity = 1

                         Standard orientation:
 ---------------------------------------------------------------------
 Center     Atomic      Atomic             Coordinates (Angstroms)
 Number     Number       Type             X           Y           Z
 ---------------------------------------------------------------------
      1          6           0        1.847309    0.078950    0.023962
      2          6           0        0.598906   -0.364692   -0.061232
      3          6           0       -0.603568    0.406117   -0.023159
      4          6           0       -1.831684   -0.128064   -0.002666
      5          1           0        2.693040   -0.565429    0.125698
      6          1           0        2.032856    1.175106   -0.007504
      7          1           0        0.464028   -1.411724    0.027061
      8          1           0       -0.495880    1.514878    0.038929
      9          1           0       -2.056231   -1.179530    0.077714
     10          1           0       -2.703589    0.512838    0.116675
 ---------------------------------------------------------------------

 SCF Done:  E(RB2PLYPD3) =  -155.696141608     A.U. after   11 cycles
 E2(B2PLYPD3) =    -0.2259307976D+00 E(B2PLYPD3) =    -0.15592207240579D+03

 The electronic state is 1-A.
 Alpha  occ. eigenvalues --  -10.62907 -10.61846 -10.61727 -10.61587  -0.93354
 Alpha  occ. eigenvalues --   -0.84989  -0.70587  -0.63881  -0.55085  -0.53714
 Alpha  occ. eigenvalues --   -0.47098  -0.44993  -0.40916  -0.38406  -0.27666
 Alpha virt. eigenvalues --    0.01420   0.06998   0.07423   0.07998   0.09801
 Alpha virt. eigenvalues --    0.11644   0.12410   0.14798   0.15762   0.16282
 Alpha virt. eigenvalues --    0.18878   0.20125   0.21672   0.22916   0.23646

 Mulliken charges:
               1
     1  C   -0.176865
     2  C   -0.019517
     3  C   -0.033393
     4  C   -0.168537
     5  H    0.089858
     6  H    0.058382
     7  H    0.054592
     8  H    0.050270
     9  H    0.067604
    10  H    0.077608
 Sum of Mulliken charges =   0.00000

 Dipole moment (field-independent basis, Debye):
    X=             -0.0229    Y=             -0.0560    Z=              0.2864  Tot=              0.2928
 Quadrupole moment (field-independent basis, Debye-Ang):
   XX=            -23.3867   YY=            -23.2619   ZZ=            -29.1855
   XY=              0.1407   XZ=             -0.1251   YZ=             -0.1302

 1\1\GINC-NODE02\SP\RB2PLYPD3-FC\def2QZVP\C4H6\BOITTIER\26-Aug-2020\0\\
 #p B2PLYPD3/Def2QZVP\\butadiene\\0,1\C,0,-3.852904,0.199966,-0.008643\
 C,0,-2.706083,-0.462295,0.085152\C,0,-1.383329,0.075437,0.033145\C,0,-
 0.273291,-0.674064,0.022946\H,0,-4.802274,-0.281104,-0.098659\H,0,-3.8
 35342,1.311967,0.002413\H,0,-2.764681,-1.517803,0.016351\H,0,-1.287204
 ,1.183916,-0.049547\H,0,-0.244508,-1.75014,-0.037834\H,0,0.700498,-0.2
 05233,-0.108005\\Version=ES64L-G09RevD.01\State=1-A\HF=-155.6961416\MP
 2=-155.9220724\RMSD=6.305e-09\PG=C01 [X(C4H6)]\\@

 Normal termination of Gaussian 09 at Wed Aug 26 08:51:03 2020.
