 Gaussian 09, Revision D.01,
 Gaussian 09:  ES64L-G09RevD.01 24-Apr-2013

 --------------------
 #p B2PLYPD3/Def2QZVP
 --------------------

 ---------
 butadiene
 ---------
 Symbolic Z-matrix:
 Charge =  0 Multiplicity = 1

                         Standard orientation:
 ---------------------------------------------------------------------
 Center     Atomic      Atomic             Coordinates (Angstroms)
 Number     Number       Type             X           Y           Z
 ---------------------------------------------------------------------
      1          6           0       -1.840084   -0.115543    0.008769
      2          6           0       -0.617370    0.411982   -0.007757
      3          6           0        0.601941   -0.383820   -0.029120
      4          6           0        1.854893    0.091499    0.004575
      5          1           0       -2.727314    0.487981    0.055181
      6          1           0       -1.999818   -1.201552    0.006686
      7          1           0       -0.502077    1.505932   -0.020922
      8          1           0        0.421924   -1.439527   -0.003313
      9          1           0        2.059774    1.160958    0.011356
     10          1           0        2.751237   -0.538500    0.092214
 ---------------------------------------------------------------------

 SCF Done:  E(RB2PLYPD3) =  -155.699798520     A.U. after   11 cycles
 E2(B2PLYPD3) =    -0.2259074567D+00 E(B2PLYPD3) =    -0.15592570597658D+03

 The electronic state is 1-A.
 Alpha  occ. eigenvalues --  -10.62750 -10.62581 -10.61923 -10.61673  -0.92895
 Alpha  occ. eigenvalues --   -0.84807  -0.70238  -0.64006  -0.54812  -0.53488
 Alpha  occ. eigenvalues --   -0.47121  -0.45246  -0.40827  -0.38111  -0.27751
 Alpha virt. eigenvalues --    0.01618   0.06979   0.07392   0.08070   0.09617
 Alpha virt. eigenvalues --    0.11597   0.12466   0.14606   0.15859   0.16180
 Alpha virt. eigenvalues --    0.18914   0.20555   0.21639   0.22819   0.23420

 Mulliken charges:
               1
     1  C   -0.172315
     2  C   -0.028615
     3  C   -0.032386
     4  C   -0.172041
     5  H    0.086888
     6  H    0.061713
     7  H    0.052687
     8  H    0.056742
     9  H    0.062859
    10  H    0.084467
 Sum of Mulliken charges =   0.00000

 Dipole moment (field-independent basis, Debye):
    X=             -0.0492    Y=              0.0093    Z=              0.1035  Tot=              0.1150
 Quadrupole moment (field-independent basis, Debye-Ang):
   XX=            -23.2073   YY=            -23.2743   ZZ=            -29.3056
   XY=              0.2335   XZ=              0.1523   YZ=             -0.0541

 1\1\GINC-NODE31\SP\RB2PLYPD3-FC\def2QZVP\C4H6\BOITTIER\26-Aug-2020\0\\
 #p B2PLYPD3/Def2QZVP\\butadiene\\0,1\C,0,-3.840704,0.231435,0.008075\C
 ,0,-2.73351,-0.507789,0.043497\C,0,-1.390264,0.054477,0.038478\C,0,-0.
 244164,-0.640601,0.021943\H,0,-4.822709,-0.202782,-0.018286\H,0,-3.801
 345,1.327859,-0.027108\H,0,-2.817928,-1.603462,0.09416\H,0,-1.376488,1
 .123846,-0.023557\H,0,-0.236153,-1.729088,0.051897\H,0,0.750856,-0.186
 539,-0.086568\\Version=ES64L-G09RevD.01\State=1-A\HF=-155.6997985\MP2=
 -155.925706\RMSD=2.589e-09\PG=C01 [X(C4H6)]\\@

 Normal termination of Gaussian 09 at Wed Aug 26 16:22:52 2020.
