 Gaussian 09, Revision D.01,
 Gaussian 09:  ES64L-G09RevD.01 24-Apr-2013

 --------------------
 #p B2PLYPD3/Def2QZVP
 --------------------

 ---------
 butadiene
 ---------
 Symbolic Z-matrix:
 Charge =  0 Multiplicity = 1

                         Standard orientation:
 ---------------------------------------------------------------------
 Center     Atomic      Atomic             Coordinates (Angstroms)
 Number     Number       Type             X           Y           Z
 ---------------------------------------------------------------------
      1          6           0       -1.832643    0.118959   -0.017233
      2          6           0       -0.611974   -0.417970    0.018364
      3          6           0        0.606889    0.390830    0.044297
      4          6           0        1.833017   -0.109206   -0.026708
      5          1           0       -2.752728   -0.477315   -0.029099
      6          1           0       -1.900986    1.234045   -0.033085
      7          1           0       -0.486534   -1.517681    0.010101
      8          1           0        0.464724    1.473470   -0.011450
      9          1           0        2.004634   -1.154288   -0.013385
     10          1           0        2.699152    0.546095   -0.035398
 ---------------------------------------------------------------------

 SCF Done:  E(RB2PLYPD3) =  -155.698734835     A.U. after   11 cycles
 E2(B2PLYPD3) =    -0.2258854666D+00 E(B2PLYPD3) =    -0.15592462030177D+03

 The electronic state is 1-A.
 Alpha  occ. eigenvalues --  -10.62799 -10.62514 -10.62027 -10.61146  -0.92953
 Alpha  occ. eigenvalues --   -0.84989  -0.69657  -0.63776  -0.54454  -0.53792
 Alpha  occ. eigenvalues --   -0.46666  -0.45249  -0.40965  -0.38142  -0.27855
 Alpha virt. eigenvalues --    0.01955   0.07011   0.07288   0.08008   0.09500
 Alpha virt. eigenvalues --    0.11702   0.12444   0.14538   0.15755   0.16108
 Alpha virt. eigenvalues --    0.18689   0.20227   0.21553   0.22950   0.23988

 Mulliken charges:
               1
     1  C   -0.171777
     2  C   -0.032682
     3  C   -0.024342
     4  C   -0.176524
     5  H    0.090185
     6  H    0.059451
     7  H    0.050743
     8  H    0.052223
     9  H    0.068601
    10  H    0.084121
 Sum of Mulliken charges =   0.00000

 Dipole moment (field-independent basis, Debye):
    X=              0.0123    Y=             -0.0360    Z=             -0.0566  Tot=              0.0682
 Quadrupole moment (field-independent basis, Debye-Ang):
   XX=            -23.5632   YY=            -23.1112   ZZ=            -29.3150
   XY=              0.0027   XZ=             -0.0064   YZ=             -0.0704

 1\1\GINC-NODE30\SP\RB2PLYPD3-FC\def2QZVP\C4H6\BOITTIER\26-Aug-2020\0\\
 #p B2PLYPD3/Def2QZVP\\butadiene\\0,1\C,0,-3.833888,0.227403,-0.002243\
 C,0,-2.727399,-0.515588,0.054685\C,0,-1.384506,0.06501,0.054093\C,0,-0
 .266591,-0.646426,0.003184\H,0,-4.84504,-0.19657,0.005401\H,0,-3.70382
 5,1.335703,-0.057867\H,0,-2.798653,-1.619727,0.085767\H,0,-1.333021,1.
 15306,-0.040383\H,0,-0.282631,-1.704249,0.053982\H,0,0.701821,-0.15557
 ,-0.027202\\Version=ES64L-G09RevD.01\State=1-A\HF=-155.6987348\MP2=-15
 5.9246203\RMSD=3.964e-09\PG=C01 [X(C4H6)]\\@

 Normal termination of Gaussian 09 at Wed Aug 26 18:56:23 2020.
