 Gaussian 09, Revision D.01,
 Gaussian 09:  ES64L-G09RevD.01 24-Apr-2013

 --------------------
 #p B2PLYPD3/Def2QZVP
 --------------------

 ---------
 butadiene
 ---------
 Symbolic Z-matrix:
 Charge =  0 Multiplicity = 1

                         Standard orientation:
 ---------------------------------------------------------------------
 Center     Atomic      Atomic             Coordinates (Angstroms)
 Number     Number       Type             X           Y           Z
 ---------------------------------------------------------------------
      1          6           0       -1.818751   -0.094092    0.024687
      2          6           0       -0.583810    0.369885   -0.061205
      3          6           0        0.556639   -0.418005   -0.085936
      4          6           0        1.832504    0.109868    0.048317
      5          1           0       -2.591896    0.570978    0.231129
      6          1           0       -2.084352   -1.074029    0.169165
      7          1           0       -0.425744    1.489312   -0.023072
      8          1           0        0.385291   -1.453739   -0.192509
      9          1           0        1.967745    1.136604   -0.105370
     10          1           0        2.829464   -0.475058    0.365484
 ---------------------------------------------------------------------

 SCF Done:  E(RB2PLYPD3) =  -155.671391952     A.U. after   12 cycles
 E2(B2PLYPD3) =    -0.2275780077D+00 E(B2PLYPD3) =    -0.15589896995995D+03

 The electronic state is 1-A.
 Alpha  occ. eigenvalues --  -10.63270 -10.62653 -10.62366 -10.60167  -0.94076
 Alpha  occ. eigenvalues --   -0.84431  -0.71317  -0.64584  -0.54615  -0.54336
 Alpha  occ. eigenvalues --   -0.46462  -0.45398  -0.41945  -0.38254  -0.26642
 Alpha virt. eigenvalues --    0.00488   0.06879   0.07548   0.07848   0.09446
 Alpha virt. eigenvalues --    0.11556   0.12680   0.14854   0.15802   0.16165
 Alpha virt. eigenvalues --    0.18745   0.20280   0.21610   0.22758   0.24134

 Mulliken charges:
               1
     1  C   -0.170829
     2  C   -0.007348
     3  C   -0.037070
     4  C   -0.187464
     5  H    0.073928
     6  H    0.063399
     7  H    0.043139
     8  H    0.068282
     9  H    0.074854
    10  H    0.079108
 Sum of Mulliken charges =   0.00000

 Dipole moment (field-independent basis, Debye):
    X=             -0.0174    Y=              0.0001    Z=              0.2952  Tot=              0.2957
 Quadrupole moment (field-independent basis, Debye-Ang):
   XX=            -23.6815   YY=            -23.4333   ZZ=            -28.9969
   XY=              0.5200   XZ=             -0.1946   YZ=             -0.1793

 1\1\GINC-NODE35\SP\RB2PLYPD3-FC\def2QZVP\C4H6\BOITTIER\26-Aug-2020\0\\
 #p B2PLYPD3/Def2QZVP\\butadiene\\0,1\C,0,-3.818738,0.220242,-0.01582\C
 ,0,-2.694797,-0.468092,0.087538\C,0,-1.424858,0.088008,0.091366\C,0,-0
 .273633,-0.677528,-0.023259\H,0,-4.705255,-0.290992,-0.204013\H,0,-3.8
 92868,1.228001,-0.190811\H,0,-2.753423,-1.597741,0.08396\H,0,-1.395031
 ,1.140159,0.165865\H,0,-0.336369,-1.70604,0.162006\H,0,0.815643,-0.303
 579,-0.355378\\Version=ES64L-G09RevD.01\State=1-A\HF=-155.671392\MP2=-
 155.89897\RMSD=8.820e-09\PG=C01 [X(C4H6)]\\@

 Normal termination of Gaussian 09 at Wed Aug 26 11:29:50 2020.
