 Gaussian 09, Revision D.01,
 Gaussian 09:  ES64L-G09RevD.01 24-Apr-2013

 --------------------
 #p B2PLYPD3/Def2QZVP
 --------------------

 ---------
 butadiene
 ---------
 Symbolic Z-matrix:
 Charge =  0 Multiplicity = 1

                         Standard orientation:
 ---------------------------------------------------------------------
 Center     Atomic      Atomic             Coordinates (Angstroms)
 Number     Number       Type             X           Y           Z
 ---------------------------------------------------------------------
      1          6           0        1.829905   -0.128553   -0.009297
      2          6           0        0.617919    0.408584    0.023681
      3          6           0       -0.605775   -0.381092    0.007479
      4          6           0       -1.842792    0.106659   -0.021031
      5          1           0        2.678667    0.524341   -0.012633
      6          1           0        1.982512   -1.194650   -0.040630
      7          1           0        0.539293    1.482723    0.008037
      8          1           0       -0.467943   -1.444575    0.021026
      9          1           0       -2.017894    1.157452   -0.027608
     10          1           0       -2.710175   -0.558877    0.046819
 ---------------------------------------------------------------------

 SCF Done:  E(RB2PLYPD3) =  -155.700916992     A.U. after   11 cycles
 E2(B2PLYPD3) =    -0.2251153302D+00 E(B2PLYPD3) =    -0.15592603232268D+03

 The electronic state is 1-A.
 Alpha  occ. eigenvalues --  -10.62250 -10.62192 -10.61293 -10.61187  -0.93114
 Alpha  occ. eigenvalues --   -0.85241  -0.70066  -0.64315  -0.54651  -0.54195
 Alpha  occ. eigenvalues --   -0.46570  -0.45957  -0.41173  -0.38153  -0.27838
 Alpha virt. eigenvalues --    0.01926   0.06994   0.07523   0.08051   0.09726
 Alpha virt. eigenvalues --    0.11761   0.12377   0.14818   0.15885   0.16063
 Alpha virt. eigenvalues --    0.18799   0.20521   0.21489   0.22783   0.24118

 Mulliken charges:
               1
     1  C   -0.176202
     2  C   -0.031333
     3  C   -0.029709
     4  C   -0.177596
     5  H    0.084759
     6  H    0.068740
     7  H    0.054572
     8  H    0.055034
     9  H    0.067589
    10  H    0.084145
 Sum of Mulliken charges =   0.00000

 Dipole moment (field-independent basis, Debye):
    X=              0.0524    Y=              0.0151    Z=              0.0158  Tot=              0.0567
 Quadrupole moment (field-independent basis, Debye-Ang):
   XX=            -23.6205   YY=            -22.9889   ZZ=            -29.1793
   XY=             -0.0567   XZ=             -0.2324   YZ=             -0.0484

 1\1\GINC-NODE01\SP\RB2PLYPD3-FC\def2QZVP\C4H6\BOITTIER\26-Aug-2020\0\\
 #p B2PLYPD3/Def2QZVP\\butadiene\\0,1\C,0,-3.830398,0.23483,0.005841\C,
 0,-2.732287,-0.506782,0.057561\C,0,-1.388383,0.053639,0.023945\C,0,-0.
 257004,-0.645492,0.012936\H,0,-4.781135,-0.257758,0.01746\H,0,-3.79235
 9,1.309853,-0.055094\H,0,-2.844634,-1.577943,0.071507\H,0,-1.336196,1.
 124713,0.007994\H,0,-0.270255,-1.710471,0.035634\H,0,0.71439,-0.141982
 ,0.065525\\Version=ES64L-G09RevD.01\State=1-A\HF=-155.700917\MP2=-155.
 9260323\RMSD=3.193e-09\PG=C01 [X(C4H6)]\\@

 Normal termination of Gaussian 09 at Wed Aug 26 10:20:57 2020.
