 Gaussian 09, Revision D.01,
 Gaussian 09:  ES64L-G09RevD.01 24-Apr-2013

 --------------------
 #p B2PLYPD3/Def2QZVP
 --------------------

 ---------
 butadiene
 ---------
 Symbolic Z-matrix:
 Charge =  0 Multiplicity = 1

                         Standard orientation:
 ---------------------------------------------------------------------
 Center     Atomic      Atomic             Coordinates (Angstroms)
 Number     Number       Type             X           Y           Z
 ---------------------------------------------------------------------
      1          6           0       -1.855329    0.100573    0.020735
      2          6           0       -0.608381   -0.388797   -0.026288
      3          6           0        0.612105    0.421149   -0.023935
      4          6           0        1.843247   -0.120760    0.026978
      5          1           0       -2.708585   -0.544502    0.051517
      6          1           0       -2.036905    1.148068    0.005365
      7          1           0       -0.479908   -1.453973   -0.013107
      8          1           0        0.513237    1.499226   -0.051475
      9          1           0        2.019820   -1.197188   -0.045067
     10          1           0        2.742490    0.475381    0.067829
 ---------------------------------------------------------------------

 SCF Done:  E(RB2PLYPD3) =  -155.700113707     A.U. after   11 cycles
 E2(B2PLYPD3) =    -0.2258157152D+00 E(B2PLYPD3) =    -0.15592592942240D+03

 The electronic state is 1-A.
 Alpha  occ. eigenvalues --  -10.62913 -10.62553 -10.61832 -10.61206  -0.92664
 Alpha  occ. eigenvalues --   -0.84799  -0.70258  -0.64340  -0.54622  -0.53986
 Alpha  occ. eigenvalues --   -0.46751  -0.45645  -0.41380  -0.37816  -0.27588
 Alpha virt. eigenvalues --    0.01604   0.07004   0.07499   0.08090   0.09430
 Alpha virt. eigenvalues --    0.11621   0.12505   0.14667   0.15917   0.16276
 Alpha virt. eigenvalues --    0.18900   0.20486   0.21672   0.22947   0.23706

 Mulliken charges:
               1
     1  C   -0.177635
     2  C   -0.029976
     3  C   -0.040377
     4  C   -0.170642
     5  H    0.086192
     6  H    0.066900
     7  H    0.058389
     8  H    0.059801
     9  H    0.064766
    10  H    0.082583
 Sum of Mulliken charges =   0.00000

 Dipole moment (field-independent basis, Debye):
    X=              0.0346    Y=              0.0046    Z=             -0.0253  Tot=              0.0431
 Quadrupole moment (field-independent basis, Debye-Ang):
   XX=            -23.3077   YY=            -23.0981   ZZ=            -29.3091
   XY=             -0.1649   XZ=             -0.0794   YZ=              0.0160

 1\1\GINC-NODE40\SP\RB2PLYPD3-FC\def2QZVP\C4H6\BOITTIER\26-Aug-2020\0\\
 #p B2PLYPD3/Def2QZVP\\butadiene\\0,1\C,0,-3.858984,0.214695,0.040709\C
 ,0,-2.719685,-0.49073,0.009932\C,0,-1.374183,0.08788,-0.01107\C,0,-0.2
 59388,-0.663439,0.057627\H,0,-4.813574,-0.266369,0.090204\H,0,-3.85065
 3,1.27683,-0.006732\H,0,-2.783431,-1.560834,0.055667\H,0,-1.279068,1.1
 64952,-0.071518\H,0,-0.278191,-1.75577,0.018569\H,0,0.732026,-0.236555
 ,0.08127\\Version=ES64L-G09RevD.01\State=1-A\HF=-155.7001137\MP2=-155.
 9259294\RMSD=3.592e-09\PG=C01 [X(C4H6)]\\@

 Normal termination of Gaussian 09 at Wed Aug 26 12:41:39 2020.
