 Gaussian 09, Revision D.01,
 Gaussian 09:  ES64L-G09RevD.01 24-Apr-2013

 --------------------
 #p B2PLYPD3/Def2QZVP
 --------------------

 ---------
 butadiene
 ---------
 Symbolic Z-matrix:
 Charge =  0 Multiplicity = 1

                         Standard orientation:
 ---------------------------------------------------------------------
 Center     Atomic      Atomic             Coordinates (Angstroms)
 Number     Number       Type             X           Y           Z
 ---------------------------------------------------------------------
      1          6           0       -1.850262   -0.120057   -0.015938
      2          6           0       -0.614764    0.413705    0.015882
      3          6           0        0.610201   -0.390587    0.005745
      4          6           0        1.850395    0.102043   -0.013774
      5          1           0       -2.716901    0.516792   -0.018428
      6          1           0       -1.993895   -1.181054   -0.015940
      7          1           0       -0.462596    1.481326    0.082001
      8          1           0        0.442889   -1.476538    0.037094
      9          1           0        2.018524    1.171455   -0.072728
     10          1           0        2.738561   -0.542606    0.036509
 ---------------------------------------------------------------------

 SCF Done:  E(RB2PLYPD3) =  -155.700207507     A.U. after   11 cycles
 E2(B2PLYPD3) =    -0.2259828475D+00 E(B2PLYPD3) =    -0.15592619035460D+03

 The electronic state is 1-A.
 Alpha  occ. eigenvalues --  -10.62786 -10.62714 -10.61745 -10.61607  -0.92696
 Alpha  occ. eigenvalues --   -0.84787  -0.70141  -0.64011  -0.54448  -0.53756
 Alpha  occ. eigenvalues --   -0.46818  -0.45898  -0.40921  -0.37865  -0.27693
 Alpha virt. eigenvalues --    0.01636   0.06991   0.07400   0.08074   0.09500
 Alpha virt. eigenvalues --    0.11676   0.12401   0.14679   0.15794   0.16070
 Alpha virt. eigenvalues --    0.18817   0.20487   0.21561   0.22915   0.23670

 Mulliken charges:
               1
     1  C   -0.178103
     2  C   -0.035810
     3  C   -0.025803
     4  C   -0.177447
     5  H    0.087939
     6  H    0.070086
     7  H    0.056393
     8  H    0.050560
     9  H    0.065059
    10  H    0.087126
 Sum of Mulliken charges =   0.00000

 Dipole moment (field-independent basis, Debye):
    X=             -0.0236    Y=              0.0119    Z=              0.0555  Tot=              0.0615
 Quadrupole moment (field-independent basis, Debye-Ang):
   XX=            -23.4430   YY=            -23.1321   ZZ=            -29.3400
   XY=              0.2088   XZ=              0.0362   YZ=             -0.0543

 1\1\GINC-NODE36\SP\RB2PLYPD3-FC\def2QZVP\C4H6\BOITTIER\26-Aug-2020\0\\
 #p B2PLYPD3/Def2QZVP\\butadiene\\0,1\C,0,-3.850073,0.235778,0.032513\C
 ,0,-2.730491,-0.511706,0.019406\C,0,-1.381094,0.05969,0.006606\C,0,-0.
 249313,-0.646606,0.043542\H,0,-4.816874,-0.234869,0.053334\H,0,-3.8010
 6,1.304814,-0.000725\H,0,-2.772554,-1.59083,-0.013222\H,0,-1.351022,1.
 156542,-0.058783\H,0,-0.275507,-1.72649,0.13601\H,0,0.739877,-0.173628
 ,-0.025255\\Version=ES64L-G09RevD.01\State=1-A\HF=-155.7002075\MP2=-15
 5.9261904\RMSD=5.708e-09\PG=C01 [X(C4H6)]\\@

 Normal termination of Gaussian 09 at Wed Aug 26 19:40:29 2020.
