 Gaussian 09, Revision D.01,
 Gaussian 09:  ES64L-G09RevD.01 24-Apr-2013

 --------------------
 #p B2PLYPD3/Def2QZVP
 --------------------

 ---------
 butadiene
 ---------
 Symbolic Z-matrix:
 Charge =  0 Multiplicity = 1

                         Standard orientation:
 ---------------------------------------------------------------------
 Center     Atomic      Atomic             Coordinates (Angstroms)
 Number     Number       Type             X           Y           Z
 ---------------------------------------------------------------------
      1          6           0        1.846254    0.095652    0.027667
      2          6           0        0.622473   -0.381512   -0.048877
      3          6           0       -0.623829    0.400833   -0.026092
      4          6           0       -1.851096   -0.124804    0.013227
      5          1           0        2.760450   -0.493054    0.182030
      6          1           0        1.971643    1.218693   -0.027650
      7          1           0        0.503241   -1.471759   -0.110520
      8          1           0       -0.496105    1.462451   -0.040945
      9          1           0       -1.981366   -1.196472    0.082442
     10          1           0       -2.720676    0.539124    0.119090
 ---------------------------------------------------------------------

 SCF Done:  E(RB2PLYPD3) =  -155.695810182     A.U. after   11 cycles
 E2(B2PLYPD3) =    -0.2258398477D+00 E(B2PLYPD3) =    -0.15592165002981D+03

 The electronic state is 1-A.
 Alpha  occ. eigenvalues --  -10.62649 -10.62539 -10.61986 -10.61817  -0.92871
 Alpha  occ. eigenvalues --   -0.85170  -0.69627  -0.63782  -0.54458  -0.53648
 Alpha  occ. eigenvalues --   -0.47179  -0.45050  -0.40735  -0.37811  -0.28058
 Alpha virt. eigenvalues --    0.01875   0.06948   0.07390   0.07969   0.09605
 Alpha virt. eigenvalues --    0.11624   0.12418   0.14381   0.15791   0.16051
 Alpha virt. eigenvalues --    0.18842   0.20474   0.21232   0.22644   0.23733

 Mulliken charges:
               1
     1  C   -0.169455
     2  C   -0.025790
     3  C   -0.036456
     4  C   -0.172608
     5  H    0.091445
     6  H    0.052169
     7  H    0.048877
     8  H    0.055986
     9  H    0.070035
    10  H    0.085797
 Sum of Mulliken charges =   0.00000

 Dipole moment (field-independent basis, Debye):
    X=              0.0131    Y=             -0.0087    Z=              0.1435  Tot=              0.1444
 Quadrupole moment (field-independent basis, Debye-Ang):
   XX=            -23.4593   YY=            -23.2963   ZZ=            -29.2458
   XY=             -0.1155   XZ=             -0.0392   YZ=             -0.1083

 1\1\GINC-NODE11\SP\RB2PLYPD3-FC\def2QZVP\C4H6\BOITTIER\26-Aug-2020\0\\
 #p B2PLYPD3/Def2QZVP\\butadiene\\0,1\C,0,-3.854267,0.201134,-0.01072\C
 ,0,-2.732011,-0.479887,0.078363\C,0,-1.36862,0.072759,0.03839\C,0,-0.2
 51727,-0.659307,0.012792\H,0,-4.857462,-0.222865,-0.152076\H,0,-3.7820
 62,1.329837,0.017899\H,0,-2.804209,-1.57249,0.16589\H,0,-1.309532,1.14
 0451,0.028006\H,0,-0.310225,-1.738612,-0.03093\H,0,0.719825,-0.159594,
 -0.10783\\Version=ES64L-G09RevD.01\State=1-A\HF=-155.6958102\MP2=-155.
 92165\RMSD=5.905e-09\PG=C01 [X(C4H6)]\\@

 Normal termination of Gaussian 09 at Wed Aug 26 09:02:34 2020.
