 Gaussian 09, Revision D.01,
 Gaussian 09:  ES64L-G09RevD.01 24-Apr-2013

 --------------------
 #p B2PLYPD3/Def2QZVP
 --------------------

 ---------
 butadiene
 ---------
 Symbolic Z-matrix:
 Charge =  0 Multiplicity = 1

                         Standard orientation:
 ---------------------------------------------------------------------
 Center     Atomic      Atomic             Coordinates (Angstroms)
 Number     Number       Type             X           Y           Z
 ---------------------------------------------------------------------
      1          6           0        1.845540    0.118421   -0.025129
      2          6           0        0.610271   -0.410486    0.011877
      3          6           0       -0.602461    0.381523    0.012737
      4          6           0       -1.843019   -0.102811   -0.011933
      5          1           0        2.710356   -0.523682   -0.008534
      6          1           0        1.969432    1.202950    0.014773
      7          1           0        0.476445   -1.471097    0.082464
      8          1           0       -0.450317    1.457705    0.042224
      9          1           0       -2.066861   -1.167828   -0.046202
     10          1           0       -2.701047    0.582074   -0.010039
 ---------------------------------------------------------------------

 SCF Done:  E(RB2PLYPD3) =  -155.700227254     A.U. after   11 cycles
 E2(B2PLYPD3) =    -0.2259162132D+00 E(B2PLYPD3) =    -0.15592614346748D+03

 The electronic state is 1-A.
 Alpha  occ. eigenvalues --  -10.62455 -10.62394 -10.61765 -10.61723  -0.93003
 Alpha  occ. eigenvalues --   -0.84812  -0.70171  -0.64082  -0.54559  -0.53725
 Alpha  occ. eigenvalues --   -0.46657  -0.45775  -0.41110  -0.38052  -0.27641
 Alpha virt. eigenvalues --    0.01598   0.06972   0.07415   0.08049   0.09662
 Alpha virt. eigenvalues --    0.11702   0.12318   0.14762   0.15807   0.16039
 Alpha virt. eigenvalues --    0.18766   0.20551   0.21430   0.22692   0.23929

 Mulliken charges:
               1
     1  C   -0.177728
     2  C   -0.034319
     3  C   -0.024779
     4  C   -0.177834
     5  H    0.088505
     6  H    0.067036
     7  H    0.056649
     8  H    0.051426
     9  H    0.067592
    10  H    0.083453
 Sum of Mulliken charges =   0.00000

 Dipole moment (field-independent basis, Debye):
    X=              0.0061    Y=             -0.0282    Z=              0.0850  Tot=              0.0898
 Quadrupole moment (field-independent basis, Debye-Ang):
   XX=            -23.5848   YY=            -23.0738   ZZ=            -29.3053
   XY=              0.1413   XZ=              0.1628   YZ=              0.0254

 1\1\GINC-NODE26\SP\RB2PLYPD3-FC\def2QZVP\C4H6\BOITTIER\26-Aug-2020\0\\
 #p B2PLYPD3/Def2QZVP\\butadiene\\0,1\C,0,-3.844385,0.236375,0.038713\C
 ,0,-2.724999,-0.507716,0.021306\C,0,-1.389203,0.051953,0.000875\C,0,-0
 .25643,-0.647442,0.043815\H,0,-4.810957,-0.239249,0.03837\H,0,-3.77051
 4,1.323781,-0.033654\H,0,-2.785025,-1.57668,-0.017442\H,0,-1.344603,1.
 136562,-0.060925\H,0,-0.228484,-1.733877,0.110293\H,0,0.711149,-0.1290
 81,0.02439\\Version=ES64L-G09RevD.01\State=1-A\HF=-155.7002273\MP2=-15
 5.9261435\RMSD=5.684e-09\PG=C01 [X(C4H6)]\\@

 Normal termination of Gaussian 09 at Wed Aug 26 18:41:14 2020.
