 Gaussian 09, Revision D.01,
 Gaussian 09:  ES64L-G09RevD.01 24-Apr-2013

 --------------------
 #p B2PLYPD3/Def2QZVP
 --------------------

 ---------
 butadiene
 ---------
 Symbolic Z-matrix:
 Charge =  0 Multiplicity = 1

                         Standard orientation:
 ---------------------------------------------------------------------
 Center     Atomic      Atomic             Coordinates (Angstroms)
 Number     Number       Type             X           Y           Z
 ---------------------------------------------------------------------
      1          6           0       -1.836071   -0.125841    0.012290
      2          6           0       -0.610856    0.403245   -0.008770
      3          6           0        0.611857   -0.385363   -0.016682
      4          6           0        1.849403    0.108330    0.010158
      5          1           0       -2.698807    0.516733   -0.038707
      6          1           0       -1.997665   -1.177853    0.082647
      7          1           0       -0.536860    1.514059   -0.037791
      8          1           0        0.467124   -1.455534   -0.048538
      9          1           0        2.014836    1.170682    0.071048
     10          1           0        2.665369   -0.570312   -0.010636
 ---------------------------------------------------------------------

 SCF Done:  E(RB2PLYPD3) =  -155.700191793     A.U. after   11 cycles
 E2(B2PLYPD3) =    -0.2254922338D+00 E(B2PLYPD3) =    -0.15592568402659D+03

 The electronic state is 1-A.
 Alpha  occ. eigenvalues --  -10.62723 -10.62371 -10.61262 -10.61171  -0.92935
 Alpha  occ. eigenvalues --   -0.85167  -0.70251  -0.63829  -0.54672  -0.54197
 Alpha  occ. eigenvalues --   -0.46413  -0.46038  -0.41162  -0.38063  -0.27732
 Alpha virt. eigenvalues --    0.01770   0.07027   0.07422   0.08026   0.09708
 Alpha virt. eigenvalues --    0.11726   0.12328   0.14824   0.15911   0.16043
 Alpha virt. eigenvalues --    0.18774   0.20558   0.21426   0.22752   0.24066

 Mulliken charges:
               1
     1  C   -0.179003
     2  C   -0.025600
     3  C   -0.031196
     4  C   -0.180035
     5  H    0.085574
     6  H    0.067869
     7  H    0.048285
     8  H    0.052879
     9  H    0.071506
    10  H    0.089720
 Sum of Mulliken charges =   0.00000

 Dipole moment (field-independent basis, Debye):
    X=             -0.0310    Y=             -0.0241    Z=              0.0088  Tot=              0.0402
 Quadrupole moment (field-independent basis, Debye-Ang):
   XX=            -23.6100   YY=            -22.9895   ZZ=            -29.2348
   XY=              0.0503   XZ=              0.0664   YZ=             -0.0216

 1\1\GINC-NODE17\SP\RB2PLYPD3-FC\def2QZVP\C4H6\BOITTIER\26-Aug-2020\0\\
 #p B2PLYPD3/Def2QZVP\\butadiene\\0,1\C,0,-3.838576,0.233624,0.006351\C
 ,0,-2.726311,-0.503172,0.045408\C,0,-1.38327,0.056292,0.030192\C,0,-0.
 25281,-0.649353,0.020282\H,0,-4.801221,-0.244115,0.076329\H,0,-3.81166
 3,1.294937,-0.097004\H,0,-2.850028,-1.608095,0.109176\H,0,-1.336105,1.
 135644,0.028453\H,0,-0.278344,-1.725578,-0.007218\H,0,0.6705,-0.12563,
 0.020878\\Version=ES64L-G09RevD.01\State=1-A\HF=-155.7001918\MP2=-155.
 925684\RMSD=2.182e-09\PG=C01 [X(C4H6)]\\@

 Normal termination of Gaussian 09 at Wed Aug 26 21:56:32 2020.
