 Gaussian 09, Revision D.01,
 Gaussian 09:  ES64L-G09RevD.01 24-Apr-2013

 --------------------
 #p B2PLYPD3/Def2QZVP
 --------------------

 ---------
 butadiene
 ---------
 Symbolic Z-matrix:
 Charge =  0 Multiplicity = 1

                         Standard orientation:
 ---------------------------------------------------------------------
 Center     Atomic      Atomic             Coordinates (Angstroms)
 Number     Number       Type             X           Y           Z
 ---------------------------------------------------------------------
      1          6           0       -1.846789    0.102013    0.020424
      2          6           0       -0.616508   -0.388799   -0.032615
      3          6           0        0.614082    0.415608   -0.021928
      4          6           0        1.846033   -0.121652    0.029360
      5          1           0       -2.666167   -0.560267    0.082391
      6          1           0       -2.028364    1.173812    0.006738
      7          1           0       -0.479638   -1.451758   -0.042495
      8          1           0        0.478042    1.492461   -0.050178
      9          1           0        1.981720   -1.186100   -0.013900
     10          1           0        2.733505    0.488831    0.046004
 ---------------------------------------------------------------------

 SCF Done:  E(RB2PLYPD3) =  -155.700518833     A.U. after   11 cycles
 E2(B2PLYPD3) =    -0.2254162429D+00 E(B2PLYPD3) =    -0.15592593507543D+03

 The electronic state is 1-A.
 Alpha  occ. eigenvalues --  -10.62808 -10.62261 -10.61565 -10.61097  -0.92772
 Alpha  occ. eigenvalues --   -0.85062  -0.70191  -0.64185  -0.54714  -0.54001
 Alpha  occ. eigenvalues --   -0.46853  -0.45953  -0.41160  -0.37849  -0.27782
 Alpha virt. eigenvalues --    0.01829   0.07024   0.07461   0.08146   0.09536
 Alpha virt. eigenvalues --    0.11694   0.12434   0.14723   0.15928   0.16079
 Alpha virt. eigenvalues --    0.18839   0.20538   0.21503   0.22941   0.24018

 Mulliken charges:
               1
     1  C   -0.178386
     2  C   -0.027389
     3  C   -0.037269
     4  C   -0.175522
     5  H    0.088355
     6  H    0.066752
     7  H    0.054067
     8  H    0.055706
     9  H    0.067180
    10  H    0.086505
 Sum of Mulliken charges =   0.00000

 Dipole moment (field-independent basis, Debye):
    X=              0.0064    Y=             -0.0161    Z=             -0.0130  Tot=              0.0217
 Quadrupole moment (field-independent basis, Debye-Ang):
   XX=            -23.4890   YY=            -23.0395   ZZ=            -29.2477
   XY=             -0.1241   XZ=             -0.1642   YZ=             -0.0215

 1\1\GINC-NODE12\SP\RB2PLYPD3-FC\def2QZVP\C4H6\BOITTIER\26-Aug-2020\0\\
 #p B2PLYPD3/Def2QZVP\\butadiene\\0,1\C,0,-3.850726,0.215046,0.04122\C,
 0,-2.728057,-0.488928,0.004661\C,0,-1.373642,0.082816,-0.009685\C,0,-0
 .257082,-0.663835,0.059518\H,0,-4.7748,-0.288034,0.123876\H,0,-3.83820
 6,1.301065,-0.006892\H,0,-2.783107,-1.559018,0.02891\H,0,-1.315491,1.1
 65217,-0.072488\H,0,-0.313734,-1.736235,0.050451\H,0,0.725153,-0.22136
 4,0.057132\\Version=ES64L-G09RevD.01\State=1-A\HF=-155.7005188\MP2=-15
 5.9259351\RMSD=5.743e-09\PG=C01 [X(C4H6)]\\@

 Normal termination of Gaussian 09 at Wed Aug 26 15:51:57 2020.
