 Gaussian 09, Revision D.01,
 Gaussian 09:  ES64L-G09RevD.01 24-Apr-2013

 --------------------
 #p B2PLYPD3/Def2QZVP
 --------------------

 ---------
 butadiene
 ---------
 Symbolic Z-matrix:
 Charge =  0 Multiplicity = 1

                         Standard orientation:
 ---------------------------------------------------------------------
 Center     Atomic      Atomic             Coordinates (Angstroms)
 Number     Number       Type             X           Y           Z
 ---------------------------------------------------------------------
      1          6           0       -1.833686    0.108792    0.025714
      2          6           0       -0.594113   -0.403022   -0.024765
      3          6           0        0.604315    0.412075   -0.018888
      4          6           0        1.830032   -0.109077    0.013816
      5          1           0       -2.715247   -0.531398    0.055838
      6          1           0       -2.028265    1.158456   -0.042736
      7          1           0       -0.454410   -1.468291   -0.052284
      8          1           0        0.465381    1.492686   -0.000242
      9          1           0        1.946083   -1.177047    0.029393
     10          1           0        2.747176    0.472987    0.034762
 ---------------------------------------------------------------------

 SCF Done:  E(RB2PLYPD3) =  -155.700573465     A.U. after   11 cycles
 E2(B2PLYPD3) =    -0.2257306289D+00 E(B2PLYPD3) =    -0.15592630409435D+03

 The electronic state is 1-A.
 Alpha  occ. eigenvalues --  -10.62543 -10.62478 -10.61521 -10.61420  -0.93100
 Alpha  occ. eigenvalues --   -0.84793  -0.70172  -0.64391  -0.54659  -0.53925
 Alpha  occ. eigenvalues --   -0.46755  -0.45538  -0.41326  -0.38147  -0.27567
 Alpha virt. eigenvalues --    0.01713   0.07020   0.07437   0.08088   0.09482
 Alpha virt. eigenvalues --    0.11681   0.12579   0.14681   0.15873   0.16241
 Alpha virt. eigenvalues --    0.18762   0.20486   0.21786   0.22988   0.23731

 Mulliken charges:
               1
     1  C   -0.176908
     2  C   -0.033159
     3  C   -0.026976
     4  C   -0.173237
     5  H    0.081103
     6  H    0.068455
     7  H    0.058153
     8  H    0.055380
     9  H    0.061414
    10  H    0.085775
 Sum of Mulliken charges =   0.00000

 Dipole moment (field-independent basis, Debye):
    X=              0.0152    Y=              0.0015    Z=             -0.0121  Tot=              0.0195
 Quadrupole moment (field-independent basis, Debye-Ang):
   XX=            -23.4018   YY=            -23.1399   ZZ=            -29.2564
   XY=             -0.2048   XZ=              0.1154   YZ=             -0.0425

 1\1\GINC-NODE27\SP\RB2PLYPD3-FC\def2QZVP\C4H6\BOITTIER\26-Aug-2020\0\\
 #p B2PLYPD3/Def2QZVP\\butadiene\\0,1\C,0,-3.836452,0.224639,0.042283\C
 ,0,-2.710474,-0.504923,0.011393\C,0,-1.384031,0.07897,-0.00492\C,0,-0.
 27313,-0.654647,0.047586\H,0,-4.819448,-0.243702,0.089986\H,0,-3.83754
 3,1.289513,-0.059619\H,0,-2.766458,-1.578188,0.017707\H,0,-1.324532,1.
 166897,-0.020582\H,0,-0.352739,-1.724924,0.096993\H,0,0.73446,-0.24829
 2,0.052851\\Version=ES64L-G09RevD.01\State=1-A\HF=-155.7005735\MP2=-15
 5.9263041\RMSD=4.714e-09\PG=C01 [X(C4H6)]\\@

 Normal termination of Gaussian 09 at Wed Aug 26 15:07:52 2020.
