 Gaussian 09, Revision D.01,
 Gaussian 09:  ES64L-G09RevD.01 24-Apr-2013

 --------------------
 #p B2PLYPD3/Def2QZVP
 --------------------

 ---------
 butadiene
 ---------
 Symbolic Z-matrix:
 Charge =  0 Multiplicity = 1

                         Standard orientation:
 ---------------------------------------------------------------------
 Center     Atomic      Atomic             Coordinates (Angstroms)
 Number     Number       Type             X           Y           Z
 ---------------------------------------------------------------------
      1          6           0        1.829294    0.073626    0.102398
      2          6           0        0.589269   -0.356950   -0.106525
      3          6           0       -0.573033    0.447906   -0.045798
      4          6           0       -1.829294   -0.129722    0.051115
      5          1           0        2.508548   -0.675293    0.176700
      6          1           0        2.100871    1.107090   -0.116938
      7          1           0        0.396977   -1.419974   -0.130639
      8          1           0       -0.372142    1.550364   -0.117794
      9          1           0       -1.931664   -1.244709   -0.028788
     10          1           0       -2.800005    0.473365    0.210314
 ---------------------------------------------------------------------

 SCF Done:  E(RB2PLYPD3) =  -155.677035437     A.U. after   12 cycles
 E2(B2PLYPD3) =    -0.2281580446D+00 E(B2PLYPD3) =    -0.15590519348169D+03

 The electronic state is 1-A.
 Alpha  occ. eigenvalues --  -10.63668 -10.63516 -10.61928 -10.60601  -0.93494
 Alpha  occ. eigenvalues --   -0.84234  -0.70429  -0.63626  -0.54660  -0.52975
 Alpha  occ. eigenvalues --   -0.46381  -0.45348  -0.41880  -0.37742  -0.26919
 Alpha virt. eigenvalues --    0.00831   0.06915   0.07168   0.08009   0.09175
 Alpha virt. eigenvalues --    0.11645   0.12241   0.14768   0.15878   0.16028
 Alpha virt. eigenvalues --    0.18379   0.19886   0.21271   0.23072   0.24404

 Mulliken charges:
               1
     1  C   -0.177276
     2  C   -0.017368
     3  C   -0.030249
     4  C   -0.178135
     5  H    0.079514
     6  H    0.072877
     7  H    0.046179
     8  H    0.053754
     9  H    0.067128
    10  H    0.083575
 Sum of Mulliken charges =   0.00000

 Dipole moment (field-independent basis, Debye):
    X=             -0.0081    Y=             -0.0552    Z=             -0.1346  Tot=              0.1457
 Quadrupole moment (field-independent basis, Debye-Ang):
   XX=            -24.0771   YY=            -23.0890   ZZ=            -29.3408
   XY=              0.3012   XZ=             -0.3792   YZ=             -0.1694

 1\1\GINC-NODE38\SP\RB2PLYPD3-FC\def2QZVP\C4H6\BOITTIER\26-Aug-2020\0\\
 #p B2PLYPD3/Def2QZVP\\butadiene\\0,1\C,0,-3.832725,0.204318,-0.073575\
 C,0,-2.697614,-0.455108,0.134719\C,0,-1.402775,0.111771,0.067859\C,0,-
 0.280814,-0.696346,-0.029037\H,0,-4.643149,-0.400808,-0.143013\H,0,-3.
 900532,1.271566,0.141584\H,0,-2.712572,-1.535171,0.163309\H,0,-1.38841
 6,1.232579,0.135216\H,0,-0.393823,-1.809942,0.055768\H,0,0.787022,-0.2
 91172,-0.19304\\Version=ES64L-G09RevD.01\State=1-A\HF=-155.6770354\MP2
 =-155.9051935\RMSD=4.558e-09\PG=C01 [X(C4H6)]\\@

 Normal termination of Gaussian 09 at Wed Aug 26 15:54:48 2020.
