 Gaussian 09, Revision D.01,
 Gaussian 09:  ES64L-G09RevD.01 24-Apr-2013

 --------------------
 #p B2PLYPD3/Def2QZVP
 --------------------

 ---------
 butadiene
 ---------
 Symbolic Z-matrix:
 Charge =  0 Multiplicity = 1

                         Standard orientation:
 ---------------------------------------------------------------------
 Center     Atomic      Atomic             Coordinates (Angstroms)
 Number     Number       Type             X           Y           Z
 ---------------------------------------------------------------------
      1          6           0        1.833622   -0.102789    0.024604
      2          6           0        0.599330    0.390790   -0.020795
      3          6           0       -0.611377   -0.422358   -0.026690
      4          6           0       -1.839274    0.118518    0.009536
      5          1           0        2.705434    0.536740   -0.013327
      6          1           0        2.014422   -1.182356   -0.000659
      7          1           0        0.501485    1.492808    0.028659
      8          1           0       -0.473588   -1.500197    0.007509
      9          1           0       -1.912342    1.219666   -0.004924
     10          1           0       -2.729213   -0.471624    0.062813
 ---------------------------------------------------------------------

 SCF Done:  E(RB2PLYPD3) =  -155.699265787     A.U. after   11 cycles
 E2(B2PLYPD3) =    -0.2260694011D+00 E(B2PLYPD3) =    -0.15592533518770D+03

 The electronic state is 1-A.
 Alpha  occ. eigenvalues --  -10.62781 -10.62665 -10.61769 -10.61460  -0.92891
 Alpha  occ. eigenvalues --   -0.84869  -0.69837  -0.63762  -0.54705  -0.53686
 Alpha  occ. eigenvalues --   -0.46544  -0.45218  -0.41231  -0.38082  -0.27697
 Alpha virt. eigenvalues --    0.01782   0.07037   0.07300   0.08026   0.09465
 Alpha virt. eigenvalues --    0.11676   0.12466   0.14519   0.15831   0.16155
 Alpha virt. eigenvalues --    0.18736   0.20203   0.21562   0.22894   0.24035

 Mulliken charges:
               1
     1  C   -0.175127
     2  C   -0.022605
     3  C   -0.036811
     4  C   -0.172993
     5  H    0.084928
     6  H    0.060880
     7  H    0.049966
     8  H    0.056295
     9  H    0.064172
    10  H    0.091295
 Sum of Mulliken charges =   0.00000

 Dipole moment (field-independent basis, Debye):
    X=             -0.0136    Y=             -0.0253    Z=              0.0388  Tot=              0.0482
 Quadrupole moment (field-independent basis, Debye-Ang):
   XX=            -23.5393   YY=            -23.0942   ZZ=            -29.3386
   XY=              0.0510   XZ=             -0.2343   YZ=             -0.0281

 1\1\GINC-NODE14\SP\RB2PLYPD3-FC\def2QZVP\C4H6\BOITTIER\26-Aug-2020\0\\
 #p B2PLYPD3/Def2QZVP\\butadiene\\0,1\C,0,-3.84047,0.212191,0.041611\C,
 0,-2.713935,-0.494473,0.015098\C,0,-1.377749,0.089482,-0.010581\C,0,-0
 .265783,-0.660141,0.045869\H,0,-4.812334,-0.262664,0.019538\H,0,-3.826
 105,1.305466,-0.016136\H,0,-2.813883,-1.594337,0.097398\H,0,-1.32126,1
 .17516,-0.008691\H,0,-0.390074,-1.756632,0.064172\H,0,0.715147,-0.2366
 35,0.084802\\Version=ES64L-G09RevD.01\State=1-A\HF=-155.6992658\MP2=-1
 55.9253352\RMSD=5.487e-09\PG=C01 [X(C4H6)]\\@

 Normal termination of Gaussian 09 at Wed Aug 26 08:55:06 2020.
