 Gaussian 09, Revision D.01,
 Gaussian 09:  ES64L-G09RevD.01 24-Apr-2013

 --------------------
 #p B2PLYPD3/Def2QZVP
 --------------------

 ---------
 butadiene
 ---------
 Symbolic Z-matrix:
 Charge =  0 Multiplicity = 1

                         Standard orientation:
 ---------------------------------------------------------------------
 Center     Atomic      Atomic             Coordinates (Angstroms)
 Number     Number       Type             X           Y           Z
 ---------------------------------------------------------------------
      1          6           0       -1.812815   -0.141299    0.043880
      2          6           0       -0.642768    0.444794   -0.032963
      3          6           0        0.599330   -0.369696   -0.005010
      4          6           0        1.837321    0.095647    0.000756
      5          1           0       -2.837137    0.398323    0.030958
      6          1           0       -1.671856   -1.274178    0.095255
      7          1           0       -0.514976    1.539905   -0.288159
      8          1           0        0.419315   -1.440505   -0.153668
      9          1           0        2.044251    1.196371    0.339931
     10          1           0        2.673999   -0.596589   -0.064301
 ---------------------------------------------------------------------

 SCF Done:  E(RB2PLYPD3) =  -155.676956465     A.U. after   11 cycles
 E2(B2PLYPD3) =    -0.2272684946D+00 E(B2PLYPD3) =    -0.15590422495969D+03

 The electronic state is 1-A.
 Alpha  occ. eigenvalues --  -10.62924 -10.62738 -10.62705 -10.62162  -0.93039
 Alpha  occ. eigenvalues --   -0.85085  -0.68286  -0.62895  -0.53958  -0.52707
 Alpha  occ. eigenvalues --   -0.46890  -0.43969  -0.40349  -0.37698  -0.28353
 Alpha virt. eigenvalues --    0.02200   0.06972   0.07101   0.07551   0.08969
 Alpha virt. eigenvalues --    0.11648   0.12279   0.14193   0.15040   0.16044
 Alpha virt. eigenvalues --    0.18282   0.19542   0.20895   0.22364   0.24460

 Mulliken charges:
               1
     1  C   -0.161045
     2  C   -0.036186
     3  C   -0.029198
     4  C   -0.181804
     5  H    0.093266
     6  H    0.052341
     7  H    0.060686
     8  H    0.049933
     9  H    0.067617
    10  H    0.084389
 Sum of Mulliken charges =   0.00000

 Dipole moment (field-independent basis, Debye):
    X=             -0.0939    Y=             -0.0136    Z=             -0.0598  Tot=              0.1121
 Quadrupole moment (field-independent basis, Debye-Ang):
   XX=            -23.8443   YY=            -23.5176   ZZ=            -29.2534
   XY=             -0.4491   XZ=              0.3322   YZ=              0.2133

 1\1\GINC-NODE05\SP\RB2PLYPD3-FC\def2QZVP\C4H6\BOITTIER\26-Aug-2020\0\\
 #p B2PLYPD3/Def2QZVP\\butadiene\\0,1\C,0,-3.811252,0.236675,-0.015868\
 C,0,-2.75856,-0.539534,0.072211\C,0,-1.395403,0.048863,0.021484\C,0,-0
 .255613,-0.622011,0.02389\H,0,-4.912829,-0.118728,0.012645\H,0,-3.4784
 56,1.327048,-0.094967\H,0,-2.818771,-1.634058,0.353489\H,0,-1.388142,1
 .137859,0.144658\H,0,-0.242745,-1.749545,-0.289088\H,0,0.687788,-0.082
 279,0.070111\\Version=ES64L-G09RevD.01\State=1-A\HF=-155.6769565\MP2=-
 155.904225\RMSD=5.028e-09\PG=C01 [X(C4H6)]\\@

 Normal termination of Gaussian 09 at Wed Aug 26 14:19:54 2020.
