 Gaussian 09, Revision D.01,
 Gaussian 09:  ES64L-G09RevD.01 24-Apr-2013

 --------------------
 #p B2PLYPD3/Def2QZVP
 --------------------

 ---------
 butadiene
 ---------
 Symbolic Z-matrix:
 Charge =  0 Multiplicity = 1

                         Standard orientation:
 ---------------------------------------------------------------------
 Center     Atomic      Atomic             Coordinates (Angstroms)
 Number     Number       Type             X           Y           Z
 ---------------------------------------------------------------------
      1          6           0        1.802775   -0.117361    0.032481
      2          6           0        0.572499    0.400963   -0.049201
      3          6           0       -0.579925   -0.386847   -0.025999
      4          6           0       -1.842009    0.080755   -0.003757
      5          1           0        2.707451    0.555455   -0.054476
      6          1           0        2.076215   -1.145249    0.186402
      7          1           0        0.461003    1.547703   -0.012719
      8          1           0       -0.279115   -1.416518   -0.106431
      9          1           0       -2.001277    1.166730    0.199947
     10          1           0       -2.684314   -0.573180    0.066139
 ---------------------------------------------------------------------

 SCF Done:  E(RB2PLYPD3) =  -155.685712022     A.U. after   11 cycles
 E2(B2PLYPD3) =    -0.2273058346D+00 E(B2PLYPD3) =    -0.15591301785644D+03

 The electronic state is 1-A.
 Alpha  occ. eigenvalues --  -10.62800 -10.62192 -10.62151 -10.61955  -0.93919
 Alpha  occ. eigenvalues --   -0.84413  -0.70879  -0.63548  -0.55147  -0.53025
 Alpha  occ. eigenvalues --   -0.46498  -0.45080  -0.40830  -0.38679  -0.27226
 Alpha virt. eigenvalues --    0.00941   0.06949   0.07168   0.07956   0.09664
 Alpha virt. eigenvalues --    0.11722   0.12305   0.15012   0.15417   0.16316
 Alpha virt. eigenvalues --    0.18631   0.19597   0.22020   0.22574   0.23422

 Mulliken charges:
               1
     1  C   -0.180335
     2  C   -0.006356
     3  C   -0.029299
     4  C   -0.174947
     5  H    0.073709
     6  H    0.068801
     7  H    0.044241
     8  H    0.053135
     9  H    0.063594
    10  H    0.087457
 Sum of Mulliken charges =   0.00000

 Dipole moment (field-independent basis, Debye):
    X=              0.1267    Y=             -0.0865    Z=              0.2245  Tot=              0.2719
 Quadrupole moment (field-independent basis, Debye-Ang):
   XX=            -23.6575   YY=            -23.3636   ZZ=            -29.2382
   XY=             -0.4551   XZ=             -0.3213   YZ=              0.0684

 1\1\GINC-NODE15\SP\RB2PLYPD3-FC\def2QZVP\C4H6\BOITTIER\26-Aug-2020\0\\
 #p B2PLYPD3/Def2QZVP\\butadiene\\0,1\C,0,-3.804177,0.246696,0.04882\C,
 0,-2.696934,-0.501402,-0.008398\C,0,-1.4143,0.050062,-0.007105\C,0,-0.
 265885,-0.650735,0.037913\H,0,-4.821669,-0.241969,-0.018984\H,0,-3.874
 217,1.312801,0.165134\H,0,-2.808349,-1.646121,0.068934\H,0,-1.511285,1
 .114875,-0.125196\H,0,-0.318411,-1.739135,0.280466\H,0,0.686736,-0.169
 18,0.089016\\Version=ES64L-G09RevD.01\State=1-A\HF=-155.685712\MP2=-15
 5.9130179\RMSD=6.241e-09\PG=C01 [X(C4H6)]\\@

 Normal termination of Gaussian 09 at Wed Aug 26 15:31:02 2020.
