 Gaussian 09, Revision D.01,
 Gaussian 09:  ES64L-G09RevD.01 24-Apr-2013

 --------------------
 #p B2PLYPD3/Def2QZVP
 --------------------

 ---------
 butadiene
 ---------
 Symbolic Z-matrix:
 Charge =  0 Multiplicity = 1

                         Standard orientation:
 ---------------------------------------------------------------------
 Center     Atomic      Atomic             Coordinates (Angstroms)
 Number     Number       Type             X           Y           Z
 ---------------------------------------------------------------------
      1          6           0       -1.835360   -0.144007    0.018385
      2          6           0       -0.633254    0.436971   -0.084287
      3          6           0        0.597840   -0.340178   -0.114439
      4          6           0        1.854550    0.090189    0.059747
      5          1           0       -2.812814    0.449882    0.187819
      6          1           0       -2.035428   -1.180959    0.249312
      7          1           0       -0.427854    1.524788    0.097925
      8          1           0        0.568351   -1.442083   -0.114212
      9          1           0        2.215005    1.030974    0.036349
     10          1           0        2.590080   -0.640448    0.266375
 ---------------------------------------------------------------------

 SCF Done:  E(RB2PLYPD3) =  -155.677165122     A.U. after   11 cycles
 E2(B2PLYPD3) =    -0.2268250058D+00 E(B2PLYPD3) =    -0.15590399012751D+03

 The electronic state is 1-A.
 Alpha  occ. eigenvalues --  -10.63697 -10.62735 -10.62698 -10.60442  -0.92818
 Alpha  occ. eigenvalues --   -0.85054  -0.70728  -0.64109  -0.54764  -0.53902
 Alpha  occ. eigenvalues --   -0.47327  -0.44723  -0.40396  -0.37818  -0.27599
 Alpha virt. eigenvalues --    0.01109   0.06857   0.07402   0.07838   0.09221
 Alpha virt. eigenvalues --    0.11512   0.12594   0.14707   0.15669   0.16554
 Alpha virt. eigenvalues --    0.18844   0.19865   0.21319   0.23324   0.23759

 Mulliken charges:
               1
     1  C   -0.151232
     2  C   -0.049540
     3  C   -0.016049
     4  C   -0.176191
     5  H    0.063807
     6  H    0.072579
     7  H    0.066109
     8  H    0.049378
     9  H    0.069263
    10  H    0.071876
 Sum of Mulliken charges =   0.00000

 Dipole moment (field-independent basis, Debye):
    X=              0.0508    Y=             -0.0150    Z=              0.4983  Tot=              0.5011
 Quadrupole moment (field-independent basis, Debye-Ang):
   XX=            -23.4469   YY=            -23.4060   ZZ=            -29.1009
   XY=              0.6072   XZ=             -0.3390   YZ=             -0.1481

 1\1\GINC-NODE26\SP\RB2PLYPD3-FC\def2QZVP\C4H6\BOITTIER\26-Aug-2020\0\\
 #p B2PLYPD3/Def2QZVP\\butadiene\\0,1\C,0,-3.828795,0.258226,-0.024248\
 C,0,-2.750165,-0.523332,0.113085\C,0,-1.399447,0.020747,0.111618\C,0,-
 0.241062,-0.636233,-0.03466\H,0,-4.897598,-0.158165,-0.169535\H,0,-3.8
 40276,1.30163,-0.306737\H,0,-2.744066,-1.637966,-0.014544\H,0,-1.23062
 6,1.108685,0.057266\H,0,-0.055287,-1.624134,0.036686\H,0,0.61294,-0.06
 0535,-0.272951\\Version=ES64L-G09RevD.01\State=1-A\HF=-155.6771651\MP2
 =-155.9039901\RMSD=5.501e-09\PG=C01 [X(C4H6)]\\@

 Normal termination of Gaussian 09 at Wed Aug 26 14:57:40 2020.
