 Gaussian 09, Revision D.01,
 Gaussian 09:  ES64L-G09RevD.01 24-Apr-2013

 --------------------
 #p B2PLYPD3/Def2QZVP
 --------------------

 ---------
 butadiene
 ---------
 Symbolic Z-matrix:
 Charge =  0 Multiplicity = 1

                         Standard orientation:
 ---------------------------------------------------------------------
 Center     Atomic      Atomic             Coordinates (Angstroms)
 Number     Number       Type             X           Y           Z
 ---------------------------------------------------------------------
      1          6           0        1.861258   -0.128640    0.020718
      2          6           0        0.612735    0.423299   -0.122331
      3          6           0       -0.618714   -0.354016   -0.052232
      4          6           0       -1.840686    0.086558    0.051475
      5          1           0        2.820693    0.402939    0.266686
      6          1           0        1.951279   -1.176887    0.109646
      7          1           0        0.504402    1.440737    0.110006
      8          1           0       -0.538286   -1.418235   -0.048569
      9          1           0       -2.052907    1.143168    0.047780
     10          1           0       -2.772740   -0.554929    0.128671
 ---------------------------------------------------------------------

 SCF Done:  E(RB2PLYPD3) =  -155.684322680     A.U. after   11 cycles
 E2(B2PLYPD3) =    -0.2264683415D+00 E(B2PLYPD3) =    -0.15591079102101D+03

 The electronic state is 1-A.
 Alpha  occ. eigenvalues --  -10.63069 -10.62642 -10.62002 -10.61483  -0.93093
 Alpha  occ. eigenvalues --   -0.84933  -0.70210  -0.64671  -0.54392  -0.53972
 Alpha  occ. eigenvalues --   -0.47145  -0.44932  -0.40690  -0.38045  -0.27815
 Alpha virt. eigenvalues --    0.01182   0.06928   0.07594   0.08003   0.09349
 Alpha virt. eigenvalues --    0.11504   0.12740   0.14368   0.15416   0.16744
 Alpha virt. eigenvalues --    0.18962   0.19568   0.21972   0.23182   0.23509

 Mulliken charges:
               1
     1  C   -0.161934
     2  C   -0.048739
     3  C   -0.021242
     4  C   -0.166600
     5  H    0.079105
     6  H    0.062652
     7  H    0.069196
     8  H    0.051580
     9  H    0.056911
    10  H    0.079070
 Sum of Mulliken charges =   0.00000

 Dipole moment (field-independent basis, Debye):
    X=              0.0368    Y=             -0.0539    Z=              0.4362  Tot=              0.4410
 Quadrupole moment (field-independent basis, Debye-Ang):
   XX=            -23.0217   YY=            -23.6397   ZZ=            -29.1314
   XY=             -0.1238   XZ=              0.7412   YZ=              0.1901

 1\1\GINC-NODE18\SP\RB2PLYPD3-FC\def2QZVP\C4H6\BOITTIER\26-Aug-2020\0\\
 #p B2PLYPD3/Def2QZVP\\butadiene\\0,1\C,0,-3.859843,0.239412,0.059787\C
 ,0,-2.728023,-0.526375,-0.068522\C,0,-1.379367,0.026139,-0.030391\C,0,
 -0.251864,-0.617061,0.084094\H,0,-4.894741,-0.108014,0.327877\H,0,-3.7
 65007,1.289693,0.112221\H,0,-2.7963,-1.538644,0.198959\H,0,-1.273142,1
 .087575,-0.063766\H,0,-0.226993,-1.694,0.116673\H,0,0.778398,-0.145748
 ,0.135215\\Version=ES64L-G09RevD.01\State=1-A\HF=-155.6843227\MP2=-155
 .910791\RMSD=8.022e-09\PG=C01 [X(C4H6)]\\@

 Normal termination of Gaussian 09 at Wed Aug 26 15:16:51 2020.
