 Gaussian 09, Revision D.01,
 Gaussian 09:  ES64L-G09RevD.01 24-Apr-2013

 --------------------
 #p B2PLYPD3/Def2QZVP
 --------------------

 ---------
 butadiene
 ---------
 Symbolic Z-matrix:
 Charge =  0 Multiplicity = 1

                         Standard orientation:
 ---------------------------------------------------------------------
 Center     Atomic      Atomic             Coordinates (Angstroms)
 Number     Number       Type             X           Y           Z
 ---------------------------------------------------------------------
      1          6           0        1.844074    0.123300   -0.040200
      2          6           0        0.612449   -0.416027    0.024349
      3          6           0       -0.605445    0.386172    0.042951
      4          6           0       -1.850284   -0.096462   -0.023660
      5          1           0        2.670657   -0.541150   -0.011654
      6          1           0        2.024063    1.172827   -0.046828
      7          1           0        0.534859   -1.491038    0.085693
      8          1           0       -0.431451    1.480019    0.101560
      9          1           0       -2.130627   -1.119375   -0.049260
     10          1           0       -2.672270    0.516825   -0.100147
 ---------------------------------------------------------------------

 SCF Done:  E(RB2PLYPD3) =  -155.696298590     A.U. after   11 cycles
 E2(B2PLYPD3) =    -0.2255052438D+00 E(B2PLYPD3) =    -0.15592180383339D+03

 The electronic state is 1-A.
 Alpha  occ. eigenvalues --  -10.62941 -10.62580 -10.61219 -10.60744  -0.92723
 Alpha  occ. eigenvalues --   -0.85062  -0.70944  -0.64146  -0.55182  -0.54028
 Alpha  occ. eigenvalues --   -0.46679  -0.46232  -0.41258  -0.37771  -0.27583
 Alpha virt. eigenvalues --    0.01591   0.07045   0.07494   0.08103   0.09563
 Alpha virt. eigenvalues --    0.11585   0.12547   0.14993   0.15947   0.16152
 Alpha virt. eigenvalues --    0.18912   0.20528   0.22030   0.22742   0.23576

 Mulliken charges:
               1
     1  C   -0.178319
     2  C   -0.032898
     3  C   -0.033221
     4  C   -0.171339
     5  H    0.084365
     6  H    0.070587
     7  H    0.059377
     8  H    0.053908
     9  H    0.064869
    10  H    0.082672
 Sum of Mulliken charges =   0.00000

 Dipole moment (field-independent basis, Debye):
    X=             -0.0199    Y=             -0.0314    Z=              0.0245  Tot=              0.0446
 Quadrupole moment (field-independent basis, Debye-Ang):
   XX=            -23.2809   YY=            -23.0495   ZZ=            -29.2043
   XY=              0.3717   XZ=              0.3043   YZ=             -0.0526

 1\1\GINC-NODE35\SP\RB2PLYPD3-FC\def2QZVP\C4H6\BOITTIER\26-Aug-2020\0\\
 #p B2PLYPD3/Def2QZVP\\butadiene\\0,1\C,0,-3.842474,0.243374,0.053992\C
 ,0,-2.72981,-0.512825,0.008355\C,0,-1.386116,0.053277,-0.025578\C,0,-0
 .250058,-0.64622,0.058512\H,0,-4.776329,-0.25985,0.038921\H,0,-3.82815
 8,1.307943,0.033132\H,0,-2.849483,-1.585196,-0.025262\H,0,-1.357862,1.
 158633,-0.112757\H,0,-0.160833,-1.702083,0.111332\H,0,0.669978,-0.1912
 1,0.122792\\Version=ES64L-G09RevD.01\State=1-A\HF=-155.6962986\MP2=-15
 5.9218038\RMSD=6.365e-09\PG=C01 [X(C4H6)]\\@

 Normal termination of Gaussian 09 at Wed Aug 26 07:50:21 2020.
