 Gaussian 09, Revision D.01,
 Gaussian 09:  ES64L-G09RevD.01 24-Apr-2013

 --------------------
 #p B2PLYPD3/Def2QZVP
 --------------------

 ---------
 butadiene
 ---------
 Symbolic Z-matrix:
 Charge =  0 Multiplicity = 1

                         Standard orientation:
 ---------------------------------------------------------------------
 Center     Atomic      Atomic             Coordinates (Angstroms)
 Number     Number       Type             X           Y           Z
 ---------------------------------------------------------------------
      1          6           0       -1.825647   -0.128878   -0.009777
      2          6           0       -0.576886    0.482869    0.042292
      3          6           0        0.569159   -0.382425   -0.023669
      4          6           0        1.841006    0.052249   -0.051459
      5          1           0       -2.787196    0.361440   -0.014423
      6          1           0       -2.013317   -1.221507   -0.141218
      7          1           0       -0.420752    1.527624    0.066334
      8          1           0        0.393362   -1.407549    0.245107
      9          1           0        1.988766    1.161956   -0.020542
     10          1           0        2.793344   -0.564856    0.120418
 ---------------------------------------------------------------------

 SCF Done:  E(RB2PLYPD3) =  -155.679798143     A.U. after   11 cycles
 E2(B2PLYPD3) =    -0.2284957943D+00 E(B2PLYPD3) =    -0.15590829393737D+03

 The electronic state is 1-A.
 Alpha  occ. eigenvalues --  -10.63576 -10.62977 -10.62575 -10.62373  -0.92978
 Alpha  occ. eigenvalues --   -0.83571  -0.70137  -0.64612  -0.54538  -0.52800
 Alpha  occ. eigenvalues --   -0.46978  -0.44230  -0.41417  -0.37601  -0.26990
 Alpha virt. eigenvalues --    0.00804   0.06990   0.07214   0.07911   0.08824
 Alpha virt. eigenvalues --    0.11470   0.12613   0.14265   0.15354   0.16653
 Alpha virt. eigenvalues --    0.18767   0.19938   0.21848   0.22861   0.23239

 Mulliken charges:
               1
     1  C   -0.164799
     2  C   -0.052086
     3  C   -0.013544
     4  C   -0.176070
     5  H    0.075964
     6  H    0.062723
     7  H    0.070290
     8  H    0.069537
     9  H    0.047785
    10  H    0.080199
 Sum of Mulliken charges =   0.00000

 Dipole moment (field-independent basis, Debye):
    X=             -0.1505    Y=              0.0200    Z=              0.2578  Tot=              0.2991
 Quadrupole moment (field-independent basis, Debye-Ang):
   XX=            -23.3678   YY=            -23.4090   ZZ=            -29.4669
   XY=              0.4452   XZ=              0.8273   YZ=             -0.1397

 1\1\GINC-NODE29\SP\RB2PLYPD3-FC\def2QZVP\C4H6\BOITTIER\26-Aug-2020\0\\
 #p B2PLYPD3/Def2QZVP\\butadiene\\0,1\C,0,-3.819435,0.262581,0.032129\C
 ,0,-2.711105,-0.578028,-0.004329\C,0,-1.420273,0.053853,0.026997\C,0,-
 0.254608,-0.614841,0.064182\H,0,-4.856812,-0.03441,0.057722\H,0,-3.793
 58,1.374648,0.126856\H,0,-2.757614,-1.633577,0.006774\H,0,-1.39997,1.0
 84295,-0.275992\H,0,-0.321814,-1.732732,0.070676\H,0,0.796135,-0.19719
 9,-0.132848\\Version=ES64L-G09RevD.01\State=1-A\HF=-155.6797981\MP2=-1
 55.9082939\RMSD=9.836e-09\PG=C01 [X(C4H6)]\\@

 Normal termination of Gaussian 09 at Wed Aug 26 13:58:48 2020.
