 Gaussian 09, Revision D.01,
 Gaussian 09:  ES64L-G09RevD.01 24-Apr-2013

 --------------------
 #p B2PLYPD3/Def2QZVP
 --------------------

 ---------
 butadiene
 ---------
 Symbolic Z-matrix:
 Charge =  0 Multiplicity = 1

                         Standard orientation:
 ---------------------------------------------------------------------
 Center     Atomic      Atomic             Coordinates (Angstroms)
 Number     Number       Type             X           Y           Z
 ---------------------------------------------------------------------
      1          6           0       -1.875215    0.124496    0.067345
      2          6           0       -0.645491   -0.447781   -0.024720
      3          6           0        0.610819    0.369984   -0.104379
      4          6           0        1.862444   -0.083278    0.050351
      5          1           0       -2.744845   -0.458889    0.114221
      6          1           0       -1.893338    1.229046   -0.091694
      7          1           0       -0.354182   -1.424211   -0.149224
      8          1           0        0.462849    1.436400   -0.020514
      9          1           0        2.123816   -1.153748    0.002984
     10          1           0        2.690348    0.590871    0.212642
 ---------------------------------------------------------------------

 SCF Done:  E(RB2PLYPD3) =  -155.683649980     A.U. after   11 cycles
 E2(B2PLYPD3) =    -0.2268359159D+00 E(B2PLYPD3) =    -0.15591048589641D+03

 The electronic state is 1-A.
 Alpha  occ. eigenvalues --  -10.62932 -10.62636 -10.62270 -10.61930  -0.92329
 Alpha  occ. eigenvalues --   -0.84660  -0.70507  -0.64439  -0.55106  -0.52790
 Alpha  occ. eigenvalues --   -0.47603  -0.45937  -0.40490  -0.37151  -0.27734
 Alpha virt. eigenvalues --    0.01398   0.06962   0.07404   0.08356   0.08863
 Alpha virt. eigenvalues --    0.11658   0.12402   0.14535   0.15394   0.16229
 Alpha virt. eigenvalues --    0.18727   0.19636   0.21760   0.22763   0.24732

 Mulliken charges:
               1
     1  C   -0.172165
     2  C   -0.048601
     3  C   -0.028922
     4  C   -0.176427
     5  H    0.094478
     6  H    0.071319
     7  H    0.065304
     8  H    0.051052
     9  H    0.059316
    10  H    0.084645
 Sum of Mulliken charges =   0.00000

 Dipole moment (field-independent basis, Debye):
    X=              0.0362    Y=             -0.0622    Z=             -0.0266  Tot=              0.0767
 Quadrupole moment (field-independent basis, Debye-Ang):
   XX=            -23.4075   YY=            -23.3511   ZZ=            -29.3160
   XY=             -0.2096   XZ=              0.5530   YZ=              0.1459

 1\1\GINC-NODE21\SP\RB2PLYPD3-FC\def2QZVP\C4H6\BOITTIER\26-Aug-2020\0\\
 #p B2PLYPD3/Def2QZVP\\butadiene\\0,1\C,0,-3.867764,0.249886,0.081351\C
 ,0,-2.761434,-0.536208,0.002057\C,0,-1.377699,0.040093,-0.078904\C,0,-
 0.22922,-0.630178,0.087486\H,0,-4.8287,-0.16616,0.129306\H,0,-3.685315
 ,1.33769,-0.08908\H,0,-2.650997,-1.550527,-0.110811\H,0,-1.330743,1.11
 6553,-0.006787\H,0,-0.165511,-1.730717,0.052543\H,0,0.706317,-0.115009
 ,0.24752\\Version=ES64L-G09RevD.01\State=1-A\HF=-155.68365\MP2=-155.91
 04859\RMSD=9.142e-09\PG=C01 [X(C4H6)]\\@

 Normal termination of Gaussian 09 at Wed Aug 26 13:00:08 2020.
