 Gaussian 09, Revision D.01,
 Gaussian 09:  ES64L-G09RevD.01 24-Apr-2013

 --------------------
 #p B2PLYPD3/Def2QZVP
 --------------------

 ---------
 butadiene
 ---------
 Symbolic Z-matrix:
 Charge =  0 Multiplicity = 1

                         Standard orientation:
 ---------------------------------------------------------------------
 Center     Atomic      Atomic             Coordinates (Angstroms)
 Number     Number       Type             X           Y           Z
 ---------------------------------------------------------------------
      1          6           0        1.839048    0.080519   -0.053283
      2          6           0        0.599724   -0.391574    0.024794
      3          6           0       -0.594054    0.440105    0.022361
      4          6           0       -1.828164   -0.125816   -0.022285
      5          1           0        2.747889   -0.505842    0.082887
      6          1           0        1.974821    1.168218   -0.057037
      7          1           0        0.414714   -1.453474    0.108937
      8          1           0       -0.459042    1.483063    0.140941
      9          1           0       -2.011054   -1.181064   -0.069927
     10          1           0       -2.766652    0.469695   -0.035330
 ---------------------------------------------------------------------

 SCF Done:  E(RB2PLYPD3) =  -155.696076337     A.U. after   11 cycles
 E2(B2PLYPD3) =    -0.2263014620D+00 E(B2PLYPD3) =    -0.15592237779920D+03

 The electronic state is 1-A.
 Alpha  occ. eigenvalues --  -10.62839 -10.62388 -10.62218 -10.61516  -0.92992
 Alpha  occ. eigenvalues --   -0.84481  -0.70088  -0.64636  -0.54679  -0.53426
 Alpha  occ. eigenvalues --   -0.47309  -0.45007  -0.41181  -0.37871  -0.27562
 Alpha virt. eigenvalues --    0.01513   0.07025   0.07403   0.08074   0.09317
 Alpha virt. eigenvalues --    0.11629   0.12601   0.14554   0.15726   0.16348
 Alpha virt. eigenvalues --    0.18838   0.20038   0.21989   0.22966   0.23397

 Mulliken charges:
               1
     1  C   -0.168114
     2  C   -0.026257
     3  C   -0.041074
     4  C   -0.173055
     5  H    0.084242
     6  H    0.053593
     7  H    0.057179
     8  H    0.067736
     9  H    0.069397
    10  H    0.076354
 Sum of Mulliken charges =   0.00000

 Dipole moment (field-independent basis, Debye):
    X=             -0.0797    Y=             -0.0189    Z=              0.1958  Tot=              0.2122
 Quadrupole moment (field-independent basis, Debye-Ang):
   XX=            -23.4029   YY=            -23.2374   ZZ=            -29.2962
   XY=              0.3518   XZ=              0.4017   YZ=              0.0117

 1\1\GINC-NODE08\SP\RB2PLYPD3-FC\def2QZVP\C4H6\BOITTIER\26-Aug-2020\0\\
 #p B2PLYPD3/Def2QZVP\\butadiene\\0,1\C,0,-3.843347,0.20342,0.062157\C,
 0,-2.712018,-0.490736,0.006191\C,0,-1.385705,0.107019,-0.013427\C,0,-0
 .276589,-0.674181,0.056392\H,0,-4.844658,-0.210243,-0.058723\H,0,-3.77
 6869,1.297035,0.028617\H,0,-2.725459,-1.570788,-0.041234\H,0,-1.326861
 ,1.152381,-0.16772\H,0,-0.290722,-1.742827,0.140441\H,0,0.755387,-0.26
 1163,0.054058\\Version=ES64L-G09RevD.01\State=1-A\HF=-155.6960763\MP2=
 -155.9223778\RMSD=7.726e-09\PG=C01 [X(C4H6)]\\@

 Normal termination of Gaussian 09 at Wed Aug 26 10:46:00 2020.
