 Gaussian 09, Revision D.01,
 Gaussian 09:  ES64L-G09RevD.01 24-Apr-2013

 --------------------
 #p B2PLYPD3/Def2QZVP
 --------------------

 ---------
 butadiene
 ---------
 Symbolic Z-matrix:
 Charge =  0 Multiplicity = 1

                         Standard orientation:
 ---------------------------------------------------------------------
 Center     Atomic      Atomic             Coordinates (Angstroms)
 Number     Number       Type             X           Y           Z
 ---------------------------------------------------------------------
      1          6           0        1.821785   -0.112955    0.025609
      2          6           0        0.591116    0.427448   -0.051926
      3          6           0       -0.604161   -0.414158   -0.020440
      4          6           0       -1.841433    0.093319    0.007492
      5          1           0        2.741985    0.484446    0.068396
      6          1           0        2.027111   -1.156387    0.039734
      7          1           0        0.495858    1.490367   -0.032490
      8          1           0       -0.374762   -1.477184   -0.003122
      9          1           0       -1.979132    1.173447    0.139322
     10          1           0       -2.714900   -0.476617    0.023750
 ---------------------------------------------------------------------

 SCF Done:  E(RB2PLYPD3) =  -155.696627035     A.U. after   11 cycles
 E2(B2PLYPD3) =    -0.2259215075D+00 E(B2PLYPD3) =    -0.15592254854215D+03

 The electronic state is 1-A.
 Alpha  occ. eigenvalues --  -10.62786 -10.62597 -10.61611 -10.61273  -0.92882
 Alpha  occ. eigenvalues --   -0.84660  -0.70342  -0.64628  -0.55165  -0.53431
 Alpha  occ. eigenvalues --   -0.47070  -0.45378  -0.41301  -0.37919  -0.27508
 Alpha virt. eigenvalues --    0.01678   0.07050   0.07380   0.08214   0.09199
 Alpha virt. eigenvalues --    0.11648   0.12652   0.14655   0.15960   0.16254
 Alpha virt. eigenvalues --    0.18815   0.20497   0.21966   0.23076   0.23479

 Mulliken charges:
               1
     1  C   -0.174069
     2  C   -0.029784
     3  C   -0.034637
     4  C   -0.171993
     5  H    0.075283
     6  H    0.064126
     7  H    0.064008
     8  H    0.058118
     9  H    0.061303
    10  H    0.087645
 Sum of Mulliken charges =   0.00000

 Dipole moment (field-independent basis, Debye):
    X=              0.0494    Y=             -0.0255    Z=              0.1648  Tot=              0.1739
 Quadrupole moment (field-independent basis, Debye-Ang):
   XX=            -23.3344   YY=            -23.1614   ZZ=            -29.2612
   XY=             -0.3723   XZ=             -0.0618   YZ=              0.1255

 1\1\GINC-NODE03\SP\RB2PLYPD3-FC\def2QZVP\C4H6\BOITTIER\26-Aug-2020\0\\
 #p B2PLYPD3/Def2QZVP\\butadiene\\0,1\C,0,-3.825175,0.233944,0.045728\C
 ,0,-2.716122,-0.527353,-0.009248\C,0,-1.385598,0.078998,-0.004411\C,0,
 -0.263549,-0.647455,0.044863\H,0,-4.839883,-0.180877,0.107196\H,0,-3.8
 33745,1.297187,0.02226\H,0,-2.819193,-1.588168,0.048153\H,0,-1.414185,
 1.166053,-0.025449\H,0,-0.327659,-1.729052,0.215312\H,0,0.700381,-0.24
 8866,0.04325\\Version=ES64L-G09RevD.01\State=1-A\HF=-155.696627\MP2=-1
 55.9225485\RMSD=4.947e-09\PG=C01 [X(C4H6)]\\@

 Normal termination of Gaussian 09 at Wed Aug 26 08:58:40 2020.
