 Gaussian 09, Revision D.01,
 Gaussian 09:  ES64L-G09RevD.01 24-Apr-2013

 --------------------
 #p B2PLYPD3/Def2QZVP
 --------------------

 ---------
 butadiene
 ---------
 Symbolic Z-matrix:
 Charge =  0 Multiplicity = 1

                         Standard orientation:
 ---------------------------------------------------------------------
 Center     Atomic      Atomic             Coordinates (Angstroms)
 Number     Number       Type             X           Y           Z
 ---------------------------------------------------------------------
      1          6           0       -1.823409   -0.111220   -0.027108
      2          6           0       -0.619940    0.411041    0.022671
      3          6           0        0.595345   -0.391936   -0.006611
      4          6           0        1.840450    0.096673   -0.003314
      5          1           0       -2.729043    0.448308    0.041585
      6          1           0       -1.935297   -1.211487   -0.092028
      7          1           0       -0.544828    1.497868    0.095985
      8          1           0        0.457894   -1.445521    0.156799
      9          1           0        2.021163    1.187236   -0.114370
     10          1           0        2.775433   -0.503755   -0.001799
 ---------------------------------------------------------------------

 SCF Done:  E(RB2PLYPD3) =  -155.696821675     A.U. after   11 cycles
 E2(B2PLYPD3) =    -0.2257087069D+00 E(B2PLYPD3) =    -0.15592253038227D+03

 The electronic state is 1-A.
 Alpha  occ. eigenvalues --  -10.62620 -10.62341 -10.62174 -10.61280  -0.93164
 Alpha  occ. eigenvalues --   -0.85031  -0.69753  -0.63961  -0.54961  -0.53514
 Alpha  occ. eigenvalues --   -0.47185  -0.44510  -0.40885  -0.38148  -0.27998
 Alpha virt. eigenvalues --    0.01927   0.07072   0.07385   0.07954   0.09512
 Alpha virt. eigenvalues --    0.11572   0.12539   0.14417   0.15538   0.16549
 Alpha virt. eigenvalues --    0.18844   0.19836   0.21753   0.22879   0.23563

 Mulliken charges:
               1
     1  C   -0.165068
     2  C   -0.029621
     3  C   -0.036575
     4  C   -0.170633
     5  H    0.087391
     6  H    0.054772
     7  H    0.054836
     8  H    0.062946
     9  H    0.059323
    10  H    0.082630
 Sum of Mulliken charges =   0.00000

 Dipole moment (field-independent basis, Debye):
    X=             -0.0495    Y=              0.0229    Z=              0.0907  Tot=              0.1058
 Quadrupole moment (field-independent basis, Debye-Ang):
   XX=            -23.1873   YY=            -23.3741   ZZ=            -29.2006
   XY=             -0.0017   XZ=             -0.1568   YZ=             -0.0964

 1\1\GINC-NODE34\SP\RB2PLYPD3-FC\def2QZVP\C4H6\BOITTIER\26-Aug-2020\0\\
 #p B2PLYPD3/Def2QZVP\\butadiene\\0,1\C,0,-3.825506,0.220024,0.03911\C,
 0,-2.734331,-0.509491,0.012371\C,0,-1.395475,0.06496,0.016831\C,0,-0.2
 57199,-0.637191,0.035473\H,0,-4.816454,-0.171546,-0.012458\H,0,-3.7396
 31,1.324258,0.063872\H,0,-2.854029,-1.594268,-0.021392\H,0,-1.343754,1
 .119584,-0.184988\H,0,-0.273088,-1.737767,0.186457\H,0,0.769694,-0.213
 16,0.015503\\Version=ES64L-G09RevD.01\State=1-A\HF=-155.6968217\MP2=-1
 55.9225304\RMSD=5.388e-09\PG=C01 [X(C4H6)]\\@

 Normal termination of Gaussian 09 at Wed Aug 26 08:53:28 2020.
