 Gaussian 09, Revision D.01,
 Gaussian 09:  ES64L-G09RevD.01 24-Apr-2013

 --------------------
 #p B2PLYPD3/Def2QZVP
 --------------------

 ---------
 butadiene
 ---------
 Symbolic Z-matrix:
 Charge =  0 Multiplicity = 1

                         Standard orientation:
 ---------------------------------------------------------------------
 Center     Atomic      Atomic             Coordinates (Angstroms)
 Number     Number       Type             X           Y           Z
 ---------------------------------------------------------------------
      1          6           0       -1.831206    0.092557    0.013963
      2          6           0       -0.582948   -0.388564   -0.005443
      3          6           0        0.598309    0.434084   -0.000481
      4          6           0        1.818012   -0.135286   -0.009036
      5          1           0       -2.688753   -0.577423   -0.063906
      6          1           0       -2.048059    1.118437    0.118829
      7          1           0       -0.349001   -1.436515   -0.080112
      8          1           0        0.483803    1.559010   -0.127356
      9          1           0        1.940576   -1.214049    0.112985
     10          1           0        2.648430    0.533794    0.045542
 ---------------------------------------------------------------------

 SCF Done:  E(RB2PLYPD3) =  -155.694360319     A.U. after   11 cycles
 E2(B2PLYPD3) =    -0.2264363108D+00 E(B2PLYPD3) =    -0.15592079663019D+03

 The electronic state is 1-A.
 Alpha  occ. eigenvalues --  -10.62947 -10.62293 -10.61576 -10.61270  -0.93195
 Alpha  occ. eigenvalues --   -0.84672  -0.70308  -0.63780  -0.54622  -0.53708
 Alpha  occ. eigenvalues --   -0.46371  -0.45802  -0.41248  -0.38133  -0.27404
 Alpha virt. eigenvalues --    0.01568   0.07097   0.07212   0.08038   0.09297
 Alpha virt. eigenvalues --    0.11832   0.12350   0.14958   0.15532   0.16041
 Alpha virt. eigenvalues --    0.18611   0.19982   0.21764   0.23320   0.23771

 Mulliken charges:
               1
     1  C   -0.183141
     2  C   -0.026503
     3  C   -0.027668
     4  C   -0.182026
     5  H    0.082207
     6  H    0.072867
     7  H    0.056762
     8  H    0.053388
     9  H    0.069264
    10  H    0.084851
 Sum of Mulliken charges =   0.00000

 Dipole moment (field-independent basis, Debye):
    X=              0.0167    Y=              0.0281    Z=              0.0226  Tot=              0.0398
 Quadrupole moment (field-independent basis, Debye-Ang):
   XX=            -23.9627   YY=            -22.9384   ZZ=            -29.2706
   XY=             -0.3251   XZ=              0.2720   YZ=              0.0098

 1\1\GINC-NODE21\SP\RB2PLYPD3-FC\def2QZVP\C4H6\BOITTIER\26-Aug-2020\0\\
 #p B2PLYPD3/Def2QZVP\\butadiene\\0,1\C,0,-3.834724,0.216654,0.028093\C
 ,0,-2.69767,-0.488405,0.029321\C,0,-1.384102,0.100131,0.011732\C,0,-0.
 29148,-0.685927,0.0266\H,0,-4.802021,-0.284516,-0.03097\H,0,-3.856906,
 1.267858,0.098303\H,0,-2.662723,-1.563461,-0.009917\H,0,-1.287858,1.22
 1924,-0.152539\H,0,-0.371239,-1.764044,0.184532\H,0,0.648939,-0.181369
 ,0.06231\\Version=ES64L-G09RevD.01\State=1-A\HF=-155.6943603\MP2=-155.
 9207966\RMSD=5.150e-09\PG=C01 [X(C4H6)]\\@

 Normal termination of Gaussian 09 at Wed Aug 26 09:01:19 2020.
