 Gaussian 09, Revision D.01,
 Gaussian 09:  ES64L-G09RevD.01 24-Apr-2013

 --------------------
 #p B2PLYPD3/Def2QZVP
 --------------------

 ---------
 butadiene
 ---------
 Symbolic Z-matrix:
 Charge =  0 Multiplicity = 1

                         Standard orientation:
 ---------------------------------------------------------------------
 Center     Atomic      Atomic             Coordinates (Angstroms)
 Number     Number       Type             X           Y           Z
 ---------------------------------------------------------------------
      1          6           0       -1.831535    0.094111    0.006337
      2          6           0       -0.598025   -0.388188   -0.030340
      3          6           0        0.617121    0.429549   -0.053963
      4          6           0        1.826877   -0.123917    0.017798
      5          1           0       -2.707238   -0.514599    0.080259
      6          1           0       -2.055505    1.168522    0.081340
      7          1           0       -0.535421   -1.470468    0.055537
      8          1           0        0.483696    1.510322    0.014014
      9          1           0        1.948278   -1.228374   -0.014408
     10          1           0        2.779566    0.465265    0.144267
 ---------------------------------------------------------------------

 SCF Done:  E(RB2PLYPD3) =  -155.695769544     A.U. after   11 cycles
 E2(B2PLYPD3) =    -0.2259925273D+00 E(B2PLYPD3) =    -0.15592176207168D+03

 The electronic state is 1-A.
 Alpha  occ. eigenvalues --  -10.62910 -10.62493 -10.62386 -10.61216  -0.92933
 Alpha  occ. eigenvalues --   -0.84930  -0.69495  -0.63950  -0.54502  -0.53670
 Alpha  occ. eigenvalues --   -0.46854  -0.44549  -0.40916  -0.38110  -0.27879
 Alpha virt. eigenvalues --    0.01958   0.07010   0.07323   0.07937   0.09383
 Alpha virt. eigenvalues --    0.11571   0.12476   0.14423   0.15810   0.16356
 Alpha virt. eigenvalues --    0.18825   0.20140   0.21677   0.22659   0.23963

 Mulliken charges:
               1
     1  C   -0.169699
     2  C   -0.027409
     3  C   -0.039804
     4  C   -0.163164
     5  H    0.080776
     6  H    0.054438
     7  H    0.055317
     8  H    0.063579
     9  H    0.065237
    10  H    0.080729
 Sum of Mulliken charges =   0.00000

 Dipole moment (field-independent basis, Debye):
    X=              0.0167    Y=             -0.0094    Z=              0.2688  Tot=              0.2695
 Quadrupole moment (field-independent basis, Debye-Ang):
   XX=            -23.4124   YY=            -23.2000   ZZ=            -29.2843
   XY=             -0.0930   XZ=             -0.0136   YZ=              0.1012

 1\1\GINC-NODE28\SP\RB2PLYPD3-FC\def2QZVP\C4H6\BOITTIER\26-Aug-2020\0\\
 #p B2PLYPD3/Def2QZVP\\butadiene\\0,1\C,0,-3.839699,0.203093,0.033369\C
 ,0,-2.711846,-0.491841,0.010621\C,0,-1.370642,0.095677,-0.032104\C,0,-
 0.278484,-0.662301,0.055326\H,0,-4.809519,-0.237957,0.121531\H,0,-3.86
 863,1.301757,0.08077\H,0,-2.842592,-1.565465,0.124029\H,0,-1.309364,1.
 184305,0.008235\H,0,-0.355695,-1.771185,0.051332\H,0,0.764255,-0.24911
 1,0.168091\\Version=ES64L-G09RevD.01\State=1-A\HF=-155.6957695\MP2=-15
 5.9217621\RMSD=5.813e-09\PG=C01 [X(C4H6)]\\@

 Normal termination of Gaussian 09 at Wed Aug 26 11:17:20 2020.
