 Gaussian 09, Revision D.01,
 Gaussian 09:  ES64L-G09RevD.01 24-Apr-2013

 --------------------
 #p B2PLYPD3/Def2QZVP
 --------------------

 ---------
 butadiene
 ---------
 Symbolic Z-matrix:
 Charge =  0 Multiplicity = 1

                         Standard orientation:
 ---------------------------------------------------------------------
 Center     Atomic      Atomic             Coordinates (Angstroms)
 Number     Number       Type             X           Y           Z
 ---------------------------------------------------------------------
      1          6           0       -1.834186   -0.113142   -0.017679
      2          6           0       -0.597697    0.414401    0.013735
      3          6           0        0.601363   -0.392888    0.017396
      4          6           0        1.833786    0.100358   -0.024883
      5          1           0       -2.751682    0.461789    0.003759
      6          1           0       -1.925609   -1.195844   -0.066729
      7          1           0       -0.490780    1.485230    0.058606
      8          1           0        0.461529   -1.455837    0.103146
      9          1           0        1.991868    1.187097   -0.014358
     10          1           0        2.695079   -0.534809   -0.015836
 ---------------------------------------------------------------------

 SCF Done:  E(RB2PLYPD3) =  -155.700380104     A.U. after   11 cycles
 E2(B2PLYPD3) =    -0.2257500888D+00 E(B2PLYPD3) =    -0.15592613019238D+03

 The electronic state is 1-A.
 Alpha  occ. eigenvalues --  -10.62496 -10.62243 -10.61693 -10.61411  -0.93176
 Alpha  occ. eigenvalues --   -0.84859  -0.70099  -0.64273  -0.54765  -0.53924
 Alpha  occ. eigenvalues --   -0.46769  -0.45313  -0.41503  -0.38114  -0.27606
 Alpha virt. eigenvalues --    0.01709   0.07057   0.07420   0.08074   0.09587
 Alpha virt. eigenvalues --    0.11665   0.12552   0.14574   0.15836   0.16259
 Alpha virt. eigenvalues --    0.18745   0.20485   0.21527   0.22836   0.23900

 Mulliken charges:
               1
     1  C   -0.175451
     2  C   -0.030661
     3  C   -0.028138
     4  C   -0.176241
     5  H    0.088160
     6  H    0.060074
     7  H    0.055707
     8  H    0.055382
     9  H    0.063606
    10  H    0.087563
 Sum of Mulliken charges =   0.00000

 Dipole moment (field-independent basis, Debye):
    X=             -0.0068    Y=             -0.0017    Z=              0.0852  Tot=              0.0855
 Quadrupole moment (field-independent basis, Debye-Ang):
   XX=            -23.4343   YY=            -23.1618   ZZ=            -29.2488
   XY=             -0.0298   XZ=              0.0607   YZ=              0.0279

 1\1\GINC-NODE10\SP\RB2PLYPD3-FC\def2QZVP\C4H6\BOITTIER\26-Aug-2020\0\\
 #p B2PLYPD3/Def2QZVP\\butadiene\\0,1\C,0,-3.836137,0.227709,0.035261\C
 ,0,-2.714951,-0.514518,0.01991\C,0,-1.390167,0.063261,-0.004458\C,0,-0
 .266532,-0.6425,0.052908\H,0,-4.842221,-0.172982,0.0285\H,0,-3.730962,
 1.310105,0.0544\H,0,-2.802732,-1.587915,0.004641\H,0,-1.336671,1.13127
 3,-0.119585\H,0,-0.306721,-1.739817,0.072473\H,0,0.694999,-0.173292,0.
 027469\\Version=ES64L-G09RevD.01\State=1-A\HF=-155.7003801\MP2=-155.92
 61302\RMSD=5.119e-09\PG=C01 [X(C4H6)]\\@

 Normal termination of Gaussian 09 at Wed Aug 26 20:52:27 2020.
