 Gaussian 09, Revision D.01,
 Gaussian 09:  ES64L-G09RevD.01 24-Apr-2013

 --------------------
 #p B2PLYPD3/Def2QZVP
 --------------------

 ---------
 butadiene
 ---------
 Symbolic Z-matrix:
 Charge =  0 Multiplicity = 1

                         Standard orientation:
 ---------------------------------------------------------------------
 Center     Atomic      Atomic             Coordinates (Angstroms)
 Number     Number       Type             X           Y           Z
 ---------------------------------------------------------------------
      1          6           0       -1.846054    0.104486    0.016168
      2          6           0       -0.608798   -0.377565   -0.008915
      3          6           0        0.608429    0.401196   -0.027578
      4          6           0        1.841083   -0.122036    0.004725
      5          1           0       -2.700382   -0.574191    0.025237
      6          1           0       -1.996615    1.178928    0.019692
      7          1           0       -0.472686   -1.454005   -0.043297
      8          1           0        0.506787    1.470590   -0.026116
      9          1           0        2.007906   -1.177906    0.032494
     10          1           0        2.687035    0.520098    0.085592
 ---------------------------------------------------------------------

 SCF Done:  E(RB2PLYPD3) =  -155.700714363     A.U. after   11 cycles
 E2(B2PLYPD3) =    -0.2254734858D+00 E(B2PLYPD3) =    -0.15592618784847D+03

 The electronic state is 1-A.
 Alpha  occ. eigenvalues --  -10.62380 -10.62216 -10.61513 -10.61296  -0.93133
 Alpha  occ. eigenvalues --   -0.85110  -0.70353  -0.64117  -0.54491  -0.54316
 Alpha  occ. eigenvalues --   -0.46650  -0.45895  -0.41196  -0.38191  -0.27699
 Alpha virt. eigenvalues --    0.01662   0.06988   0.07498   0.08045   0.09808
 Alpha virt. eigenvalues --    0.11734   0.12371   0.14804   0.15875   0.16052
 Alpha virt. eigenvalues --    0.18777   0.20583   0.21421   0.22760   0.24032

 Mulliken charges:
               1
     1  C   -0.180257
     2  C   -0.023089
     3  C   -0.032229
     4  C   -0.176991
     5  H    0.089269
     6  H    0.066481
     7  H    0.049760
     8  H    0.053164
     9  H    0.068073
    10  H    0.085819
 Sum of Mulliken charges =   0.00000

 Dipole moment (field-independent basis, Debye):
    X=              0.0367    Y=             -0.0035    Z=              0.0637  Tot=              0.0736
 Quadrupole moment (field-independent basis, Debye-Ang):
   XX=            -23.5670   YY=            -23.0638   ZZ=            -29.2141
   XY=             -0.0178   XZ=              0.2417   YZ=              0.0510

 1\1\GINC-NODE25\SP\RB2PLYPD3-FC\def2QZVP\C4H6\BOITTIER\26-Aug-2020\0\\
 #p B2PLYPD3/Def2QZVP\\butadiene\\0,1\C,0,-3.849586,0.216402,0.033366\C
 ,0,-2.718006,-0.478774,0.025576\C,0,-1.381565,0.069978,-0.009853\C,0,-
 0.261768,-0.663328,0.040815\H,0,-4.811118,-0.298789,0.057765\H,0,-3.80
 6368,1.300175,0.007404\H,0,-2.77584,-1.562777,0.020695\H,0,-1.291112,1
 .140019,-0.037571\H,0,-0.285632,-1.73088,0.097614\H,0,0.685139,-0.1801
 5,0.107276\\Version=ES64L-G09RevD.01\State=1-A\HF=-155.7007144\MP2=-15
 5.9261878\RMSD=5.405e-09\PG=C01 [X(C4H6)]\\@

 Normal termination of Gaussian 09 at Wed Aug 26 18:49:01 2020.
