 Gaussian 09, Revision D.01,
 Gaussian 09:  ES64L-G09RevD.01 24-Apr-2013

 --------------------
 #p B2PLYPD3/Def2QZVP
 --------------------

 ---------
 butadiene
 ---------
 Symbolic Z-matrix:
 Charge =  0 Multiplicity = 1

                         Standard orientation:
 ---------------------------------------------------------------------
 Center     Atomic      Atomic             Coordinates (Angstroms)
 Number     Number       Type             X           Y           Z
 ---------------------------------------------------------------------
      1          6           0        1.850217    0.101316   -0.030343
      2          6           0        0.617693   -0.384686    0.010777
      3          6           0       -0.613425    0.415790    0.016862
      4          6           0       -1.849305   -0.134003   -0.012765
      5          1           0        2.711037   -0.550407    0.054478
      6          1           0        1.990525    1.177934   -0.045270
      7          1           0        0.495808   -1.436515    0.064061
      8          1           0       -0.522589    1.509812    0.094509
      9          1           0       -1.980470   -1.196092   -0.036142
     10          1           0       -2.725391    0.504764   -0.038823
 ---------------------------------------------------------------------

 SCF Done:  E(RB2PLYPD3) =  -155.699358554     A.U. after   11 cycles
 E2(B2PLYPD3) =    -0.2258065191D+00 E(B2PLYPD3) =    -0.15592516507282D+03

 The electronic state is 1-A.
 Alpha  occ. eigenvalues --  -10.63089 -10.62171 -10.61741 -10.61343  -0.92719
 Alpha  occ. eigenvalues --   -0.84945  -0.69921  -0.64165  -0.54426  -0.54043
 Alpha  occ. eigenvalues --   -0.46491  -0.45848  -0.41312  -0.37797  -0.27733
 Alpha virt. eigenvalues --    0.01713   0.07004   0.07484   0.08011   0.09524
 Alpha virt. eigenvalues --    0.11695   0.12391   0.14627   0.15809   0.16160
 Alpha virt. eigenvalues --    0.18827   0.20275   0.21500   0.22829   0.24018

 Mulliken charges:
               1
     1  C   -0.174460
     2  C   -0.028083
     3  C   -0.038434
     4  C   -0.179316
     5  H    0.087308
     6  H    0.063944
     7  H    0.056473
     8  H    0.054777
     9  H    0.070766
    10  H    0.087024
 Sum of Mulliken charges =   0.00000

 Dipole moment (field-independent basis, Debye):
    X=             -0.0293    Y=             -0.0272    Z=              0.1027  Tot=              0.1102
 Quadrupole moment (field-independent basis, Debye-Ang):
   XX=            -23.5822   YY=            -23.0272   ZZ=            -29.3077
   XY=             -0.0348   XZ=              0.2688   YZ=             -0.0305

 1\1\GINC-NODE35\SP\RB2PLYPD3-FC\def2QZVP\C4H6\BOITTIER\26-Aug-2020\0\\
 #p B2PLYPD3/Def2QZVP\\butadiene\\0,1\C,0,-3.855613,0.208977,0.043111\C
 ,0,-2.72696,-0.485762,0.02111\C,0,-1.374993,0.086926,-0.004642\C,0,-0.
 254054,-0.669037,0.046006\H,0,-4.817152,-0.284715,-0.025145\H,0,-3.805
 746,1.293506,0.025083\H,0,-2.790704,-1.54384,-0.000015\H,0,-1.273532,1
 .177142,-0.115547\H,0,-0.310322,-1.73651,0.10185\H,0,0.720154,-0.19254
 1,0.055972\\Version=ES64L-G09RevD.01\State=1-A\HF=-155.6993586\MP2=-15
 5.9251651\RMSD=6.239e-09\PG=C01 [X(C4H6)]\\@

 Normal termination of Gaussian 09 at Wed Aug 26 20:08:22 2020.
