 Gaussian 09, Revision D.01,
 Gaussian 09:  ES64L-G09RevD.01 24-Apr-2013

 --------------------
 #p B2PLYPD3/Def2QZVP
 --------------------

 ---------
 butadiene
 ---------
 Symbolic Z-matrix:
 Charge =  0 Multiplicity = 1

                         Standard orientation:
 ---------------------------------------------------------------------
 Center     Atomic      Atomic             Coordinates (Angstroms)
 Number     Number       Type             X           Y           Z
 ---------------------------------------------------------------------
      1          6           0        1.816739   -0.127041    0.012189
      2          6           0        0.594247    0.428980   -0.010068
      3          6           0       -0.591181   -0.370368   -0.047884
      4          6           0       -1.836752    0.076952    0.040507
      5          1           0        2.754920    0.454753    0.032078
      6          1           0        1.938834   -1.212282    0.191550
      7          1           0        0.500771    1.492990   -0.168660
      8          1           0       -0.429740   -1.450827   -0.156124
      9          1           0       -1.954567    1.213811    0.128129
     10          1           0       -2.708536   -0.549581    0.004562
 ---------------------------------------------------------------------

 SCF Done:  E(RB2PLYPD3) =  -155.694103711     A.U. after   11 cycles
 E2(B2PLYPD3) =    -0.2265504935D+00 E(B2PLYPD3) =    -0.15592065420490D+03

 The electronic state is 1-A.
 Alpha  occ. eigenvalues --  -10.62578 -10.62272 -10.62208 -10.61891  -0.93406
 Alpha  occ. eigenvalues --   -0.84692  -0.69907  -0.63731  -0.54847  -0.53293
 Alpha  occ. eigenvalues --   -0.47000  -0.44386  -0.41174  -0.38214  -0.27662
 Alpha virt. eigenvalues --    0.01551   0.07094   0.07263   0.07889   0.09528
 Alpha virt. eigenvalues --    0.11631   0.12403   0.14468   0.15574   0.16262
 Alpha virt. eigenvalues --    0.18578   0.19951   0.21503   0.22665   0.23701

 Mulliken charges:
               1
     1  C   -0.171430
     2  C   -0.032970
     3  C   -0.024026
     4  C   -0.175141
     5  H    0.080477
     6  H    0.062941
     7  H    0.062513
     8  H    0.049695
     9  H    0.052891
    10  H    0.095049
 Sum of Mulliken charges =   0.00000

 Dipole moment (field-independent basis, Debye):
    X=              0.0641    Y=             -0.0287    Z=             -0.0147  Tot=              0.0717
 Quadrupole moment (field-independent basis, Debye-Ang):
   XX=            -23.5434   YY=            -23.3258   ZZ=            -29.2485
   XY=              0.1413   XZ=              0.1828   YZ=             -0.1267

 1\1\GINC-NODE36\SP\RB2PLYPD3-FC\def2QZVP\C4H6\BOITTIER\26-Aug-2020\0\\
 #p B2PLYPD3/Def2QZVP\\butadiene\\0,1\C,0,-3.817106,0.240895,0.033738\C
 ,0,-2.716008,-0.528244,0.021569\C,0,-1.405223,0.041697,-0.029781\C,0,-
 0.261372,-0.622857,0.066796\H,0,-4.845294,-0.160366,0.063454\H,0,-3.73
 9546,1.33318,0.194125\H,0,-2.817797,-1.594099,-0.118431\H,0,-1.36804,1
 .131483,-0.156881\H,0,-0.351757,-1.760526,0.174249\H,0,0.709604,-0.165
 823,0.020225\\Version=ES64L-G09RevD.01\State=1-A\HF=-155.6941037\MP2=-
 155.9206542\RMSD=7.632e-09\PG=C01 [X(C4H6)]\\@

 Normal termination of Gaussian 09 at Wed Aug 26 09:56:06 2020.
