 Gaussian 09, Revision D.01,
 Gaussian 09:  ES64L-G09RevD.01 24-Apr-2013

 --------------------
 #p B2PLYPD3/Def2QZVP
 --------------------

 ---------
 butadiene
 ---------
 Symbolic Z-matrix:
 Charge =  0 Multiplicity = 1

                         Standard orientation:
 ---------------------------------------------------------------------
 Center     Atomic      Atomic             Coordinates (Angstroms)
 Number     Number       Type             X           Y           Z
 ---------------------------------------------------------------------
      1          6           0        1.821095   -0.137058   -0.025049
      2          6           0        0.611563    0.426156    0.025122
      3          6           0       -0.590926   -0.379468    0.036750
      4          6           0       -1.846777    0.092198   -0.016614
      5          1           0        2.723997    0.483967   -0.048048
      6          1           0        1.863754   -1.213398   -0.108000
      7          1           0        0.519895    1.533232    0.099041
      8          1           0       -0.405078   -1.433839    0.133520
      9          1           0       -1.964247    1.145105   -0.098260
     10          1           0       -2.708057   -0.526031   -0.099512
 ---------------------------------------------------------------------

 SCF Done:  E(RB2PLYPD3) =  -155.697767849     A.U. after   11 cycles
 E2(B2PLYPD3) =    -0.2260351799D+00 E(B2PLYPD3) =    -0.15592380302857D+03

 The electronic state is 1-A.
 Alpha  occ. eigenvalues --  -10.62709 -10.62416 -10.61688 -10.61121  -0.93174
 Alpha  occ. eigenvalues --   -0.84896  -0.70130  -0.64038  -0.54557  -0.54099
 Alpha  occ. eigenvalues --   -0.46506  -0.45690  -0.41537  -0.38030  -0.27578
 Alpha virt. eigenvalues --    0.01672   0.07076   0.07373   0.08031   0.09471
 Alpha virt. eigenvalues --    0.11732   0.12594   0.14638   0.15777   0.16004
 Alpha virt. eigenvalues --    0.18650   0.20320   0.21473   0.23024   0.23867

 Mulliken charges:
               1
     1  C   -0.178750
     2  C   -0.026723
     3  C   -0.026970
     4  C   -0.181935
     5  H    0.089055
     6  H    0.066732
     7  H    0.050761
     8  H    0.053272
     9  H    0.064169
    10  H    0.090389
 Sum of Mulliken charges =   0.00000

 Dipole moment (field-independent basis, Debye):
    X=              0.0530    Y=              0.0092    Z=             -0.0824  Tot=              0.0984
 Quadrupole moment (field-independent basis, Debye-Ang):
   XX=            -23.6500   YY=            -23.1375   ZZ=            -29.2358
   XY=              0.1139   XZ=              0.1644   YZ=              0.0262

 1\1\GINC-NODE14\SP\RB2PLYPD3-FC\def2QZVP\C4H6\BOITTIER\26-Aug-2020\0\\
 #p B2PLYPD3/Def2QZVP\\butadiene\\0,1\C,0,-3.8203,0.242643,-0.006994\C,
 0,-2.729825,-0.524638,0.062561\C,0,-1.403272,0.054295,0.047112\C,0,-0.
 251549,-0.634648,0.010094\H,0,-4.819303,-0.20838,-0.009106\H,0,-3.6715
 03,1.306032,-0.126457\H,0,-2.835907,-1.627272,0.174053\H,0,-1.398244,1
 .127548,0.107978\H,0,-0.323518,-1.693799,-0.035723\H,0,0.705383,-0.182
 518,-0.093545\\Version=ES64L-G09RevD.01\State=1-A\HF=-155.6977678\MP2=
 -155.923803\RMSD=2.535e-09\PG=C01 [X(C4H6)]\\@

 Normal termination of Gaussian 09 at Wed Aug 26 09:11:33 2020.
