 Gaussian 09, Revision D.01,
 Gaussian 09:  ES64L-G09RevD.01 24-Apr-2013

 --------------------
 #p B2PLYPD3/Def2QZVP
 --------------------

 ---------
 butadiene
 ---------
 Symbolic Z-matrix:
 Charge =  0 Multiplicity = 1

                         Standard orientation:
 ---------------------------------------------------------------------
 Center     Atomic      Atomic             Coordinates (Angstroms)
 Number     Number       Type             X           Y           Z
 ---------------------------------------------------------------------
      1          6           0        1.809018    0.063289    0.066690
      2          6           0        0.575416   -0.342936   -0.056687
      3          6           0       -0.594483    0.419120   -0.104490
      4          6           0       -1.792330   -0.143335    0.044747
      5          1           0        2.789169   -0.528058    0.193766
      6          1           0        2.091705    1.141310   -0.020899
      7          1           0        0.311212   -1.411440   -0.179083
      8          1           0       -0.593985    1.524712   -0.034864
      9          1           0       -1.863228   -1.204237    0.049390
     10          1           0       -2.720601    0.500886    0.290130
 ---------------------------------------------------------------------

 SCF Done:  E(RB2PLYPD3) =  -155.679020189     A.U. after   11 cycles
 E2(B2PLYPD3) =    -0.2268907395D+00 E(B2PLYPD3) =    -0.15590591092848D+03

 The electronic state is 1-A.
 Alpha  occ. eigenvalues --  -10.62323 -10.62266 -10.62151 -10.62126  -0.94374
 Alpha  occ. eigenvalues --   -0.84977  -0.69930  -0.63869  -0.55040  -0.53206
 Alpha  occ. eigenvalues --   -0.46511  -0.44281  -0.40857  -0.38469  -0.27664
 Alpha virt. eigenvalues --    0.01595   0.06920   0.07264   0.07635   0.09751
 Alpha virt. eigenvalues --    0.11574   0.12470   0.14549   0.15462   0.16392
 Alpha virt. eigenvalues --    0.18790   0.19766   0.21735   0.22705   0.23426

 Mulliken charges:
               1
     1  C   -0.168447
     2  C   -0.024389
     3  C   -0.015974
     4  C   -0.168257
     5  H    0.078389
     6  H    0.055483
     7  H    0.047056
     8  H    0.053673
     9  H    0.063834
    10  H    0.078630
 Sum of Mulliken charges =   0.00000

 Dipole moment (field-independent basis, Debye):
    X=             -0.0655    Y=              0.0381    Z=              0.1516  Tot=              0.1694
 Quadrupole moment (field-independent basis, Debye-Ang):
   XX=            -23.4387   YY=            -23.6421   ZZ=            -29.0777
   XY=              0.1682   XZ=             -0.5076   YZ=              0.1540

 1\1\GINC-NODE29\SP\RB2PLYPD3-FC\def2QZVP\C4H6\BOITTIER\26-Aug-2020\0\\
 #p B2PLYPD3/Def2QZVP\\butadiene\\0,1\C,0,-3.819883,0.177686,-0.046481\
 C,0,-2.680747,-0.443904,0.087714\C,0,-1.3907,0.091792,0.109814\C,0,-0.
 317314,-0.685081,-0.023515\H,0,-4.892692,-0.227495,-0.153458\H,0,-3.89
 9601,1.29143,0.007671\H,0,-2.615933,-1.538489,0.243173\H,0,-1.189101,1
 .176073,0.005537\H,0,-0.442056,-1.740631,0.005022\H,0,0.711487,-0.2298
 17,-0.290393\\Version=ES64L-G09RevD.01\State=1-A\HF=-155.6790202\MP2=-
 155.9059109\RMSD=8.357e-09\PG=C01 [X(C4H6)]\\@

 Normal termination of Gaussian 09 at Wed Aug 26 14:26:16 2020.
