 Gaussian 09, Revision D.01,
 Gaussian 09:  ES64L-G09RevD.01 24-Apr-2013

 --------------------
 #p B2PLYPD3/Def2QZVP
 --------------------

 ---------
 butadiene
 ---------
 Symbolic Z-matrix:
 Charge =  0 Multiplicity = 1

                         Standard orientation:
 ---------------------------------------------------------------------
 Center     Atomic      Atomic             Coordinates (Angstroms)
 Number     Number       Type             X           Y           Z
 ---------------------------------------------------------------------
      1          6           0       -1.837989   -0.122745    0.039780
      2          6           0       -0.602933    0.436586   -0.064650
      3          6           0        0.602222   -0.393597   -0.044087
      4          6           0        1.841396    0.093430    0.017009
      5          1           0       -2.789454    0.438370    0.080207
      6          1           0       -1.962095   -1.182789    0.014247
      7          1           0       -0.453782    1.486072    0.044421
      8          1           0        0.488941   -1.459625   -0.008160
      9          1           0        2.011965    1.188455    0.050982
     10          1           0        2.688243   -0.552529    0.129991
 ---------------------------------------------------------------------

 SCF Done:  E(RB2PLYPD3) =  -155.696628372     A.U. after   11 cycles
 E2(B2PLYPD3) =    -0.2263143246D+00 E(B2PLYPD3) =    -0.15592294269632D+03

 The electronic state is 1-A.
 Alpha  occ. eigenvalues --  -10.62981 -10.62379 -10.62113 -10.61493  -0.92787
 Alpha  occ. eigenvalues --   -0.84563  -0.70011  -0.64501  -0.54617  -0.53606
 Alpha  occ. eigenvalues --   -0.46793  -0.45254  -0.41457  -0.37883  -0.27512
 Alpha virt. eigenvalues --    0.01556   0.07034   0.07431   0.08108   0.09182
 Alpha virt. eigenvalues --    0.11644   0.12565   0.14510   0.15686   0.16397
 Alpha virt. eigenvalues --    0.18819   0.19952   0.21893   0.22879   0.24116

 Mulliken charges:
               1
     1  C   -0.169542
     2  C   -0.043008
     3  C   -0.026297
     4  C   -0.176048
     5  H    0.080241
     6  H    0.066512
     7  H    0.066554
     8  H    0.056231
     9  H    0.059276
    10  H    0.086081
 Sum of Mulliken charges =   0.00000

 Dipole moment (field-independent basis, Debye):
    X=             -0.0521    Y=             -0.0476    Z=              0.2104  Tot=              0.2219
 Quadrupole moment (field-independent basis, Debye-Ang):
   XX=            -23.4761   YY=            -23.1222   ZZ=            -29.3347
   XY=              0.1626   XZ=              0.1858   YZ=              0.0713

 1\1\GINC-NODE35\SP\RB2PLYPD3-FC\def2QZVP\C4H6\BOITTIER\26-Aug-2020\0\\
 #p B2PLYPD3/Def2QZVP\\butadiene\\0,1\C,0,-3.83795,0.237608,-0.024735\C
 ,0,-2.723714,-0.532688,0.094603\C,0,-1.388587,0.065391,0.05263\C,0,-0.
 257988,-0.638825,0.004608\H,0,-4.875255,-0.143306,-0.050707\H,0,-3.768
 524,1.302935,-0.026976\H,0,-2.766976,-1.594311,0.013064\H,0,-1.307708,
 1.133063,-0.011204\H,0,-0.288069,-1.747154,-0.000661\H,0,0.691049,-0.1
 59552,-0.125022\\Version=ES64L-G09RevD.01\State=1-A\HF=-155.6966284\MP
 2=-155.9229427\RMSD=6.072e-09\PG=C01 [X(C4H6)]\\@

 Normal termination of Gaussian 09 at Wed Aug 26 08:07:18 2020.
