 Gaussian 09, Revision D.01,
 Gaussian 09:  ES64L-G09RevD.01 24-Apr-2013

 --------------------
 #p B2PLYPD3/Def2QZVP
 --------------------

 ---------
 butadiene
 ---------
 Symbolic Z-matrix:
 Charge =  0 Multiplicity = 1

                         Standard orientation:
 ---------------------------------------------------------------------
 Center     Atomic      Atomic             Coordinates (Angstroms)
 Number     Number       Type             X           Y           Z
 ---------------------------------------------------------------------
      1          6           0        1.852124    0.106351    0.023969
      2          6           0        0.621110   -0.402191   -0.045568
      3          6           0       -0.609585    0.408957   -0.006139
      4          6           0       -1.826914   -0.121919    0.005627
      5          1           0        2.711617   -0.478902    0.103948
      6          1           0        1.950023    1.178112    0.004347
      7          1           0        0.454544   -1.469253   -0.033482
      8          1           0       -0.586935    1.527981   -0.089215
      9          1           0       -1.994185   -1.183128    0.026845
     10          1           0       -2.755476    0.478000    0.120222
 ---------------------------------------------------------------------

 SCF Done:  E(RB2PLYPD3) =  -155.695940644     A.U. after   11 cycles
 E2(B2PLYPD3) =    -0.2257050502D+00 E(B2PLYPD3) =    -0.15592164569439D+03

 The electronic state is 1-A.
 Alpha  occ. eigenvalues --  -10.62988 -10.62761 -10.61554 -10.61062  -0.92769
 Alpha  occ. eigenvalues --   -0.85162  -0.69922  -0.63891  -0.55060  -0.53692
 Alpha  occ. eigenvalues --   -0.46748  -0.45272  -0.41057  -0.37879  -0.27902
 Alpha virt. eigenvalues --    0.01943   0.07031   0.07407   0.07992   0.09393
 Alpha virt. eigenvalues --    0.11614   0.12588   0.14449   0.15658   0.16445
 Alpha virt. eigenvalues --    0.18812   0.20087   0.21871   0.22966   0.23824

 Mulliken charges:
               1
     1  C   -0.172381
     2  C   -0.039111
     3  C   -0.026639
     4  C   -0.169580
     5  H    0.091871
     6  H    0.066841
     7  H    0.057576
     8  H    0.053146
     9  H    0.060094
    10  H    0.078184
 Sum of Mulliken charges =   0.00000

 Dipole moment (field-independent basis, Debye):
    X=             -0.0088    Y=             -0.0413    Z=              0.0883  Tot=              0.0979
 Quadrupole moment (field-independent basis, Debye-Ang):
   XX=            -23.3257   YY=            -23.1890   ZZ=            -29.2435
   XY=              0.0135   XZ=             -0.0140   YZ=             -0.1190

 1\1\GINC-NODE20\SP\RB2PLYPD3-FC\def2QZVP\C4H6\BOITTIER\26-Aug-2020\0\\
 #p B2PLYPD3/Def2QZVP\\butadiene\\0,1\C,0,-3.853036,0.212744,-0.005765\
 C,0,-2.729435,-0.501266,0.075201\C,0,-1.376218,0.081848,0.021256\C,0,-
 0.270174,-0.653354,0.021358\H,0,-4.801613,-0.215068,-0.075217\H,0,-3.7
 62455,1.285327,-0.007348\H,0,-2.751565,-1.581053,0.084306\H,0,-1.20315
 4,1.189076,0.082273\H,0,-0.29061,-1.727681,0.021219\H,0,0.748528,-0.22
 6961,-0.103934\\Version=ES64L-G09RevD.01\State=1-A\HF=-155.6959406\MP2
 =-155.9216457\RMSD=5.530e-09\PG=C01 [X(C4H6)]\\@

 Normal termination of Gaussian 09 at Wed Aug 26 10:55:13 2020.
