 Gaussian 09, Revision D.01,
 Gaussian 09:  ES64L-G09RevD.01 24-Apr-2013

 --------------------
 #p B2PLYPD3/Def2QZVP
 --------------------

 ---------
 butadiene
 ---------
 Symbolic Z-matrix:
 Charge =  0 Multiplicity = 1

                         Standard orientation:
 ---------------------------------------------------------------------
 Center     Atomic      Atomic             Coordinates (Angstroms)
 Number     Number       Type             X           Y           Z
 ---------------------------------------------------------------------
      1          6           0       -1.847567    0.119666    0.018513
      2          6           0       -0.611598   -0.405738   -0.029673
      3          6           0        0.609240    0.386229   -0.031214
      4          6           0        1.842154   -0.114234    0.026207
      5          1           0       -2.714461   -0.536209    0.073373
      6          1           0       -1.975577    1.199816   -0.006789
      7          1           0       -0.477139   -1.481451   -0.025355
      8          1           0        0.497626    1.492470    0.019282
      9          1           0        2.041395   -1.156101    0.020171
     10          1           0        2.674779    0.565937    0.016320
 ---------------------------------------------------------------------

 SCF Done:  E(RB2PLYPD3) =  -155.699659943     A.U. after   11 cycles
 E2(B2PLYPD3) =    -0.2259029000D+00 E(B2PLYPD3) =    -0.15592556284291D+03

 The electronic state is 1-A.
 Alpha  occ. eigenvalues --  -10.62704 -10.62625 -10.61824 -10.61137  -0.92850
 Alpha  occ. eigenvalues --   -0.84961  -0.70134  -0.63810  -0.54432  -0.54057
 Alpha  occ. eigenvalues --   -0.46338  -0.45957  -0.41104  -0.38044  -0.27668
 Alpha virt. eigenvalues --    0.01668   0.06987   0.07392   0.08005   0.09617
 Alpha virt. eigenvalues --    0.11724   0.12317   0.14780   0.15748   0.16092
 Alpha virt. eigenvalues --    0.18763   0.20222   0.21614   0.22883   0.24054

 Mulliken charges:
               1
     1  C   -0.177601
     2  C   -0.035410
     3  C   -0.021872
     4  C   -0.179681
     5  H    0.088856
     6  H    0.069943
     7  H    0.054157
     8  H    0.047322
     9  H    0.069282
    10  H    0.085004
 Sum of Mulliken charges =   0.00000

 Dipole moment (field-independent basis, Debye):
    X=              0.0136    Y=             -0.0331    Z=              0.0433  Tot=              0.0561
 Quadrupole moment (field-independent basis, Debye-Ang):
   XX=            -23.6380   YY=            -23.0000   ZZ=            -29.3139
   XY=             -0.0893   XZ=             -0.1013   YZ=             -0.0165

 1\1\GINC-NODE16\SP\RB2PLYPD3-FC\def2QZVP\C4H6\BOITTIER\26-Aug-2020\0\\
 #p B2PLYPD3/Def2QZVP\\butadiene\\0,1\C,0,-3.84771,0.232824,0.039846\C,
 0,-2.724943,-0.504978,0.007689\C,0,-1.382845,0.057093,-0.014851\C,0,-0
 .258233,-0.652695,0.057854\H,0,-4.817107,-0.256786,0.112222\H,0,-3.781
 891,1.317402,-0.015909\H,0,-2.783712,-1.586922,0.04235\H,0,-1.295954,1
 .166532,0.004446\H,0,-0.247279,-1.713143,0.08128\H,0,0.681936,-0.13184
 5,0.029716\\Version=ES64L-G09RevD.01\State=1-A\HF=-155.6996599\MP2=-15
 5.9255628\RMSD=5.319e-09\PG=C01 [X(C4H6)]\\@

 Normal termination of Gaussian 09 at Wed Aug 26 20:58:34 2020.
