 Gaussian 09, Revision D.01,
 Gaussian 09:  ES64L-G09RevD.01 24-Apr-2013

 --------------------
 #p B2PLYPD3/Def2QZVP
 --------------------

 ---------
 butadiene
 ---------
 Symbolic Z-matrix:
 Charge =  0 Multiplicity = 1

                         Standard orientation:
 ---------------------------------------------------------------------
 Center     Atomic      Atomic             Coordinates (Angstroms)
 Number     Number       Type             X           Y           Z
 ---------------------------------------------------------------------
      1          6           0       -1.844709    0.113489    0.014858
      2          6           0       -0.609852   -0.419012   -0.065692
      3          6           0        0.603318    0.371597   -0.038186
      4          6           0        1.849070   -0.092870    0.034299
      5          1           0       -2.715652   -0.486547    0.179666
      6          1           0       -1.942218    1.220429    0.096532
      7          1           0       -0.483337   -1.484558   -0.020471
      8          1           0        0.381919    1.449657   -0.082072
      9          1           0        2.106679   -1.110296    0.060222
     10          1           0        2.665646    0.572093    0.094447
 ---------------------------------------------------------------------

 SCF Done:  E(RB2PLYPD3) =  -155.696668554     A.U. after   11 cycles
 E2(B2PLYPD3) =    -0.2259014732D+00 E(B2PLYPD3) =    -0.15592257002683D+03

 The electronic state is 1-A.
 Alpha  occ. eigenvalues --  -10.62663 -10.62513 -10.62012 -10.60923  -0.93014
 Alpha  occ. eigenvalues --   -0.84933  -0.70766  -0.64054  -0.55206  -0.53636
 Alpha  occ. eigenvalues --   -0.47153  -0.45686  -0.40923  -0.38117  -0.27631
 Alpha virt. eigenvalues --    0.01439   0.06998   0.07432   0.08167   0.09608
 Alpha virt. eigenvalues --    0.11671   0.12538   0.14823   0.15744   0.16178
 Alpha virt. eigenvalues --    0.18878   0.20397   0.21806   0.22994   0.23459

 Mulliken charges:
               1
     1  C   -0.170151
     2  C   -0.031618
     3  C   -0.023300
     4  C   -0.179761
     5  H    0.088540
     6  H    0.057018
     7  H    0.055535
     8  H    0.048627
     9  H    0.069808
    10  H    0.085302
 Sum of Mulliken charges =   0.00000

 Dipole moment (field-independent basis, Debye):
    X=              0.0211    Y=             -0.0699    Z=              0.2387  Tot=              0.2496
 Quadrupole moment (field-independent basis, Debye-Ang):
   XX=            -23.3999   YY=            -23.2454   ZZ=            -29.1953
   XY=             -0.2663   XZ=             -0.3878   YZ=             -0.0846

 1\1\GINC-NODE22\SP\RB2PLYPD3-FC\def2QZVP\C4H6\BOITTIER\26-Aug-2020\0\\
 #p B2PLYPD3/Def2QZVP\\butadiene\\0,1\C,0,-3.843411,0.238886,0.04357\C,
 0,-2.728014,-0.51381,-0.021648\C,0,-1.390043,0.040651,-0.019308\C,0,-0
 .250449,-0.642629,0.066348\H,0,-4.808731,-0.185528,0.227351\H,0,-3.735
 269,1.346817,0.091429\H,0,-2.799223,-1.58261,0.056039\H,0,-1.40979,1.1
 39237,-0.095968\H,0,-0.184079,-1.68884,0.123169\H,0,0.674808,-0.137696
 ,0.105475\\Version=ES64L-G09RevD.01\State=1-A\HF=-155.6966686\MP2=-155
 .92257\RMSD=6.768e-09\PG=C01 [X(C4H6)]\\@

 Normal termination of Gaussian 09 at Wed Aug 26 10:38:46 2020.
