 Gaussian 09, Revision D.01,
 Gaussian 09:  ES64L-G09RevD.01 24-Apr-2013

 --------------------
 #p B2PLYPD3/Def2QZVP
 --------------------

 ---------
 butadiene
 ---------
 Symbolic Z-matrix:
 Charge =  0 Multiplicity = 1

                         Standard orientation:
 ---------------------------------------------------------------------
 Center     Atomic      Atomic             Coordinates (Angstroms)
 Number     Number       Type             X           Y           Z
 ---------------------------------------------------------------------
      1          6           0       -1.821806    0.111277    0.020176
      2          6           0       -0.596003   -0.388742   -0.029399
      3          6           0        0.610387    0.406164   -0.040122
      4          6           0        1.826395   -0.111972   -0.001362
      5          1           0       -2.678623   -0.597709    0.052828
      6          1           0       -2.041208    1.167654    0.044040
      7          1           0       -0.451010   -1.445167    0.038439
      8          1           0        0.441863    1.489375   -0.031531
      9          1           0        1.911141   -1.223785    0.002658
     10          1           0        2.703994    0.509267    0.197806
 ---------------------------------------------------------------------

 SCF Done:  E(RB2PLYPD3) =  -155.697015899     A.U. after   11 cycles
 E2(B2PLYPD3) =    -0.2257208151D+00 E(B2PLYPD3) =    -0.15592273671364D+03

 The electronic state is 1-A.
 Alpha  occ. eigenvalues --  -10.62280 -10.62026 -10.61769 -10.61622  -0.93424
 Alpha  occ. eigenvalues --   -0.85065  -0.69740  -0.64040  -0.54486  -0.53642
 Alpha  occ. eigenvalues --   -0.46825  -0.45307  -0.40816  -0.38410  -0.27843
 Alpha virt. eigenvalues --    0.01902   0.06969   0.07302   0.08028   0.09677
 Alpha virt. eigenvalues --    0.11815   0.12308   0.14722   0.15583   0.16124
 Alpha virt. eigenvalues --    0.18606   0.19964   0.21635   0.22982   0.24059

 Mulliken charges:
               1
     1  C   -0.178358
     2  C   -0.025291
     3  C   -0.026058
     4  C   -0.171376
     5  H    0.079211
     6  H    0.070527
     7  H    0.053937
     8  H    0.050265
     9  H    0.058979
    10  H    0.088162
 Sum of Mulliken charges =   0.00000

 Dipole moment (field-independent basis, Debye):
    X=             -0.0309    Y=              0.0273    Z=              0.2314  Tot=              0.2351
 Quadrupole moment (field-independent basis, Debye-Ang):
   XX=            -23.9176   YY=            -23.0702   ZZ=            -29.1861
   XY=             -0.1256   XZ=              0.3552   YZ=              0.0657

 1\1\GINC-NODE14\SP\RB2PLYPD3-FC\def2QZVP\C4H6\BOITTIER\26-Aug-2020\0\\
 #p B2PLYPD3/Def2QZVP\\butadiene\\0,1\C,0,-3.82601,0.224019,0.039728\C,
 0,-2.711262,-0.491194,0.010115\C,0,-1.380733,0.071152,-0.018625\C,0,-0
 .27881,-0.657483,0.040546\H,0,-4.797159,-0.316598,0.089389\H,0,-3.8501
 78,1.302903,0.03173\H,0,-2.760183,-1.553925,0.109453\H,0,-1.350015,1.1
 66738,-0.042453\H,0,-0.397091,-1.765623,0.077453\H,0,0.697104,-0.20003
 8,0.22526\\Version=ES64L-G09RevD.01\State=1-A\HF=-155.6970159\MP2=-155
 .9227367\RMSD=4.308e-09\PG=C01 [X(C4H6)]\\@

 Normal termination of Gaussian 09 at Wed Aug 26 10:51:38 2020.
