 Gaussian 09, Revision D.01,
 Gaussian 09:  ES64L-G09RevD.01 24-Apr-2013

 --------------------
 #p B2PLYPD3/Def2QZVP
 --------------------

 ---------
 butadiene
 ---------
 Symbolic Z-matrix:
 Charge =  0 Multiplicity = 1

                         Standard orientation:
 ---------------------------------------------------------------------
 Center     Atomic      Atomic             Coordinates (Angstroms)
 Number     Number       Type             X           Y           Z
 ---------------------------------------------------------------------
      1          6           0       -1.825484   -0.121025   -0.003939
      2          6           0       -0.606558    0.424972   -0.055112
      3          6           0        0.599979   -0.375553   -0.017362
      4          6           0        1.845425    0.088004    0.019392
      5          1           0       -2.799427    0.471745    0.132719
      6          1           0       -1.937549   -1.215395    0.092164
      7          1           0       -0.496649    1.502482    0.060399
      8          1           0        0.368794   -1.441667   -0.022236
      9          1           0        2.063076    1.136588    0.034681
     10          1           0        2.721585   -0.552141    0.044395
 ---------------------------------------------------------------------

 SCF Done:  E(RB2PLYPD3) =  -155.694644369     A.U. after   11 cycles
 E2(B2PLYPD3) =    -0.2263362698D+00 E(B2PLYPD3) =    -0.15592098063897D+03

 The electronic state is 1-A.
 Alpha  occ. eigenvalues --  -10.62702 -10.62594 -10.62555 -10.61440  -0.93166
 Alpha  occ. eigenvalues --   -0.84742  -0.69951  -0.64040  -0.54554  -0.53441
 Alpha  occ. eigenvalues --   -0.47007  -0.44926  -0.40697  -0.38260  -0.27778
 Alpha virt. eigenvalues --    0.01591   0.06944   0.07327   0.07978   0.09494
 Alpha virt. eigenvalues --    0.11632   0.12512   0.14558   0.15616   0.16256
 Alpha virt. eigenvalues --    0.18815   0.20150   0.21914   0.22936   0.23344

 Mulliken charges:
               1
     1  C   -0.165111
     2  C   -0.027310
     3  C   -0.027970
     4  C   -0.175028
     5  H    0.077994
     6  H    0.057453
     7  H    0.058002
     8  H    0.050857
     9  H    0.065791
    10  H    0.085321
 Sum of Mulliken charges =   0.00000

 Dipole moment (field-independent basis, Debye):
    X=             -0.0072    Y=              0.0237    Z=              0.2597  Tot=              0.2609
 Quadrupole moment (field-independent basis, Debye-Ang):
   XX=            -23.3455   YY=            -23.3765   ZZ=            -29.2903
   XY=              0.2966   XZ=             -0.4553   YZ=              0.0905

 1\1\GINC-NODE17\SP\RB2PLYPD3-FC\def2QZVP\C4H6\BOITTIER\26-Aug-2020\0\\
 #p B2PLYPD3/Def2QZVP\\butadiene\\0,1\C,0,-3.826068,0.237807,0.009111\C
 ,0,-2.726982,-0.51942,0.080741\C,0,-1.394819,0.046863,0.029166\C,0,-0.
 254584,-0.636441,0.010946\H,0,-4.891576,-0.171133,-0.117689\H,0,-3.736
 911,1.331419,-0.115397\H,0,-2.815045,-1.601568,-0.006733\H,0,-1.428004
 ,1.137008,0.005676\H,0,-0.231507,-1.707162,0.023506\H,0,0.723513,-0.16
 7338,-0.025593\\Version=ES64L-G09RevD.01\State=1-A\HF=-155.6946444\MP2
 =-155.9209806\RMSD=4.289e-09\PG=C01 [X(C4H6)]\\@

 Normal termination of Gaussian 09 at Wed Aug 26 10:18:27 2020.
