 Gaussian 09, Revision D.01,
 Gaussian 09:  ES64L-G09RevD.01 24-Apr-2013

 --------------------
 #p B2PLYPD3/Def2QZVP
 --------------------

 ---------
 butadiene
 ---------
 Symbolic Z-matrix:
 Charge =  0 Multiplicity = 1

                         Standard orientation:
 ---------------------------------------------------------------------
 Center     Atomic      Atomic             Coordinates (Angstroms)
 Number     Number       Type             X           Y           Z
 ---------------------------------------------------------------------
      1          6           0        1.838052    0.111925    0.015932
      2          6           0        0.600176   -0.400768   -0.036760
      3          6           0       -0.605566    0.408564   -0.012263
      4          6           0       -1.832654   -0.111829    0.000373
      5          1           0        2.714210   -0.538074    0.052224
      6          1           0        2.010802    1.174640    0.023027
      7          1           0        0.498513   -1.476715    0.017016
      8          1           0       -0.494816    1.502994   -0.013647
      9          1           0       -1.986898   -1.199090    0.047173
     10          1           0       -2.741860    0.488895    0.070514
 ---------------------------------------------------------------------

 SCF Done:  E(RB2PLYPD3) =  -155.699994611     A.U. after   11 cycles
 E2(B2PLYPD3) =    -0.2260192762D+00 E(B2PLYPD3) =    -0.15592601388685D+03

 The electronic state is 1-A.
 Alpha  occ. eigenvalues --  -10.62747 -10.62582 -10.61742 -10.61601  -0.92951
 Alpha  occ. eigenvalues --   -0.84792  -0.69875  -0.64012  -0.54400  -0.53951
 Alpha  occ. eigenvalues --   -0.46452  -0.45265  -0.41228  -0.38160  -0.27642
 Alpha virt. eigenvalues --    0.01726   0.07009   0.07370   0.07972   0.09498
 Alpha virt. eigenvalues --    0.11643   0.12448   0.14602   0.15788   0.16316
 Alpha virt. eigenvalues --    0.18787   0.20267   0.21751   0.22814   0.23729

 Mulliken charges:
               1
     1  C   -0.176131
     2  C   -0.030342
     3  C   -0.032427
     4  C   -0.168537
     5  H    0.083351
     6  H    0.067329
     7  H    0.058023
     8  H    0.054934
     9  H    0.060651
    10  H    0.083148
 Sum of Mulliken charges =   0.00000

 Dipole moment (field-independent basis, Debye):
    X=             -0.0029    Y=              0.0036    Z=              0.1461  Tot=              0.1462
 Quadrupole moment (field-independent basis, Debye-Ang):
   XX=            -23.4935   YY=            -23.0902   ZZ=            -29.3225
   XY=              0.0839   XZ=             -0.0745   YZ=             -0.0740

 1\1\GINC-NODE01\SP\RB2PLYPD3-FC\def2QZVP\C4H6\BOITTIER\26-Aug-2020\0\\
 #p B2PLYPD3/Def2QZVP\\butadiene\\0,1\C,0,-3.84082,0.222322,0.000746\C,
 0,-2.714321,-0.502013,0.066385\C,0,-1.383449,0.07804,0.024568\C,0,-0.2
 69144,-0.653423,0.025061\H,0,-4.819133,-0.261286,-0.02153\H,0,-3.82091
 5,1.298362,-0.030838\H,0,-2.806722,-1.579746,0.037347\H,0,-1.296849,1.
 174389,0.000796\H,0,-0.31181,-1.751523,0.003308\H,0,0.732549,-0.226606
 ,-0.057907\\Version=ES64L-G09RevD.01\State=1-A\HF=-155.6999946\MP2=-15
 5.9260139\RMSD=4.884e-09\PG=C01 [X(C4H6)]\\@

 Normal termination of Gaussian 09 at Wed Aug 26 21:04:06 2020.
