 Gaussian 09, Revision D.01,
 Gaussian 09:  ES64L-G09RevD.01 24-Apr-2013

 --------------------
 #p B2PLYPD3/Def2QZVP
 --------------------

 ---------
 butadiene
 ---------
 Symbolic Z-matrix:
 Charge =  0 Multiplicity = 1

                         Standard orientation:
 ---------------------------------------------------------------------
 Center     Atomic      Atomic             Coordinates (Angstroms)
 Number     Number       Type             X           Y           Z
 ---------------------------------------------------------------------
      1          6           0       -1.845255    0.112524    0.010691
      2          6           0       -0.612221   -0.397326   -0.012795
      3          6           0        0.617838    0.416324   -0.050712
      4          6           0        1.846377   -0.120449    0.034142
      5          1           0       -2.682722   -0.568170   -0.014463
      6          1           0       -2.071869    1.169886    0.121279
      7          1           0       -0.434579   -1.482661   -0.035150
      8          1           0        0.485324    1.498813   -0.007620
      9          1           0        1.916328   -1.185771    0.060001
     10          1           0        2.747081    0.501458   -0.011999
 ---------------------------------------------------------------------

 SCF Done:  E(RB2PLYPD3) =  -155.698115600     A.U. after   11 cycles
 E2(B2PLYPD3) =    -0.2261269364D+00 E(B2PLYPD3) =    -0.15592424253640D+03

 The electronic state is 1-A.
 Alpha  occ. eigenvalues --  -10.62907 -10.62739 -10.61653 -10.61577  -0.92606
 Alpha  occ. eigenvalues --   -0.84847  -0.69837  -0.63909  -0.54366  -0.53695
 Alpha  occ. eigenvalues --   -0.46721  -0.45794  -0.40940  -0.37747  -0.27747
 Alpha virt. eigenvalues --    0.01741   0.07001   0.07353   0.08057   0.09342
 Alpha virt. eigenvalues --    0.11706   0.12343   0.14722   0.15642   0.16118
 Alpha virt. eigenvalues --    0.18783   0.20194   0.21643   0.22789   0.23966

 Mulliken charges:
               1
     1  C   -0.177300
     2  C   -0.034695
     3  C   -0.029690
     4  C   -0.176573
     5  H    0.083414
     6  H    0.072300
     7  H    0.052306
     8  H    0.055701
     9  H    0.065386
    10  H    0.089151
 Sum of Mulliken charges =   0.00000

 Dipole moment (field-independent basis, Debye):
    X=             -0.0033    Y=              0.0159    Z=              0.0661  Tot=              0.0680
 Quadrupole moment (field-independent basis, Debye-Ang):
   XX=            -23.6190   YY=            -23.0445   ZZ=            -29.3526
   XY=             -0.1779   XZ=             -0.1091   YZ=              0.1342

 1\1\GINC-NODE07\SP\RB2PLYPD3-FC\def2QZVP\C4H6\BOITTIER\26-Aug-2020\0\\
 #p B2PLYPD3/Def2QZVP\\butadiene\\0,1\C,0,-3.848743,0.223533,0.034178\C
 ,0,-2.726253,-0.498086,0.02183\C,0,-1.371124,0.082599,-0.032383\C,0,-0
 .257498,-0.662489,0.064141\H,0,-4.794089,-0.297542,0.022757\H,0,-3.883
 144,1.306388,0.12272\H,0,-2.744736,-1.597935,0.02206\H,0,-1.308673,1.1
 72037,-0.0118\H,0,-0.378233,-1.722486,0.112111\H,0,0.739377,-0.211968,
 0.00553\\Version=ES64L-G09RevD.01\State=1-A\HF=-155.6981156\MP2=-155.9
 242425\RMSD=5.246e-09\PG=C01 [X(C4H6)]\\@

 Normal termination of Gaussian 09 at Wed Aug 26 10:14:55 2020.
