 Gaussian 09, Revision D.01,
 Gaussian 09:  ES64L-G09RevD.01 24-Apr-2013

 --------------------
 #p B2PLYPD3/Def2QZVP
 --------------------

 ---------
 butadiene
 ---------
 Symbolic Z-matrix:
 Charge =  0 Multiplicity = 1

                         Standard orientation:
 ---------------------------------------------------------------------
 Center     Atomic      Atomic             Coordinates (Angstroms)
 Number     Number       Type             X           Y           Z
 ---------------------------------------------------------------------
      1          6           0        1.813839    0.089107    0.012632
      2          6           0        0.595842   -0.399063   -0.074844
      3          6           0       -0.590563    0.468389    0.005817
      4          6           0       -1.817764   -0.134594   -0.009249
      5          1           0        2.659156   -0.568187    0.078300
      6          1           0        2.061556    1.123699    0.132702
      7          1           0        0.460929   -1.486682    0.016374
      8          1           0       -0.399185    1.593451   -0.053761
      9          1           0       -1.926228   -1.217768    0.181101
     10          1           0       -2.864358    0.412447    0.039144
 ---------------------------------------------------------------------

 SCF Done:  E(RB2PLYPD3) =  -155.682177543     A.U. after   12 cycles
 E2(B2PLYPD3) =    -0.2275831784D+00 E(B2PLYPD3) =    -0.15590976072180D+03

 The electronic state is 1-A.
 Alpha  occ. eigenvalues --  -10.64140 -10.63316 -10.62539 -10.60859  -0.92795
 Alpha  occ. eigenvalues --   -0.84275  -0.69142  -0.63788  -0.54161  -0.53042
 Alpha  occ. eigenvalues --   -0.46437  -0.44554  -0.40594  -0.37989  -0.27572
 Alpha virt. eigenvalues --    0.01703   0.06922   0.07039   0.07857   0.08752
 Alpha virt. eigenvalues --    0.11513   0.12463   0.14470   0.15424   0.16593
 Alpha virt. eigenvalues --    0.18597   0.19845   0.22249   0.22331   0.23787

 Mulliken charges:
               1
     1  C   -0.170680
     2  C   -0.017111
     3  C   -0.044043
     4  C   -0.162792
     5  H    0.076189
     6  H    0.062287
     7  H    0.059596
     8  H    0.063061
     9  H    0.065591
    10  H    0.067903
 Sum of Mulliken charges =   0.00000

 Dipole moment (field-independent basis, Debye):
    X=              0.0998    Y=             -0.0184    Z=              0.3161  Tot=              0.3320
 Quadrupole moment (field-independent basis, Debye-Ang):
   XX=            -23.8067   YY=            -23.0855   ZZ=            -29.4453
   XY=              0.5127   XZ=              0.1261   YZ=             -0.2519

 1\1\GINC-NODE24\SP\RB2PLYPD3-FC\def2QZVP\C4H6\BOITTIER\26-Aug-2020\0\\
 #p B2PLYPD3/Def2QZVP\\butadiene\\0,1\C,0,-3.818887,0.204808,0.000014\C
 ,0,-2.711812,-0.498676,0.094746\C,0,-1.385779,0.134397,0.008775\C,0,-0
 .290786,-0.68431,0.03218\H,0,-4.770857,-0.285984,-0.061503\H,0,-3.8715
 59,1.266148,-0.130152\H,0,-2.779675,-1.593341,0.013868\H,0,-1.366493,1
 .27597,0.057542\H,0,-0.383774,-1.770671,-0.147927\H,0,0.838745,-0.3400
 63,-0.018886\\Version=ES64L-G09RevD.01\State=1-A\HF=-155.6821775\MP2=-
 155.9097607\RMSD=3.236e-09\PG=C01 [X(C4H6)]\\@

 Normal termination of Gaussian 09 at Wed Aug 26 14:55:10 2020.
