 Gaussian 09, Revision D.01,
 Gaussian 09:  ES64L-G09RevD.01 24-Apr-2013

 --------------------
 #p B2PLYPD3/Def2QZVP
 --------------------

 ---------
 butadiene
 ---------
 Symbolic Z-matrix:
 Charge =  0 Multiplicity = 1

                         Standard orientation:
 ---------------------------------------------------------------------
 Center     Atomic      Atomic             Coordinates (Angstroms)
 Number     Number       Type             X           Y           Z
 ---------------------------------------------------------------------
      1          6           0        1.859819   -0.075671   -0.055727
      2          6           0        0.575356    0.360345    0.135672
      3          6           0       -0.625800   -0.464677    0.061821
      4          6           0       -1.851130    0.130084   -0.085154
      5          1           0        2.749992    0.642603   -0.194507
      6          1           0        2.060515   -1.178816   -0.068182
      7          1           0        0.398776    1.448386   -0.061059
      8          1           0       -0.354613   -1.462707    0.023226
      9          1           0       -1.824066    1.285809    0.040753
     10          1           0       -2.780080   -0.435758   -0.079904
 ---------------------------------------------------------------------

 SCF Done:  E(RB2PLYPD3) =  -155.674044535     A.U. after   11 cycles
 E2(B2PLYPD3) =    -0.2294133137D+00 E(B2PLYPD3) =    -0.15590345784879D+03

 The electronic state is 1-A.
 Alpha  occ. eigenvalues --  -10.63419 -10.63313 -10.63223 -10.63023  -0.92592
 Alpha  occ. eigenvalues --   -0.83590  -0.69825  -0.63968  -0.54289  -0.51988
 Alpha  occ. eigenvalues --   -0.46555  -0.44667  -0.40914  -0.37632  -0.27231
 Alpha virt. eigenvalues --    0.00722   0.06839   0.07118   0.08029   0.08589
 Alpha virt. eigenvalues --    0.11686   0.12343   0.14176   0.15329   0.15865
 Alpha virt. eigenvalues --    0.18502   0.19373   0.21382   0.22699   0.24426

 Mulliken charges:
               1
     1  C   -0.180288
     2  C   -0.017248
     3  C   -0.047142
     4  C   -0.162308
     5  H    0.086349
     6  H    0.058288
     7  H    0.047819
     8  H    0.059975
     9  H    0.061943
    10  H    0.092613
 Sum of Mulliken charges =   0.00000

 Dipole moment (field-independent basis, Debye):
    X=              0.0159    Y=             -0.1169    Z=             -0.1762  Tot=              0.2121
 Quadrupole moment (field-independent basis, Debye-Ang):
   XX=            -23.7156   YY=            -23.4041   ZZ=            -29.6669
   XY=              0.0018   XZ=             -0.6435   YZ=             -0.1100

 1\1\GINC-NODE32\SP\RB2PLYPD3-FC\def2QZVP\C4H6\BOITTIER\26-Aug-2020\0\\
 #p B2PLYPD3/Def2QZVP\\butadiene\\0,1\C,0,-3.872439,0.195065,-0.051632\
 C,0,-2.690661,-0.467028,0.152384\C,0,-1.358335,0.123487,0.081042\C,0,-
 0.261807,-0.686799,-0.05253\H,0,-4.878272,-0.3493,-0.191454\H,0,-3.867
 662,1.316156,-0.07387\H,0,-2.715173,-1.570687,-0.034842\H,0,-1.441954,
 1.153919,0.032946\H,0,-0.500771,-1.816892,0.081895\H,0,0.755004,-0.300
 551,-0.044798\\Version=ES64L-G09RevD.01\State=1-A\HF=-155.6740445\MP2=
 -155.9034578\RMSD=8.535e-09\PG=C01 [X(C4H6)]\\@

 Normal termination of Gaussian 09 at Wed Aug 26 14:00:32 2020.
