 Gaussian 09, Revision D.01,
 Gaussian 09:  ES64L-G09RevD.01 24-Apr-2013

 --------------------
 #p B2PLYPD3/Def2QZVP
 --------------------

 ---------
 butadiene
 ---------
 Symbolic Z-matrix:
 Charge =  0 Multiplicity = 1

                         Standard orientation:
 ---------------------------------------------------------------------
 Center     Atomic      Atomic             Coordinates (Angstroms)
 Number     Number       Type             X           Y           Z
 ---------------------------------------------------------------------
      1          6           0        1.856287    0.066479   -0.024136
      2          6           0        0.607496   -0.349333    0.033954
      3          6           0       -0.617459    0.434879    0.014553
      4          6           0       -1.841577   -0.154929   -0.071305
      5          1           0        2.707581   -0.577417    0.042008
      6          1           0        2.259034    1.093762   -0.130972
      7          1           0        0.371367   -1.420921    0.183701
      8          1           0       -0.633047    1.572146    0.055236
      9          1           0       -2.071085   -1.155679   -0.151507
     10          1           0       -2.662331    0.505537    0.283140
 ---------------------------------------------------------------------

 SCF Done:  E(RB2PLYPD3) =  -155.681204999     A.U. after   12 cycles
 E2(B2PLYPD3) =    -0.2269375462D+00 E(B2PLYPD3) =    -0.15590814254518D+03

 The electronic state is 1-A.
 Alpha  occ. eigenvalues --  -10.63638 -10.62898 -10.61649 -10.61601  -0.92709
 Alpha  occ. eigenvalues --   -0.84913  -0.70689  -0.63691  -0.54906  -0.53804
 Alpha  occ. eigenvalues --   -0.46372  -0.45425  -0.40196  -0.37636  -0.27675
 Alpha virt. eigenvalues --    0.01031   0.06945   0.07426   0.07736   0.09600
 Alpha virt. eigenvalues --    0.11293   0.12581   0.14754   0.15848   0.16219
 Alpha virt. eigenvalues --    0.19132   0.19444   0.21646   0.22833   0.23203

 Mulliken charges:
               1
     1  C   -0.163356
     2  C   -0.033842
     3  C   -0.030548
     4  C   -0.172711
     5  H    0.079124
     6  H    0.062220
     7  H    0.058029
     8  H    0.060852
     9  H    0.071406
    10  H    0.068826
 Sum of Mulliken charges =   0.00000

 Dipole moment (field-independent basis, Debye):
    X=              0.1105    Y=             -0.0422    Z=              0.2487  Tot=              0.2754
 Quadrupole moment (field-independent basis, Debye-Ang):
   XX=            -23.3833   YY=            -23.3454   ZZ=            -29.1802
   XY=              0.6876   XZ=             -0.6304   YZ=              0.0721

 1\1\GINC-NODE37\SP\RB2PLYPD3-FC\def2QZVP\C4H6\BOITTIER\26-Aug-2020\0\\
 #p B2PLYPD3/Def2QZVP\\butadiene\\0,1\C,0,-3.864583,0.190439,0.047206\C
 ,0,-2.713092,-0.447927,-0.000865\C,0,-1.365643,0.099878,-0.013908\C,0,
 -0.26864,-0.700048,0.088133\H,0,-4.819558,-0.289243,0.007146\H,0,-4.07
 2344,1.27699,0.11912\H,0,-2.677661,-1.549085,-0.11346\H,0,-1.14356,1.2
 13159,-0.094906\H,0,-0.22447,-1.722542,0.202858\H,0,0.655038,-0.212868
 ,-0.292599\\Version=ES64L-G09RevD.01\State=1-A\HF=-155.681205\MP2=-155
 .9081425\RMSD=3.075e-09\PG=C01 [X(C4H6)]\\@

 Normal termination of Gaussian 09 at Wed Aug 26 12:23:51 2020.
