 Gaussian 09, Revision D.01,
 Gaussian 09:  ES64L-G09RevD.01 24-Apr-2013

 --------------------
 #p B2PLYPD3/Def2QZVP
 --------------------

 ---------
 butadiene
 ---------
 Symbolic Z-matrix:
 Charge =  0 Multiplicity = 1

                         Standard orientation:
 ---------------------------------------------------------------------
 Center     Atomic      Atomic             Coordinates (Angstroms)
 Number     Number       Type             X           Y           Z
 ---------------------------------------------------------------------
      1          6           0        1.833064    0.099121    0.029928
      2          6           0        0.600255   -0.392531   -0.052584
      3          6           0       -0.616050    0.437741   -0.028583
      4          6           0       -1.839107   -0.127374    0.015017
      5          1           0        2.725317   -0.532377    0.166814
      6          1           0        2.057350    1.131131   -0.027701
      7          1           0        0.505750   -1.451409   -0.087558
      8          1           0       -0.456184    1.507506   -0.014921
      9          1           0       -1.923103   -1.193377    0.072673
     10          1           0       -2.778105    0.436785    0.108027
 ---------------------------------------------------------------------

 SCF Done:  E(RB2PLYPD3) =  -155.697168670     A.U. after   11 cycles
 E2(B2PLYPD3) =    -0.2258215091D+00 E(B2PLYPD3) =    -0.15592299017917D+03

 The electronic state is 1-A.
 Alpha  occ. eigenvalues --  -10.63057 -10.62360 -10.61840 -10.61240  -0.92772
 Alpha  occ. eigenvalues --   -0.84769  -0.69894  -0.64734  -0.54487  -0.53843
 Alpha  occ. eigenvalues --   -0.46831  -0.45578  -0.41298  -0.37770  -0.27624
 Alpha virt. eigenvalues --    0.01799   0.06987   0.07509   0.08089   0.09207
 Alpha virt. eigenvalues --    0.11627   0.12647   0.14532   0.15915   0.16256
 Alpha virt. eigenvalues --    0.18838   0.20462   0.21733   0.22859   0.23880

 Mulliken charges:
               1
     1  C   -0.175701
     2  C   -0.028464
     3  C   -0.044507
     4  C   -0.167799
     5  H    0.076628
     6  H    0.065026
     7  H    0.062279
     8  H    0.063061
     9  H    0.066603
    10  H    0.082874
 Sum of Mulliken charges =   0.00000

 Dipole moment (field-independent basis, Debye):
    X=              0.0086    Y=              0.0106    Z=              0.1380  Tot=              0.1387
 Quadrupole moment (field-independent basis, Debye-Ang):
   XX=            -23.4150   YY=            -23.1375   ZZ=            -29.2535
   XY=              0.2563   XZ=             -0.0752   YZ=             -0.0943

 1\1\GINC-NODE19\SP\RB2PLYPD3-FC\def2QZVP\C4H6\BOITTIER\26-Aug-2020\0\\
 #p B2PLYPD3/Def2QZVP\\butadiene\\0,1\C,0,-3.841162,0.207572,-0.013058\
 C,0,-2.715576,-0.494232,0.08116\C,0,-1.370767,0.105084,0.040727\C,0,-0
 .268232,-0.669914,0.010416\H,0,-4.832115,-0.257402,-0.137377\H,0,-3.87
 7635,1.264021,0.022355\H,0,-2.811337,-1.552007,0.138768\H,0,-1.337319,
 1.185677,0.004128\H,0,-0.375862,-1.734781,-0.024444\H,0,0.756064,-0.28
 438,-0.093627\\Version=ES64L-G09RevD.01\State=1-A\HF=-155.6971687\MP2=
 -155.9229902\RMSD=5.647e-09\PG=C01 [X(C4H6)]\\@

 Normal termination of Gaussian 09 at Wed Aug 26 11:15:30 2020.
