 Gaussian 09, Revision D.01,
 Gaussian 09:  ES64L-G09RevD.01 24-Apr-2013

 --------------------
 #p B2PLYPD3/Def2QZVP
 --------------------

 ---------
 butadiene
 ---------
 Symbolic Z-matrix:
 Charge =  0 Multiplicity = 1

                         Standard orientation:
 ---------------------------------------------------------------------
 Center     Atomic      Atomic             Coordinates (Angstroms)
 Number     Number       Type             X           Y           Z
 ---------------------------------------------------------------------
      1          6           0        1.834719    0.084313   -0.036629
      2          6           0        0.595602   -0.382647    0.027304
      3          6           0       -0.606903    0.471129   -0.005935
      4          6           0       -1.814727   -0.152663   -0.029010
      5          1           0        2.698622   -0.544385    0.112871
      6          1           0        1.961766    1.154744   -0.059775
      7          1           0        0.415150   -1.401934    0.140698
      8          1           0       -0.623153    1.593432    0.033847
      9          1           0       -1.816261   -1.386452   -0.177053
     10          1           0       -2.688268    0.463806    0.215031
 ---------------------------------------------------------------------

 SCF Done:  E(RB2PLYPD3) =  -155.674638635     A.U. after   12 cycles
 E2(B2PLYPD3) =    -0.2277164915D+00 E(B2PLYPD3) =    -0.15590235512645D+03

 The electronic state is 1-A.
 Alpha  occ. eigenvalues --  -10.63499 -10.63377 -10.62143 -10.61060  -0.92772
 Alpha  occ. eigenvalues --   -0.84538  -0.68912  -0.63601  -0.53998  -0.53524
 Alpha  occ. eigenvalues --   -0.45909  -0.44249  -0.41696  -0.37510  -0.27558
 Alpha virt. eigenvalues --    0.01739   0.06739   0.07105   0.07812   0.09019
 Alpha virt. eigenvalues --    0.11789   0.12198   0.13940   0.15651   0.16057
 Alpha virt. eigenvalues --    0.18609   0.20004   0.20460   0.22797   0.24439

 Mulliken charges:
               1
     1  C   -0.170075
     2  C   -0.029014
     3  C   -0.041347
     4  C   -0.177367
     5  H    0.083549
     6  H    0.063883
     7  H    0.064010
     8  H    0.060002
     9  H    0.057256
    10  H    0.089103
 Sum of Mulliken charges =   0.00000

 Dipole moment (field-independent basis, Debye):
    X=              0.0113    Y=              0.0795    Z=              0.2830  Tot=              0.2942
 Quadrupole moment (field-independent basis, Debye-Ang):
   XX=            -24.4139   YY=            -22.8395   ZZ=            -29.4275
   XY=             -0.4085   XZ=             -0.1158   YZ=              0.1130

 1\1\GINC-NODE33\SP\RB2PLYPD3-FC\def2QZVP\C4H6\BOITTIER\26-Aug-2020\0\\
 #p B2PLYPD3/Def2QZVP\\butadiene\\0,1\C,0,-3.843579,0.188078,0.05046\C,
 0,-2.705433,-0.490302,0.006013\C,0,-1.372146,0.140887,0.007127\C,0,-0.
 291689,-0.682971,0.055707\H,0,-4.804848,-0.285307,-0.075268\H,0,-3.781
 621,1.264325,0.031722\H,0,-2.706404,-1.529042,-0.06737\H,0,-1.160404,1
 .240707,-0.076371\H,0,-0.504756,-1.89141,0.251749\H,0,0.674637,-0.2384
 79,-0.211321\\Version=ES64L-G09RevD.01\State=1-A\HF=-155.6746386\MP2=-
 155.9023551\RMSD=4.438e-09\PG=C01 [X(C4H6)]\\@

 Normal termination of Gaussian 09 at Wed Aug 26 12:58:34 2020.
