 Gaussian 09, Revision D.01,
 Gaussian 09:  ES64L-G09RevD.01 24-Apr-2013

 --------------------
 #p B2PLYPD3/Def2QZVP
 --------------------

 ---------
 butadiene
 ---------
 Symbolic Z-matrix:
 Charge =  0 Multiplicity = 1

                         Standard orientation:
 ---------------------------------------------------------------------
 Center     Atomic      Atomic             Coordinates (Angstroms)
 Number     Number       Type             X           Y           Z
 ---------------------------------------------------------------------
      1          6           0        1.821639   -0.108614    0.008826
      2          6           0        0.590138    0.409749   -0.060087
      3          6           0       -0.572971   -0.391503   -0.039740
      4          6           0       -1.831797    0.099614    0.032591
      5          1           0        2.754198    0.494674    0.156199
      6          1           0        1.917036   -1.169986    0.079414
      7          1           0        0.448995    1.478080    0.032064
      8          1           0       -0.408159   -1.435179   -0.022353
      9          1           0       -2.089222    1.135522    0.020983
     10          1           0       -2.664906   -0.558594    0.084151
 ---------------------------------------------------------------------

 SCF Done:  E(RB2PLYPD3) =  -155.695521814     A.U. after   11 cycles
 E2(B2PLYPD3) =    -0.2261866216D+00 E(B2PLYPD3) =    -0.15592170843561D+03

 The electronic state is 1-A.
 Alpha  occ. eigenvalues --  -10.62215 -10.62119 -10.61803 -10.61382  -0.93671
 Alpha  occ. eigenvalues --   -0.84558  -0.70754  -0.64732  -0.54709  -0.54072
 Alpha  occ. eigenvalues --   -0.46494  -0.45714  -0.41677  -0.38487  -0.27181
 Alpha virt. eigenvalues --    0.01230   0.07017   0.07498   0.08088   0.09592
 Alpha virt. eigenvalues --    0.11731   0.12590   0.14901   0.15762   0.16254
 Alpha virt. eigenvalues --    0.18724   0.20306   0.21981   0.22997   0.23758

 Mulliken charges:
               1
     1  C   -0.172702
     2  C   -0.019381
     3  C   -0.032951
     4  C   -0.182194
     5  H    0.081401
     6  H    0.060269
     7  H    0.057143
     8  H    0.057687
     9  H    0.069563
    10  H    0.081167
 Sum of Mulliken charges =   0.00000

 Dipole moment (field-independent basis, Debye):
    X=             -0.0129    Y=              0.0014    Z=              0.2480  Tot=              0.2483
 Quadrupole moment (field-independent basis, Debye-Ang):
   XX=            -23.5157   YY=            -23.1892   ZZ=            -29.1853
   XY=             -0.2829   XZ=              0.3911   YZ=              0.0396

 1\1\GINC-NODE20\SP\RB2PLYPD3-FC\def2QZVP\C4H6\BOITTIER\26-Aug-2020\0\\
 #p B2PLYPD3/Def2QZVP\\butadiene\\0,1\C,0,-3.820071,0.23408,0.039025\C,
 0,-2.707888,-0.50764,-0.015227\C,0,-1.415232,0.061788,-0.020998\C,0,-0
 .27013,-0.654038,0.065051\H,0,-4.84804,-0.179109,0.20605\H,0,-3.714599
 ,1.296171,0.076862\H,0,-2.768602,-1.580223,0.10976\H,0,-1.381626,1.117
 903,-0.035711\H,0,-0.211268,-1.719701,0.085194\H,0,0.671806,-0.162296,
 0.095279\\Version=ES64L-G09RevD.01\State=1-A\HF=-155.6955218\MP2=-155.
 9217084\RMSD=6.630e-09\PG=C01 [X(C4H6)]\\@

 Normal termination of Gaussian 09 at Wed Aug 26 09:05:28 2020.
