 Gaussian 09, Revision D.01,
 Gaussian 09:  ES64L-G09RevD.01 24-Apr-2013

 --------------------
 #p B2PLYPD3/Def2QZVP
 --------------------

 ---------
 butadiene
 ---------
 Symbolic Z-matrix:
 Charge =  0 Multiplicity = 1

                         Standard orientation:
 ---------------------------------------------------------------------
 Center     Atomic      Atomic             Coordinates (Angstroms)
 Number     Number       Type             X           Y           Z
 ---------------------------------------------------------------------
      1          6           0        1.836640    0.090915   -0.031146
      2          6           0        0.590246   -0.397781    0.044965
      3          6           0       -0.599298    0.438939    0.007487
      4          6           0       -1.832694   -0.132115   -0.051875
      5          1           0        2.760447   -0.517530   -0.018097
      6          1           0        2.020354    1.140432   -0.099412
      7          1           0        0.429375   -1.459014    0.097995
      8          1           0       -0.476641    1.530746    0.182353
      9          1           0       -1.997965   -1.223832   -0.011649
     10          1           0       -2.704932    0.529447    0.032221
 ---------------------------------------------------------------------

 SCF Done:  E(RB2PLYPD3) =  -155.694571505     A.U. after   11 cycles
 E2(B2PLYPD3) =    -0.2269685167D+00 E(B2PLYPD3) =    -0.15592154002204D+03

 The electronic state is 1-A.
 Alpha  occ. eigenvalues --  -10.63320 -10.62545 -10.62328 -10.61616  -0.92734
 Alpha  occ. eigenvalues --   -0.84270  -0.69836  -0.64076  -0.54177  -0.53540
 Alpha  occ. eigenvalues --   -0.46374  -0.45446  -0.41303  -0.37687  -0.27389
 Alpha virt. eigenvalues --    0.01453   0.07036   0.07242   0.07914   0.09168
 Alpha virt. eigenvalues --    0.11639   0.12429   0.14618   0.15547   0.16320
 Alpha virt. eigenvalues --    0.18809   0.20108   0.21705   0.22891   0.23539

 Mulliken charges:
               1
     1  C   -0.172051
     2  C   -0.030806
     3  C   -0.037334
     4  C   -0.177762
     5  H    0.080360
     6  H    0.062889
     7  H    0.060096
     8  H    0.063497
     9  H    0.070931
    10  H    0.080181
 Sum of Mulliken charges =   0.00000

 Dipole moment (field-independent basis, Debye):
    X=              0.0059    Y=              0.0058    Z=              0.2075  Tot=              0.2076
 Quadrupole moment (field-independent basis, Debye-Ang):
   XX=            -23.6984   YY=            -23.0299   ZZ=            -29.4202
   XY=              0.3264   XZ=             -0.4206   YZ=              0.0673

 1\1\GINC-NODE32\SP\RB2PLYPD3-FC\def2QZVP\C4H6\BOITTIER\26-Aug-2020\0\\
 #p B2PLYPD3/Def2QZVP\\butadiene\\0,1\C,0,-3.841788,0.211666,0.051023\C
 ,0,-2.706387,-0.499253,-0.008748\C,0,-1.38368,0.106509,-0.004246\C,0,-
 0.274985,-0.678025,0.074447\H,0,-4.861318,-0.217559,0.062033\H,0,-3.83
 001,1.278854,0.080465\H,0,-2.742637,-1.57322,-0.022493\H,0,-1.306165,1
 .195247,-0.219434\H,0,-0.312375,-1.782281,0.074624\H,0,0.702747,-0.190
 708,-0.035539\\Version=ES64L-G09RevD.01\State=1-A\HF=-155.6945715\MP2=
 -155.92154\RMSD=7.700e-09\PG=C01 [X(C4H6)]\\@

 Normal termination of Gaussian 09 at Wed Aug 26 08:47:39 2020.
