 Gaussian 09, Revision D.01,
 Gaussian 09:  ES64L-G09RevD.01 24-Apr-2013

 --------------------
 #p B2PLYPD3/Def2QZVP
 --------------------

 ---------
 butadiene
 ---------
 Symbolic Z-matrix:
 Charge =  0 Multiplicity = 1

                         Standard orientation:
 ---------------------------------------------------------------------
 Center     Atomic      Atomic             Coordinates (Angstroms)
 Number     Number       Type             X           Y           Z
 ---------------------------------------------------------------------
      1          6           0        1.830599    0.079336    0.073928
      2          6           0        0.587942   -0.377906   -0.063486
      3          6           0       -0.605653    0.469712   -0.091222
      4          6           0       -1.831568   -0.156122    0.088138
      5          1           0        2.741226   -0.580013   -0.115071
      6          1           0        2.100186    1.104037    0.279540
      7          1           0        0.454210   -1.419669   -0.141036
      8          1           0       -0.469926    1.482713   -0.187912
      9          1           0       -2.037702   -1.169347    0.117776
     10          1           0       -2.675911    0.492164    0.002560
 ---------------------------------------------------------------------

 SCF Done:  E(RB2PLYPD3) =  -155.683271931     A.U. after   12 cycles
 E2(B2PLYPD3) =    -0.2266986028D+00 E(B2PLYPD3) =    -0.15590997053412D+03

 The electronic state is 1-A.
 Alpha  occ. eigenvalues --  -10.63047 -10.62027 -10.61760 -10.61687  -0.92686
 Alpha  occ. eigenvalues --   -0.84259  -0.70549  -0.65398  -0.54434  -0.53803
 Alpha  occ. eigenvalues --   -0.47823  -0.45532  -0.41191  -0.37068  -0.27176
 Alpha virt. eigenvalues --    0.01098   0.06947   0.07628   0.08035   0.09166
 Alpha virt. eigenvalues --    0.11666   0.12438   0.14999   0.15787   0.16216
 Alpha virt. eigenvalues --    0.19166   0.20110   0.21431   0.22276   0.23597

 Mulliken charges:
               1
     1  C   -0.180615
     2  C   -0.023421
     3  C   -0.066392
     4  C   -0.169431
     5  H    0.070658
     6  H    0.063242
     7  H    0.070671
     8  H    0.081398
     9  H    0.080792
    10  H    0.073097
 Sum of Mulliken charges =   0.00000

 Dipole moment (field-independent basis, Debye):
    X=             -0.1057    Y=              0.0241    Z=             -0.1440  Tot=              0.1802
 Quadrupole moment (field-independent basis, Debye-Ang):
   XX=            -23.8627   YY=            -22.9149   ZZ=            -29.2258
   XY=              0.6432   XZ=             -0.0047   YZ=              0.1462

 1\1\GINC-NODE24\SP\RB2PLYPD3-FC\def2QZVP\C4H6\BOITTIER\26-Aug-2020\0\\
 #p B2PLYPD3/Def2QZVP\\butadiene\\0,1\C,0,-3.83985,0.19735,-0.053898\C,
 0,-2.702318,-0.477076,0.098809\C,0,-1.373001,0.136715,0.107256\C,0,-0.
 283694,-0.708661,-0.052287\H,0,-4.855876,-0.277823,0.150078\H,0,-3.916
 624,1.248363,-0.28723\H,0,-2.762512,-1.523228,0.20422\H,0,-1.319665,1.
 159585,0.176778\H,0,-0.267714,-1.742941,-0.054591\H,0,0.665774,-0.2248
 87,0.018336\\Version=ES64L-G09RevD.01\State=1-A\HF=-155.6832719\MP2=-1
 55.9099705\RMSD=4.861e-09\PG=C01 [X(C4H6)]\\@

 Normal termination of Gaussian 09 at Wed Aug 26 14:24:03 2020.
