 Gaussian 09, Revision D.01,
 Gaussian 09:  ES64L-G09RevD.01 24-Apr-2013

 --------------------
 #p B2PLYPD3/Def2QZVP
 --------------------

 ---------
 butadiene
 ---------
 Symbolic Z-matrix:
 Charge =  0 Multiplicity = 1

                         Standard orientation:
 ---------------------------------------------------------------------
 Center     Atomic      Atomic             Coordinates (Angstroms)
 Number     Number       Type             X           Y           Z
 ---------------------------------------------------------------------
      1          6           0       -1.847368    0.095525    0.019372
      2          6           0       -0.605924   -0.385724   -0.018928
      3          6           0        0.605851    0.415549   -0.026421
      4          6           0        1.838571   -0.118213    0.019474
      5          1           0       -2.722973   -0.543438    0.038011
      6          1           0       -2.018821    1.168885    0.007893
      7          1           0       -0.450231   -1.471571   -0.011429
      8          1           0        0.457785    1.479868   -0.044647
      9          1           0        2.030906   -1.178231   -0.036185
     10          1           0        2.756552    0.501668    0.085375
 ---------------------------------------------------------------------

 SCF Done:  E(RB2PLYPD3) =  -155.699716714     A.U. after   11 cycles
 E2(B2PLYPD3) =    -0.2260000042D+00 E(B2PLYPD3) =    -0.15592571671851D+03

 The electronic state is 1-A.
 Alpha  occ. eigenvalues --  -10.62736 -10.62551 -10.62053 -10.61543  -0.92930
 Alpha  occ. eigenvalues --   -0.84724  -0.70180  -0.64111  -0.54623  -0.53607
 Alpha  occ. eigenvalues --   -0.47070  -0.45261  -0.40958  -0.38084  -0.27649
 Alpha virt. eigenvalues --    0.01599   0.06965   0.07401   0.08047   0.09572
 Alpha virt. eigenvalues --    0.11632   0.12443   0.14658   0.15878   0.16131
 Alpha virt. eigenvalues --    0.18831   0.20497   0.21673   0.22866   0.23522

 Mulliken charges:
               1
     1  C   -0.177166
     2  C   -0.022928
     3  C   -0.037195
     4  C   -0.171359
     5  H    0.088111
     6  H    0.061907
     7  H    0.050862
     8  H    0.059292
     9  H    0.068590
    10  H    0.079885
 Sum of Mulliken charges =   0.00000

 Dipole moment (field-independent basis, Debye):
    X=              0.0299    Y=             -0.0091    Z=             -0.0010  Tot=              0.0312
 Quadrupole moment (field-independent basis, Debye-Ang):
   XX=            -23.3297   YY=            -23.2088   ZZ=            -29.3185
   XY=             -0.2768   XZ=              0.0397   YZ=              0.0407

 1\1\GINC-NODE20\SP\RB2PLYPD3-FC\def2QZVP\C4H6\BOITTIER\26-Aug-2020\0\\
 #p B2PLYPD3/Def2QZVP\\butadiene\\0,1\C,0,-3.850704,0.213828,0.038273\C
 ,0,-2.71727,-0.485528,0.016357\C,0,-1.380288,0.082091,-0.011583\C,0,-0
 .264692,-0.664897,0.052148\H,0,-4.827619,-0.254904,0.0734\H,0,-3.82465
 9,1.299708,-0.004319\H,0,-2.761091,-1.580938,0.055296\H,0,-1.332906,1.
 15465,-0.060612\H,0,-0.267993,-1.743368,0.027291\H,0,0.750701,-0.22019
 5,0.102161\\Version=ES64L-G09RevD.01\State=1-A\HF=-155.6997167\MP2=-15
 5.9257167\RMSD=5.433e-09\PG=C01 [X(C4H6)]\\@

 Normal termination of Gaussian 09 at Wed Aug 26 16:39:39 2020.
