 Gaussian 09, Revision D.01,
 Gaussian 09:  ES64L-G09RevD.01 24-Apr-2013

 --------------------
 #p B2PLYPD3/Def2QZVP
 --------------------

 ---------
 butadiene
 ---------
 Symbolic Z-matrix:
 Charge =  0 Multiplicity = 1

                         Standard orientation:
 ---------------------------------------------------------------------
 Center     Atomic      Atomic             Coordinates (Angstroms)
 Number     Number       Type             X           Y           Z
 ---------------------------------------------------------------------
      1          6           0        1.839228   -0.118263    0.019621
      2          6           0        0.602440    0.398460   -0.024838
      3          6           0       -0.605181   -0.377878   -0.030490
      4          6           0       -1.839093    0.104825    0.021884
      5          1           0        2.746837    0.514541    0.018465
      6          1           0        1.996336   -1.181932    0.026873
      7          1           0        0.497951    1.472376    0.020359
      8          1           0       -0.507856   -1.454625   -0.024207
      9          1           0       -2.032243    1.152979   -0.017584
     10          1           0       -2.685392   -0.546203    0.059029
 ---------------------------------------------------------------------

 SCF Done:  E(RB2PLYPD3) =  -155.700246528     A.U. after   11 cycles
 E2(B2PLYPD3) =    -0.2254956544D+00 E(B2PLYPD3) =    -0.15592574218203D+03

 The electronic state is 1-A.
 Alpha  occ. eigenvalues --  -10.62460 -10.62143 -10.61831 -10.61026  -0.93271
 Alpha  occ. eigenvalues --   -0.85057  -0.70418  -0.64235  -0.54643  -0.54313
 Alpha  occ. eigenvalues --   -0.46675  -0.45571  -0.41238  -0.38340  -0.27641
 Alpha virt. eigenvalues --    0.01590   0.06982   0.07545   0.07991   0.09838
 Alpha virt. eigenvalues --    0.11682   0.12463   0.14780   0.15841   0.16248
 Alpha virt. eigenvalues --    0.18834   0.20385   0.21695   0.22696   0.23916

 Mulliken charges:
               1
     1  C   -0.173804
     2  C   -0.033947
     3  C   -0.023135
     4  C   -0.177197
     5  H    0.083575
     6  H    0.066417
     7  H    0.056078
     8  H    0.051135
     9  H    0.065650
    10  H    0.085228
 Sum of Mulliken charges =   0.00000

 Dipole moment (field-independent basis, Debye):
    X=             -0.0088    Y=             -0.0058    Z=              0.0333  Tot=              0.0349
 Quadrupole moment (field-independent basis, Debye-Ang):
   XX=            -23.3517   YY=            -23.1654   ZZ=            -29.1996
   XY=             -0.0594   XZ=             -0.0077   YZ=             -0.0331

 1\1\GINC-NODE33\SP\RB2PLYPD3-FC\def2QZVP\C4H6\BOITTIER\26-Aug-2020\0\\
 #p B2PLYPD3/Def2QZVP\\butadiene\\0,1\C,0,-3.840792,0.23056,0.039596\C,
 0,-2.716142,-0.49951,0.011595\C,0,-1.389451,0.048518,-0.01365\C,0,-0.2
 61241,-0.644897,0.054193\H,0,-4.846706,-0.229993,0.05454\H,0,-3.805656
 ,1.304981,0.01698\H,0,-2.804706,-1.573173,0.086836\H,0,-1.293161,1.125
 112,-0.037498\H,0,-0.258254,-1.711379,0.044233\H,0,0.687716,-0.154488,
 0.074614\\Version=ES64L-G09RevD.01\State=1-A\HF=-155.7002465\MP2=-155.
 9257422\RMSD=5.122e-09\PG=C01 [X(C4H6)]\\@

 Normal termination of Gaussian 09 at Wed Aug 26 21:37:44 2020.
