 Gaussian 09, Revision D.01,
 Gaussian 09:  ES64L-G09RevD.01 24-Apr-2013

 --------------------
 #p B2PLYPD3/Def2QZVP
 --------------------

 ---------
 butadiene
 ---------
 Symbolic Z-matrix:
 Charge =  0 Multiplicity = 1

                         Standard orientation:
 ---------------------------------------------------------------------
 Center     Atomic      Atomic             Coordinates (Angstroms)
 Number     Number       Type             X           Y           Z
 ---------------------------------------------------------------------
      1          6           0        1.843308   -0.106353    0.009928
      2          6           0        0.611341    0.389102   -0.036677
      3          6           0       -0.603795   -0.401224   -0.016174
      4          6           0       -1.844390    0.104679    0.022461
      5          1           0        2.676015    0.553616    0.044618
      6          1           0        2.053999   -1.136486    0.093173
      7          1           0        0.444575    1.451979   -0.013827
      8          1           0       -0.470420   -1.481061   -0.057022
      9          1           0       -2.008501    1.190416    0.049467
     10          1           0       -2.734452   -0.495694    0.006365
 ---------------------------------------------------------------------

 SCF Done:  E(RB2PLYPD3) =  -155.700174358     A.U. after   11 cycles
 E2(B2PLYPD3) =    -0.2254238761D+00 E(B2PLYPD3) =    -0.15592559823390D+03

 The electronic state is 1-A.
 Alpha  occ. eigenvalues --  -10.62568 -10.62310 -10.61718 -10.60989  -0.93052
 Alpha  occ. eigenvalues --   -0.85021  -0.70632  -0.64180  -0.54953  -0.53977
 Alpha  occ. eigenvalues --   -0.47127  -0.45720  -0.40950  -0.38155  -0.27712
 Alpha virt. eigenvalues --    0.01628   0.07009   0.07478   0.08139   0.09703
 Alpha virt. eigenvalues --    0.11666   0.12495   0.14841   0.15823   0.16210
 Alpha virt. eigenvalues --    0.18864   0.20536   0.21836   0.22781   0.23642

 Mulliken charges:
               1
     1  C   -0.175471
     2  C   -0.027941
     3  C   -0.030664
     4  C   -0.175002
     5  H    0.084204
     6  H    0.069902
     7  H    0.054987
     8  H    0.052717
     9  H    0.059373
    10  H    0.087896
 Sum of Mulliken charges =   0.00000

 Dipole moment (field-independent basis, Debye):
    X=              0.0093    Y=             -0.0108    Z=              0.0810  Tot=              0.0822
 Quadrupole moment (field-independent basis, Debye-Ang):
   XX=            -23.2767   YY=            -23.1984   ZZ=            -29.1971
   XY=             -0.2530   XZ=              0.2608   YZ=              0.0345

 1\1\GINC-NODE04\SP\RB2PLYPD3-FC\def2QZVP\C4H6\BOITTIER\26-Aug-2020\0\\
 #p B2PLYPD3/Def2QZVP\\butadiene\\0,1\C,0,-3.844663,0.22425,0.033367\C,
 0,-2.723807,-0.488615,0.003414\C,0,-1.384985,0.067358,-0.002831\C,0,-0
 .257018,-0.65452,0.052759\H,0,-4.78338,-0.271459,0.090351\H,0,-3.86375
 7,1.277711,0.081838\H,0,-2.753206,-1.562735,0.062085\H,0,-1.319778,1.1
 51466,-0.080064\H,0,-0.293164,-1.750483,0.116355\H,0,0.727359,-0.22720
 8,0.016364\\Version=ES64L-G09RevD.01\State=1-A\HF=-155.7001744\MP2=-15
 5.9255982\RMSD=3.267e-09\PG=C01 [X(C4H6)]\\@

 Normal termination of Gaussian 09 at Wed Aug 26 20:46:28 2020.
