 Gaussian 09, Revision D.01,
 Gaussian 09:  ES64L-G09RevD.01 24-Apr-2013

 --------------------
 #p B2PLYPD3/Def2QZVP
 --------------------

 ---------
 butadiene
 ---------
 Symbolic Z-matrix:
 Charge =  0 Multiplicity = 1

                         Standard orientation:
 ---------------------------------------------------------------------
 Center     Atomic      Atomic             Coordinates (Angstroms)
 Number     Number       Type             X           Y           Z
 ---------------------------------------------------------------------
      1          6           0       -1.834886   -0.135882    0.025957
      2          6           0       -0.606951    0.429863    0.004624
      3          6           0        0.594293   -0.331787   -0.061032
      4          6           0        1.851216    0.056687   -0.000207
      5          1           0       -2.647265    0.496451   -0.111098
      6          1           0       -2.065969   -1.207766    0.182617
      7          1           0       -0.577321    1.552740   -0.099345
      8          1           0        0.320097   -1.443737   -0.037902
      9          1           0        2.233292    1.094299    0.243699
     10          1           0        2.715129   -0.605275    0.005982
 ---------------------------------------------------------------------

 SCF Done:  E(RB2PLYPD3) =  -155.683263235     A.U. after   11 cycles
 E2(B2PLYPD3) =    -0.2270161172D+00 E(B2PLYPD3) =    -0.15591027935227D+03

 The electronic state is 1-A.
 Alpha  occ. eigenvalues --  -10.63121 -10.62931 -10.62014 -10.61795  -0.93171
 Alpha  occ. eigenvalues --   -0.84897  -0.70983  -0.62781  -0.55564  -0.52838
 Alpha  occ. eigenvalues --   -0.46988  -0.44989  -0.39933  -0.38263  -0.27589
 Alpha virt. eigenvalues --    0.01045   0.07010   0.07184   0.07859   0.09715
 Alpha virt. eigenvalues --    0.11206   0.12398   0.15029   0.15620   0.16347
 Alpha virt. eigenvalues --    0.18931   0.20064   0.21904   0.22372   0.22858

 Mulliken charges:
               1
     1  C   -0.176240
     2  C   -0.031619
     3  C   -0.021768
     4  C   -0.161690
     5  H    0.085361
     6  H    0.069137
     7  H    0.053597
     8  H    0.044252
     9  H    0.057997
    10  H    0.080971
 Sum of Mulliken charges =   0.00000

 Dipole moment (field-independent basis, Debye):
    X=             -0.0935    Y=              0.0036    Z=              0.1418  Tot=              0.1699
 Quadrupole moment (field-independent basis, Debye-Ang):
   XX=            -23.0254   YY=            -23.5594   ZZ=            -29.2255
   XY=              0.4466   XZ=              0.6118   YZ=             -0.1690

 1\1\GINC-NODE11\SP\RB2PLYPD3-FC\def2QZVP\C4H6\BOITTIER\26-Aug-2020\0\\
 #p B2PLYPD3/Def2QZVP\\butadiene\\0,1\C,0,-3.828661,0.263983,-0.004592\
 C,0,-2.728808,-0.521345,0.039342\C,0,-1.405104,0.002613,0.065504\C,0,-
 0.244434,-0.61799,0.018982\H,0,-4.743739,-0.197148,0.16446\H,0,-3.8559
 68,1.351973,-0.210524\H,0,-2.909561,-1.623812,0.19566\H,0,-1.465632,1.
 14409,-0.008785\H,0,-0.06716,-1.718972,-0.17729\H,0,0.728382,-0.131558
 ,-0.020897\\Version=ES64L-G09RevD.01\State=1-A\HF=-155.6832632\MP2=-15
 5.9102794\RMSD=8.334e-09\PG=C01 [X(C4H6)]\\@

 Normal termination of Gaussian 09 at Wed Aug 26 14:26:50 2020.
