 Gaussian 09, Revision D.01,
 Gaussian 09:  ES64L-G09RevD.01 24-Apr-2013

 --------------------
 #p B2PLYPD3/Def2QZVP
 --------------------

 ---------
 butadiene
 ---------
 Symbolic Z-matrix:
 Charge =  0 Multiplicity = 1

                         Standard orientation:
 ---------------------------------------------------------------------
 Center     Atomic      Atomic             Coordinates (Angstroms)
 Number     Number       Type             X           Y           Z
 ---------------------------------------------------------------------
      1          6           0       -1.837147    0.112681   -0.022491
      2          6           0       -0.600653   -0.406896    0.036904
      3          6           0        0.604853    0.389455    0.019260
      4          6           0        1.832706   -0.109539   -0.023427
      5          1           0       -2.736003   -0.501313   -0.023451
      6          1           0       -2.008736    1.182004   -0.021452
      7          1           0       -0.462651   -1.465182   -0.015795
      8          1           0        0.489516    1.454101    0.021030
      9          1           0        2.031568   -1.141478   -0.009967
     10          1           0        2.687750    0.557660   -0.011837
 ---------------------------------------------------------------------

 SCF Done:  E(RB2PLYPD3) =  -155.700317200     A.U. after   11 cycles
 E2(B2PLYPD3) =    -0.2253514171D+00 E(B2PLYPD3) =    -0.15592566861699D+03

 The electronic state is 1-A.
 Alpha  occ. eigenvalues --  -10.62406 -10.62064 -10.61730 -10.60986  -0.93207
 Alpha  occ. eigenvalues --   -0.84969  -0.70387  -0.64590  -0.54591  -0.54296
 Alpha  occ. eigenvalues --   -0.46709  -0.45816  -0.41272  -0.38220  -0.27639
 Alpha virt. eigenvalues --    0.01691   0.06992   0.07546   0.08093   0.09662
 Alpha virt. eigenvalues --    0.11719   0.12488   0.14851   0.15795   0.16217
 Alpha virt. eigenvalues --    0.18822   0.20376   0.21840   0.22904   0.23859

 Mulliken charges:
               1
     1  C   -0.173204
     2  C   -0.038690
     3  C   -0.023138
     4  C   -0.178129
     5  H    0.083089
     6  H    0.064860
     7  H    0.059740
     8  H    0.055989
     9  H    0.068186
    10  H    0.081298
 Sum of Mulliken charges =   0.00000

 Dipole moment (field-independent basis, Debye):
    X=             -0.0037    Y=             -0.0045    Z=             -0.0133  Tot=              0.0145
 Quadrupole moment (field-independent basis, Debye-Ang):
   XX=            -23.4198   YY=            -23.0935   ZZ=            -29.1911
   XY=             -0.2274   XZ=              0.0968   YZ=              0.0469

 1\1\GINC-NODE13\SP\RB2PLYPD3-FC\def2QZVP\C4H6\BOITTIER\26-Aug-2020\0\\
 #p B2PLYPD3/Def2QZVP\\butadiene\\0,1\C,0,-3.838332,0.228715,-0.006411\
 C,0,-2.716038,-0.504125,0.069805\C,0,-1.386449,0.06036,0.034042\C,0,-0
 .269172,-0.653389,0.007645\H,0,-4.833397,-0.212428,0.006681\H,0,-3.813
 727,1.311083,-0.03415\H,0,-2.771802,-1.570939,0.045527\H,0,-1.307363,1
 .127977,0.007297\H,0,-0.26016,-1.70355,0.048955\H,0,0.692448,-0.151733
 ,0.003661\\Version=ES64L-G09RevD.01\State=1-A\HF=-155.7003172\MP2=-155
 .9256686\RMSD=4.992e-09\PG=C01 [X(C4H6)]\\@

 Normal termination of Gaussian 09 at Wed Aug 26 22:21:54 2020.
