 Gaussian 09, Revision D.01,
 Gaussian 09:  ES64L-G09RevD.01 24-Apr-2013

 --------------------
 #p B2PLYPD3/Def2QZVP
 --------------------

 ---------
 butadiene
 ---------
 Symbolic Z-matrix:
 Charge =  0 Multiplicity = 1

                         Standard orientation:
 ---------------------------------------------------------------------
 Center     Atomic      Atomic             Coordinates (Angstroms)
 Number     Number       Type             X           Y           Z
 ---------------------------------------------------------------------
      1          6           0        1.821270   -0.105616   -0.032607
      2          6           0        0.589824    0.403019    0.004425
      3          6           0       -0.601411   -0.423936    0.044169
      4          6           0       -1.828224    0.111303   -0.028569
      5          1           0        2.666727    0.534230   -0.028431
      6          1           0        2.012411   -1.154605    0.037699
      7          1           0        0.457042    1.515196    0.096156
      8          1           0       -0.395410   -1.468023    0.024955
      9          1           0       -1.984078    1.214241    0.011085
     10          1           0       -2.645448   -0.549658   -0.065969
 ---------------------------------------------------------------------

 SCF Done:  E(RB2PLYPD3) =  -155.695770439     A.U. after   11 cycles
 E2(B2PLYPD3) =    -0.2258924837D+00 E(B2PLYPD3) =    -0.15592166292231D+03

 The electronic state is 1-A.
 Alpha  occ. eigenvalues --  -10.62606 -10.62308 -10.61626 -10.60906  -0.93104
 Alpha  occ. eigenvalues --   -0.84873  -0.70285  -0.63947  -0.54841  -0.53717
 Alpha  occ. eigenvalues --   -0.46604  -0.45858  -0.41253  -0.38028  -0.27532
 Alpha virt. eigenvalues --    0.01813   0.07067   0.07242   0.08165   0.09382
 Alpha virt. eigenvalues --    0.11773   0.12351   0.14848   0.15607   0.16236
 Alpha virt. eigenvalues --    0.18655   0.20198   0.21662   0.23310   0.24011

 Mulliken charges:
               1
     1  C   -0.184302
     2  C   -0.014530
     3  C   -0.042438
     4  C   -0.174526
     5  H    0.083872
     6  H    0.063875
     7  H    0.048066
     8  H    0.060391
     9  H    0.072299
    10  H    0.087292
 Sum of Mulliken charges =   0.00000

 Dipole moment (field-independent basis, Debye):
    X=              0.0028    Y=             -0.0436    Z=              0.1070  Tot=              0.1156
 Quadrupole moment (field-independent basis, Debye-Ang):
   XX=            -23.8310   YY=            -22.9033   ZZ=            -29.2541
   XY=             -0.2770   XZ=              0.2463   YZ=              0.1023

 1\1\GINC-NODE28\SP\RB2PLYPD3-FC\def2QZVP\C4H6\BOITTIER\26-Aug-2020\0\\
 #p B2PLYPD3/Def2QZVP\\butadiene\\0,1\C,0,-3.82467,0.225669,-0.010333\C
 ,0,-2.709287,-0.501896,0.045441\C,0,-1.384643,0.089454,0.055413\C,0,-0
 .279485,-0.66729,0.002455\H,0,-4.774457,-0.244842,0.016874\H,0,-3.8166
 31,1.293733,0.021785\H,0,-2.785372,-1.615335,0.177534\H,0,-1.392703,1.
 152276,-0.001755\H,0,-0.331521,-1.777818,0.082175\H,0,0.646281,-0.1719
 73,-0.058728\\Version=ES64L-G09RevD.01\State=1-A\HF=-155.6957704\MP2=-
 155.9216629\RMSD=6.648e-09\PG=C01 [X(C4H6)]\\@

 Normal termination of Gaussian 09 at Wed Aug 26 08:59:11 2020.
