 Gaussian 09, Revision D.01,
 Gaussian 09:  ES64L-G09RevD.01 24-Apr-2013

 --------------------
 #p B2PLYPD3/Def2QZVP
 --------------------

 ---------
 butadiene
 ---------
 Symbolic Z-matrix:
 Charge =  0 Multiplicity = 1

                         Standard orientation:
 ---------------------------------------------------------------------
 Center     Atomic      Atomic             Coordinates (Angstroms)
 Number     Number       Type             X           Y           Z
 ---------------------------------------------------------------------
      1          6           0        1.840477    0.101629    0.021463
      2          6           0        0.595853   -0.395422   -0.020893
      3          6           0       -0.603768    0.420330   -0.025660
      4          6           0       -1.836521   -0.117917    0.008117
      5          1           0        2.687580   -0.558195    0.017068
      6          1           0        1.999952    1.168868   -0.014502
      7          1           0        0.458599   -1.453984    0.000713
      8          1           0       -0.415164    1.493015    0.029250
      9          1           0       -1.944610   -1.190528    0.025157
     10          1           0       -2.762601    0.489101    0.044151
 ---------------------------------------------------------------------

 SCF Done:  E(RB2PLYPD3) =  -155.699438881     A.U. after   11 cycles
 E2(B2PLYPD3) =    -0.2261420614D+00 E(B2PLYPD3) =    -0.15592558094233D+03

 The electronic state is 1-A.
 Alpha  occ. eigenvalues --  -10.62784 -10.62261 -10.62020 -10.61397  -0.93011
 Alpha  occ. eigenvalues --   -0.84635  -0.70095  -0.64357  -0.54449  -0.53765
 Alpha  occ. eigenvalues --   -0.46642  -0.45744  -0.41356  -0.38055  -0.27495
 Alpha virt. eigenvalues --    0.01580   0.07013   0.07392   0.08105   0.09428
 Alpha virt. eigenvalues --    0.11724   0.12478   0.14665   0.15834   0.16024
 Alpha virt. eigenvalues --    0.18702   0.20446   0.21549   0.23008   0.24005

 Mulliken charges:
               1
     1  C   -0.183041
     2  C   -0.024037
     3  C   -0.033127
     4  C   -0.174574
     5  H    0.087165
     6  H    0.065380
     7  H    0.054190
     8  H    0.055405
     9  H    0.067072
    10  H    0.085566
 Sum of Mulliken charges =   0.00000

 Dipole moment (field-independent basis, Debye):
    X=             -0.0155    Y=             -0.0257    Z=              0.0575  Tot=              0.0649
 Quadrupole moment (field-independent basis, Debye-Ang):
   XX=            -23.5931   YY=            -23.0847   ZZ=            -29.3332
   XY=              0.1569   XZ=             -0.1882   YZ=              0.0007

 1\1\GINC-NODE27\SP\RB2PLYPD3-FC\def2QZVP\C4H6\BOITTIER\26-Aug-2020\0\\
 #p B2PLYPD3/Def2QZVP\\butadiene\\0,1\C,0,-3.844227,0.218274,-0.0022\C,
 0,-2.710524,-0.495454,0.054828\C,0,-1.382575,0.088314,0.036593\C,0,-0.
 268407,-0.6659,0.018698\H,0,-4.797143,-0.276085,0.020839\H,0,-3.806831
 ,1.297301,0.003068\H,0,-2.768122,-1.561504,0.063656\H,0,-1.373276,1.17
 5421,-0.049143\H,0,-0.357216,-1.740326,0.032483\H,0,0.752414,-0.238704
 ,-0.034425\\Version=ES64L-G09RevD.01\State=1-A\HF=-155.6994389\MP2=-15
 5.9255809\RMSD=3.812e-09\PG=C01 [X(C4H6)]\\@

 Normal termination of Gaussian 09 at Wed Aug 26 19:44:35 2020.
