 Gaussian 09, Revision D.01,
 Gaussian 09:  ES64L-G09RevD.01 24-Apr-2013

 --------------------
 #p B2PLYPD3/Def2QZVP
 --------------------

 ---------
 butadiene
 ---------
 Symbolic Z-matrix:
 Charge =  0 Multiplicity = 1

                         Standard orientation:
 ---------------------------------------------------------------------
 Center     Atomic      Atomic             Coordinates (Angstroms)
 Number     Number       Type             X           Y           Z
 ---------------------------------------------------------------------
      1          6           0        1.828570   -0.109592    0.010287
      2          6           0        0.605303    0.417956   -0.022364
      3          6           0       -0.580754   -0.409703   -0.048198
      4          6           0       -1.835764    0.108978    0.020070
      5          1           0        2.714809    0.489622    0.124509
      6          1           0        1.970557   -1.183686    0.051617
      7          1           0        0.477400    1.483096   -0.020226
      8          1           0       -0.480027   -1.451458   -0.069658
      9          1           0       -2.076025    1.145486   -0.034495
     10          1           0       -2.710839   -0.528894    0.189482
 ---------------------------------------------------------------------

 SCF Done:  E(RB2PLYPD3) =  -155.696939695     A.U. after   11 cycles
 E2(B2PLYPD3) =    -0.2259783882D+00 E(B2PLYPD3) =    -0.15592291808294D+03

 The electronic state is 1-A.
 Alpha  occ. eigenvalues --  -10.62502 -10.62365 -10.61727 -10.61349  -0.93078
 Alpha  occ. eigenvalues --   -0.84570  -0.70281  -0.64929  -0.54726  -0.53970
 Alpha  occ. eigenvalues --   -0.46526  -0.45652  -0.41826  -0.37941  -0.27265
 Alpha virt. eigenvalues --    0.01499   0.07008   0.07530   0.08124   0.09292
 Alpha virt. eigenvalues --    0.11674   0.12575   0.14732   0.15994   0.16197
 Alpha virt. eigenvalues --    0.18834   0.20535   0.21698   0.23021   0.23721

 Mulliken charges:
               1
     1  C   -0.170378
     2  C   -0.032371
     3  C   -0.038807
     4  C   -0.179136
     5  H    0.082005
     6  H    0.062392
     7  H    0.062762
     8  H    0.068779
     9  H    0.069086
    10  H    0.075666
 Sum of Mulliken charges =   0.00000

 Dipole moment (field-independent basis, Debye):
    X=              0.0112    Y=              0.0208    Z=              0.1663  Tot=              0.1679
 Quadrupole moment (field-independent basis, Debye-Ang):
   XX=            -23.5780   YY=            -23.0302   ZZ=            -29.2220
   XY=             -0.2836   XZ=              0.0054   YZ=             -0.1000

 1\1\GINC-NODE26\SP\RB2PLYPD3-FC\def2QZVP\C4H6\BOITTIER\26-Aug-2020\0\\
 #p B2PLYPD3/Def2QZVP\\butadiene\\0,1\C,0,-3.827417,0.228657,0.033917\C
 ,0,-2.721616,-0.514727,0.015475\C,0,-1.404049,0.080762,-0.027286\C,0,-
 0.265165,-0.657418,0.055017\H,0,-4.808161,-0.195238,0.160321\H,0,-3.77
 0078,1.311241,0.050366\H,0,-2.791051,-1.584937,0.042253\H,0,-1.312233,
 1.122567,-0.072797\H,0,-0.21904,-1.721373,0.024644\H,0,0.712399,-0.187
 002,0.211266\\Version=ES64L-G09RevD.01\State=1-A\HF=-155.6969397\MP2=-
 155.9229181\RMSD=5.564e-09\PG=C01 [X(C4H6)]\\@

 Normal termination of Gaussian 09 at Wed Aug 26 08:46:37 2020.
