 Gaussian 09, Revision D.01,
 Gaussian 09:  ES64L-G09RevD.01 24-Apr-2013

 --------------------
 #p B2PLYPD3/Def2QZVP
 --------------------

 ---------
 butadiene
 ---------
 Symbolic Z-matrix:
 Charge =  0 Multiplicity = 1

                         Standard orientation:
 ---------------------------------------------------------------------
 Center     Atomic      Atomic             Coordinates (Angstroms)
 Number     Number       Type             X           Y           Z
 ---------------------------------------------------------------------
      1          6           0       -1.857633    0.091588    0.000940
      2          6           0       -0.636204   -0.338614    0.006071
      3          6           0        0.609963    0.394369   -0.067219
      4          6           0        1.848995   -0.135398   -0.002625
      5          1           0       -2.699650   -0.665444    0.026503
      6          1           0       -2.067867    1.155146    0.010782
      7          1           0       -0.356527   -1.377907    0.053969
      8          1           0        0.616208    1.518699    0.157800
      9          1           0        1.998255   -1.195190    0.032251
     10          1           0        2.718858    0.493031    0.095695
 ---------------------------------------------------------------------

 SCF Done:  E(RB2PLYPD3) =  -155.686519504     A.U. after   11 cycles
 E2(B2PLYPD3) =    -0.2261482490D+00 E(B2PLYPD3) =    -0.15591266775285D+03

 The electronic state is 1-A.
 Alpha  occ. eigenvalues --  -10.63121 -10.61981 -10.61824 -10.61721  -0.93278
 Alpha  occ. eigenvalues --   -0.85427  -0.70473  -0.63241  -0.54340  -0.54077
 Alpha  occ. eigenvalues --   -0.47414  -0.45084  -0.40269  -0.37798  -0.28184
 Alpha virt. eigenvalues --    0.01552   0.06959   0.07376   0.07815   0.09878
 Alpha virt. eigenvalues --    0.11636   0.12156   0.14758   0.15353   0.16093
 Alpha virt. eigenvalues --    0.18832   0.19522   0.22030   0.22825   0.23799

 Mulliken charges:
               1
     1  C   -0.171046
     2  C   -0.026945
     3  C   -0.019320
     4  C   -0.180242
     5  H    0.087855
     6  H    0.076189
     7  H    0.045407
     8  H    0.040067
     9  H    0.060380
    10  H    0.087656
 Sum of Mulliken charges =   0.00000

 Dipole moment (field-independent basis, Debye):
    X=              0.0839    Y=             -0.0585    Z=              0.2932  Tot=              0.3105
 Quadrupole moment (field-independent basis, Debye-Ang):
   XX=            -23.3284   YY=            -23.4834   ZZ=            -29.1830
   XY=             -0.1079   XZ=              0.4156   YZ=              0.1922

 1\1\GINC-NODE08\SP\RB2PLYPD3-FC\def2QZVP\C4H6\BOITTIER\26-Aug-2020\0\\
 #p B2PLYPD3/Def2QZVP\\butadiene\\0,1\C,0,-3.861065,0.199832,0.023551\C
 ,0,-2.734042,-0.437754,0.040601\C,0,-1.378485,0.064157,-0.037625\C,0,-
 0.251714,-0.673624,0.040415\H,0,-4.822861,-0.397346,0.056273\H,0,-3.88
 1511,1.283801,0.016897\H,0,-2.641088,-1.509137,0.104955\H,0,-1.175577,
 1.173256,0.170985\H,0,-0.290725,-1.742515,0.091445\H,0,0.714694,-0.206
 044,0.133567\\Version=ES64L-G09RevD.01\State=1-A\HF=-155.6865195\MP2=-
 155.9126678\RMSD=7.338e-09\PG=C01 [X(C4H6)]\\@

 Normal termination of Gaussian 09 at Wed Aug 26 15:50:14 2020.
