 Gaussian 09, Revision D.01,
 Gaussian 09:  ES64L-G09RevD.01 24-Apr-2013

 --------------------
 #p B2PLYPD3/Def2QZVP
 --------------------

 ---------
 butadiene
 ---------
 Symbolic Z-matrix:
 Charge =  0 Multiplicity = 1

                         Standard orientation:
 ---------------------------------------------------------------------
 Center     Atomic      Atomic             Coordinates (Angstroms)
 Number     Number       Type             X           Y           Z
 ---------------------------------------------------------------------
      1          6           0        1.833441    0.103199   -0.021736
      2          6           0        0.587779   -0.382172    0.008129
      3          6           0       -0.604904    0.407397    0.051997
      4          6           0       -1.815086   -0.129104   -0.037874
      5          1           0        2.706354   -0.552424   -0.069364
      6          1           0        1.993222    1.157088    0.030101
      7          1           0        0.428352   -1.437179    0.051923
      8          1           0       -0.530846    1.512814    0.001021
      9          1           0       -1.930526   -1.231637    0.064403
     10          1           0       -2.673938    0.555417   -0.081175
 ---------------------------------------------------------------------

 SCF Done:  E(RB2PLYPD3) =  -155.696413791     A.U. after   11 cycles
 E2(B2PLYPD3) =    -0.2260622689D+00 E(B2PLYPD3) =    -0.15592247605979D+03

 The electronic state is 1-A.
 Alpha  occ. eigenvalues --  -10.62322 -10.62110 -10.61861 -10.61392  -0.93481
 Alpha  occ. eigenvalues --   -0.84939  -0.69954  -0.63881  -0.54457  -0.53889
 Alpha  occ. eigenvalues --   -0.46144  -0.45530  -0.41393  -0.38410  -0.27572
 Alpha virt. eigenvalues --    0.01715   0.07011   0.07305   0.07958   0.09632
 Alpha virt. eigenvalues --    0.11804   0.12307   0.14751   0.15613   0.16197
 Alpha virt. eigenvalues --    0.18587   0.19943   0.21486   0.23047   0.24226

 Mulliken charges:
               1
     1  C   -0.182102
     2  C   -0.025848
     3  C   -0.023439
     4  C   -0.175186
     5  H    0.086020
     6  H    0.068202
     7  H    0.053363
     8  H    0.048596
     9  H    0.066850
    10  H    0.083543
 Sum of Mulliken charges =   0.00000

 Dipole moment (field-independent basis, Debye):
    X=             -0.0282    Y=              0.0196    Z=              0.0474  Tot=              0.0586
 Quadrupole moment (field-independent basis, Debye-Ang):
   XX=            -23.8777   YY=            -23.0076   ZZ=            -29.2478
   XY=             -0.0815   XZ=              0.0211   YZ=             -0.1398

 1\1\GINC-NODE02\SP\RB2PLYPD3-FC\def2QZVP\C4H6\BOITTIER\26-Aug-2020\0\\
 #p B2PLYPD3/Def2QZVP\\butadiene\\0,1\C,0,-3.837404,0.215725,0.041782\C
 ,0,-2.698982,-0.485568,0.023485\C,0,-1.384186,0.076388,-0.034423\C,0,-
 0.289578,-0.666445,0.067963\H,0,-4.813592,-0.271726,0.101239\H,0,-3.80
 5805,1.279937,-0.031387\H,0,-2.731334,-1.552725,0.001064\H,0,-1.258797
 ,1.17797,-0.005705\H,0,-0.373848,-1.773632,-0.012042\H,0,0.678151,-0.1
 46234,0.098816\\Version=ES64L-G09RevD.01\State=1-A\HF=-155.6964138\MP2
 =-155.9224761\RMSD=3.963e-09\PG=C01 [X(C4H6)]\\@

 Normal termination of Gaussian 09 at Wed Aug 26 08:56:48 2020.
