 Gaussian 09, Revision D.01,
 Gaussian 09:  ES64L-G09RevD.01 24-Apr-2013

 --------------------
 #p B2PLYPD3/Def2QZVP
 --------------------

 ---------
 butadiene
 ---------
 Symbolic Z-matrix:
 Charge =  0 Multiplicity = 1

                         Standard orientation:
 ---------------------------------------------------------------------
 Center     Atomic      Atomic             Coordinates (Angstroms)
 Number     Number       Type             X           Y           Z
 ---------------------------------------------------------------------
      1          6           0        1.824558   -0.140481    0.029461
      2          6           0        0.625239    0.407958   -0.111836
      3          6           0       -0.583567   -0.335342   -0.061378
      4          6           0       -1.873809    0.078602    0.044508
      5          1           0        2.754512    0.512663    0.249948
      6          1           0        1.979126   -1.165110    0.139772
      7          1           0        0.527833    1.521428    0.018358
      8          1           0       -0.353424   -1.347448   -0.067822
      9          1           0       -2.224230    1.023574    0.137801
     10          1           0       -2.638343   -0.609534    0.117406
 ---------------------------------------------------------------------

 SCF Done:  E(RB2PLYPD3) =  -155.679543891     A.U. after   11 cycles
 E2(B2PLYPD3) =    -0.2260872190D+00 E(B2PLYPD3) =    -0.15590563111012D+03

 The electronic state is 1-A.
 Alpha  occ. eigenvalues --  -10.62629 -10.62223 -10.62137 -10.60632  -0.93580
 Alpha  occ. eigenvalues --   -0.85004  -0.71924  -0.64548  -0.55083  -0.54441
 Alpha  occ. eigenvalues --   -0.47058  -0.46065  -0.40562  -0.38436  -0.27446
 Alpha virt. eigenvalues --    0.00924   0.06834   0.07649   0.07975   0.09809
 Alpha virt. eigenvalues --    0.11647   0.12646   0.15213   0.15574   0.16299
 Alpha virt. eigenvalues --    0.18810   0.20101   0.22257   0.22936   0.23502

 Mulliken charges:
               1
     1  C   -0.164559
     2  C   -0.016603
     3  C   -0.036950
     4  C   -0.176521
     5  H    0.073071
     6  H    0.066550
     7  H    0.051532
     8  H    0.055883
     9  H    0.068525
    10  H    0.079071
 Sum of Mulliken charges =   0.00000

 Dipole moment (field-independent basis, Debye):
    X=              0.0580    Y=             -0.0465    Z=              0.4192  Tot=              0.4257
 Quadrupole moment (field-independent basis, Debye-Ang):
   XX=            -23.1909   YY=            -23.4629   ZZ=            -29.0174
   XY=             -0.5578   XZ=              0.3992   YZ=              0.1794

 1\1\GINC-NODE15\SP\RB2PLYPD3-FC\def2QZVP\C4H6\BOITTIER\26-Aug-2020\0\\
 #p B2PLYPD3/Def2QZVP\\butadiene\\0,1\C,0,-3.819789,0.260283,0.062253\C
 ,0,-2.742525,-0.503402,-0.061858\C,0,-1.417497,0.006437,-0.036977\C,0,
 -0.224467,-0.63383,0.081444\H,0,-4.852295,-0.203453,0.304959\H,0,-3.78
 2882,1.298889,0.138802\H,0,-2.850274,-1.611021,0.104947\H,0,-1.457982,
 1.042851,-0.076643\H,0,-0.052831,-1.623576,0.205594\H,0,0.653876,-0.09
 5852,0.130944\\Version=ES64L-G09RevD.01\State=1-A\HF=-155.6795439\MP2=
 -155.9056311\RMSD=8.694e-09\PG=C01 [X(C4H6)]\\@

 Normal termination of Gaussian 09 at Wed Aug 26 14:18:20 2020.
