 Gaussian 09, Revision D.01,
 Gaussian 09:  ES64L-G09RevD.01 24-Apr-2013

 --------------------
 #p B2PLYPD3/Def2QZVP
 --------------------

 ---------
 butadiene
 ---------
 Symbolic Z-matrix:
 Charge =  0 Multiplicity = 1

                         Standard orientation:
 ---------------------------------------------------------------------
 Center     Atomic      Atomic             Coordinates (Angstroms)
 Number     Number       Type             X           Y           Z
 ---------------------------------------------------------------------
      1          6           0       -1.854004    0.118156    0.022133
      2          6           0       -0.618643   -0.401982   -0.005760
      3          6           0        0.602641    0.360870   -0.009060
      4          6           0        1.844554   -0.100438    0.001635
      5          1           0       -2.686542   -0.498402   -0.061226
      6          1           0       -1.929237    1.224989   -0.010832
      7          1           0       -0.467159   -1.454952   -0.054663
      8          1           0        0.524522    1.418017    0.047289
      9          1           0        2.055766   -1.148119    0.107749
     10          1           0        2.655362    0.598830   -0.082002
 ---------------------------------------------------------------------

 SCF Done:  E(RB2PLYPD3) =  -155.696016825     A.U. after   11 cycles
 E2(B2PLYPD3) =    -0.2253572705D+00 E(B2PLYPD3) =    -0.15592137409512D+03

 The electronic state is 1-A.
 Alpha  occ. eigenvalues --  -10.62248 -10.61757 -10.61550 -10.61137  -0.93309
 Alpha  occ. eigenvalues --   -0.85329  -0.70660  -0.64269  -0.55097  -0.54141
 Alpha  occ. eigenvalues --   -0.46866  -0.45957  -0.41315  -0.38106  -0.27696
 Alpha virt. eigenvalues --    0.01510   0.06992   0.07579   0.08127   0.09887
 Alpha virt. eigenvalues --    0.11761   0.12402   0.14767   0.15629   0.16245
 Alpha virt. eigenvalues --    0.18774   0.20252   0.21617   0.22478   0.24509

 Mulliken charges:
               1
     1  C   -0.175606
     2  C   -0.039819
     3  C   -0.014080
     4  C   -0.184353
     5  H    0.094148
     6  H    0.065680
     7  H    0.052904
     8  H    0.048542
     9  H    0.066400
    10  H    0.086183
 Sum of Mulliken charges =   0.00000

 Dipole moment (field-independent basis, Debye):
    X=              0.0107    Y=             -0.0245    Z=             -0.0591  Tot=              0.0648
 Quadrupole moment (field-independent basis, Debye-Ang):
   XX=            -23.5889   YY=            -23.1282   ZZ=            -29.1217
   XY=              0.1387   XZ=              0.2724   YZ=             -0.0454

 1\1\GINC-NODE39\SP\RB2PLYPD3-FC\def2QZVP\C4H6\BOITTIER\26-Aug-2020\0\\
 #p B2PLYPD3/Def2QZVP\\butadiene\\0,1\C,0,-3.851945,0.233699,0.034537\C
 ,0,-2.728967,-0.498635,0.027763\C,0,-1.391388,0.03417,0.005617\C,0,-0.
 251427,-0.64026,0.035609\H,0,-4.781083,-0.227129,-0.032931\H,0,-3.7289
 78,1.334665,-0.03313\H,0,-2.767444,-1.56276,0.012232\H,0,-1.279963,1.0
 89579,0.028754\H,0,-0.229939,-1.704961,0.175092\H,0,0.670784,-0.099445
 ,-0.066496\\Version=ES64L-G09RevD.01\State=1-A\HF=-155.6960168\MP2=-15
 5.9213741\RMSD=5.684e-09\PG=C01 [X(C4H6)]\\@

 Normal termination of Gaussian 09 at Wed Aug 26 09:56:02 2020.
