 Gaussian 09, Revision D.01,
 Gaussian 09:  ES64L-G09RevD.01 24-Apr-2013

 --------------------
 #p B2PLYPD3/Def2QZVP
 --------------------

 ---------
 butadiene
 ---------
 Symbolic Z-matrix:
 Charge =  0 Multiplicity = 1

                         Standard orientation:
 ---------------------------------------------------------------------
 Center     Atomic      Atomic             Coordinates (Angstroms)
 Number     Number       Type             X           Y           Z
 ---------------------------------------------------------------------
      1          6           0        1.827109   -0.117545   -0.023910
      2          6           0        0.606052    0.413267    0.022958
      3          6           0       -0.597016   -0.391955    0.012325
      4          6           0       -1.828426    0.108194   -0.009642
      5          1           0        2.721348    0.484650   -0.002163
      6          1           0        1.944228   -1.199378   -0.064480
      7          1           0        0.506681    1.497244    0.074035
      8          1           0       -0.470986   -1.440634    0.098298
      9          1           0       -2.058965    1.145188   -0.087403
     10          1           0       -2.688617   -0.558836   -0.028669
 ---------------------------------------------------------------------

 SCF Done:  E(RB2PLYPD3) =  -155.700616717     A.U. after   11 cycles
 E2(B2PLYPD3) =    -0.2253169908D+00 E(B2PLYPD3) =    -0.15592593370821D+03

 The electronic state is 1-A.
 Alpha  occ. eigenvalues --  -10.62387 -10.62107 -10.61425 -10.61211  -0.93221
 Alpha  occ. eigenvalues --   -0.85022  -0.70131  -0.64405  -0.54745  -0.54097
 Alpha  occ. eigenvalues --   -0.46783  -0.45469  -0.41311  -0.38190  -0.27707
 Alpha virt. eigenvalues --    0.01878   0.07036   0.07488   0.08046   0.09604
 Alpha virt. eigenvalues --    0.11703   0.12470   0.14803   0.15796   0.16236
 Alpha virt. eigenvalues --    0.18747   0.20356   0.21787   0.22740   0.23951

 Mulliken charges:
               1
     1  C   -0.174299
     2  C   -0.031975
     3  C   -0.032110
     4  C   -0.175478
     5  H    0.086409
     6  H    0.061981
     7  H    0.056121
     8  H    0.061921
     9  H    0.069543
    10  H    0.077888
 Sum of Mulliken charges =   0.00000

 Dipole moment (field-independent basis, Debye):
    X=              0.0089    Y=              0.0161    Z=              0.0096  Tot=              0.0207
 Quadrupole moment (field-independent basis, Debye-Ang):
   XX=            -23.5261   YY=            -23.0550   ZZ=            -29.1744
   XY=             -0.1437   XZ=              0.1307   YZ=             -0.0453

 1\1\GINC-NODE34\SP\RB2PLYPD3-FC\def2QZVP\C4H6\BOITTIER\26-Aug-2020\0\\
 #p B2PLYPD3/Def2QZVP\\butadiene\\0,1\C,0,-3.827195,0.229865,-0.003104\
 C,0,-2.72143,-0.510647,0.059062\C,0,-1.393134,0.064214,0.026954\C,0,-0
 .271969,-0.649883,0.019472\H,0,-4.815117,-0.200666,0.034702\H,0,-3.747
 854,1.313596,-0.073511\H,0,-2.818569,-1.593006,0.140021\H,0,-1.32797,1
 .12039,0.083949\H,0,-0.232193,-1.713162,-0.029576\H,0,0.694143,-0.1493
 96,-0.017419\\Version=ES64L-G09RevD.01\State=1-A\HF=-155.7006167\MP2=-
 155.9259337\RMSD=2.463e-09\PG=C01 [X(C4H6)]\\@

 Normal termination of Gaussian 09 at Wed Aug 26 21:52:07 2020.
