 Gaussian 09, Revision D.01,
 Gaussian 09:  ES64L-G09RevD.01 24-Apr-2013

 --------------------
 #p B2PLYPD3/Def2QZVP
 --------------------

 ---------
 butadiene
 ---------
 Symbolic Z-matrix:
 Charge =  0 Multiplicity = 1

                         Standard orientation:
 ---------------------------------------------------------------------
 Center     Atomic      Atomic             Coordinates (Angstroms)
 Number     Number       Type             X           Y           Z
 ---------------------------------------------------------------------
      1          6           0       -1.824065   -0.122067   -0.025642
      2          6           0       -0.598643    0.443841    0.000076
      3          6           0        0.595354   -0.400108    0.008386
      4          6           0        1.828000    0.100113   -0.006687
      5          1           0       -2.809358    0.406260    0.098049
      6          1           0       -1.953100   -1.163834   -0.009280
      7          1           0       -0.423733    1.520557    0.050695
      8          1           0        0.475635   -1.464103    0.005244
      9          1           0        2.034070    1.137264   -0.067912
     10          1           0        2.672613   -0.566818    0.066407
 ---------------------------------------------------------------------

 SCF Done:  E(RB2PLYPD3) =  -155.695683276     A.U. after   11 cycles
 E2(B2PLYPD3) =    -0.2259522807D+00 E(B2PLYPD3) =    -0.15592163555715D+03

 The electronic state is 1-A.
 Alpha  occ. eigenvalues --  -10.63129 -10.62272 -10.61869 -10.60975  -0.92955
 Alpha  occ. eigenvalues --   -0.84678  -0.70032  -0.64709  -0.54658  -0.53743
 Alpha  occ. eigenvalues --   -0.46791  -0.45554  -0.41217  -0.37958  -0.27539
 Alpha virt. eigenvalues --    0.01749   0.07007   0.07432   0.08087   0.09204
 Alpha virt. eigenvalues --    0.11672   0.12645   0.14655   0.15899   0.16204
 Alpha virt. eigenvalues --    0.18789   0.20414   0.21989   0.22725   0.24038

 Mulliken charges:
               1
     1  C   -0.164723
     2  C   -0.040246
     3  C   -0.025380
     4  C   -0.180584
     5  H    0.073402
     6  H    0.065309
     7  H    0.062965
     8  H    0.060641
     9  H    0.067660
    10  H    0.080956
 Sum of Mulliken charges =   0.00000

 Dipole moment (field-independent basis, Debye):
    X=              0.0064    Y=             -0.0438    Z=              0.1330  Tot=              0.1401
 Quadrupole moment (field-independent basis, Debye-Ang):
   XX=            -23.5521   YY=            -23.0499   ZZ=            -29.2703
   XY=              0.4612   XZ=             -0.2680   YZ=             -0.0096

 1\1\GINC-NODE11\SP\RB2PLYPD3-FC\def2QZVP\C4H6\BOITTIER\26-Aug-2020\0\\
 #p B2PLYPD3/Def2QZVP\\butadiene\\0,1\C,0,-3.822706,0.241058,0.036145\C
 ,0,-2.721464,-0.539853,0.031985\C,0,-1.393282,0.070971,0.004151\C,0,-0
 .272877,-0.645513,0.038887\H,0,-4.888146,-0.101627,-0.07626\H,0,-3.759
 082,1.287922,-0.011003\H,0,-2.746459,-1.631413,0.013387\H,0,-1.316411,
 1.138548,-0.024108\H,0,-0.259866,-1.70061,0.131066\H,0,0.679364,-0.146
 67,-0.05002\\Version=ES64L-G09RevD.01\State=1-A\HF=-155.6956833\MP2=-1
 55.9216356\RMSD=5.626e-09\PG=C01 [X(C4H6)]\\@

 Normal termination of Gaussian 09 at Wed Aug 26 10:38:31 2020.
