 Gaussian 09, Revision D.01,
 Gaussian 09:  ES64L-G09RevD.01 24-Apr-2013

 --------------------
 #p B2PLYPD3/Def2QZVP
 --------------------

 ---------
 butadiene
 ---------
 Symbolic Z-matrix:
 Charge =  0 Multiplicity = 1

                         Standard orientation:
 ---------------------------------------------------------------------
 Center     Atomic      Atomic             Coordinates (Angstroms)
 Number     Number       Type             X           Y           Z
 ---------------------------------------------------------------------
      1          6           0        1.824269   -0.124082    0.010551
      2          6           0        0.598827    0.450724   -0.006172
      3          6           0       -0.598080   -0.391819   -0.015932
      4          6           0       -1.837873    0.093254    0.002582
      5          1           0        2.768770    0.402373   -0.007865
      6          1           0        1.931660   -1.219976   -0.076396
      7          1           0        0.499365    1.492158    0.094803
      8          1           0       -0.465251   -1.458153    0.079624
      9          1           0       -1.978108    1.181057   -0.086042
     10          1           0       -2.679287   -0.565915    0.049701
 ---------------------------------------------------------------------

 SCF Done:  E(RB2PLYPD3) =  -155.696922322     A.U. after   11 cycles
 E2(B2PLYPD3) =    -0.2261104188D+00 E(B2PLYPD3) =    -0.15592303274045D+03

 The electronic state is 1-A.
 Alpha  occ. eigenvalues --  -10.62702 -10.62340 -10.62008 -10.61314  -0.92889
 Alpha  occ. eigenvalues --   -0.84647  -0.69770  -0.64555  -0.54677  -0.53821
 Alpha  occ. eigenvalues --   -0.46634  -0.45028  -0.41681  -0.37887  -0.27539
 Alpha virt. eigenvalues --    0.01764   0.07085   0.07416   0.08093   0.09130
 Alpha virt. eigenvalues --    0.11685   0.12557   0.14475   0.15768   0.16274
 Alpha virt. eigenvalues --    0.18696   0.20108   0.21586   0.23177   0.24077

 Mulliken charges:
               1
     1  C   -0.167189
     2  C   -0.046662
     3  C   -0.023580
     4  C   -0.182403
     5  H    0.081323
     6  H    0.058621
     7  H    0.068298
     8  H    0.058762
     9  H    0.064454
    10  H    0.088376
 Sum of Mulliken charges =   0.00000

 Dipole moment (field-independent basis, Debye):
    X=              0.0608    Y=             -0.0037    Z=              0.0352  Tot=              0.0704
 Quadrupole moment (field-independent basis, Debye-Ang):
   XX=            -23.6000   YY=            -23.0395   ZZ=            -29.3016
   XY=             -0.0103   XZ=             -0.1465   YZ=             -0.0295

 1\1\GINC-NODE14\SP\RB2PLYPD3-FC\def2QZVP\C4H6\BOITTIER\26-Aug-2020\0\\
 #p B2PLYPD3/Def2QZVP\\butadiene\\0,1\C,0,-3.824872,0.239094,0.028128\C
 ,0,-2.723234,-0.54753,0.030745\C,0,-1.39402,0.064746,0.001287\C,0,-0.2
 62008,-0.635269,0.036704\H,0,-4.848871,-0.108696,0.021462\H,0,-3.73303
 4,1.333567,-0.089215\H,0,-2.81302,-1.586642,0.160591\H,0,-1.332147,1.1
 39772,0.067117\H,0,-0.320454,-1.732548,-0.021585\H,0,0.684591,-0.13761
 ,0.068117\\Version=ES64L-G09RevD.01\State=1-A\HF=-155.6969223\MP2=-155
 .9230327\RMSD=5.911e-09\PG=C01 [X(C4H6)]\\@

 Normal termination of Gaussian 09 at Wed Aug 26 10:33:27 2020.
