 Gaussian 09, Revision D.01,
 Gaussian 09:  ES64L-G09RevD.01 24-Apr-2013

 --------------------
 #p B2PLYPD3/Def2QZVP
 --------------------

 ---------
 butadiene
 ---------
 Symbolic Z-matrix:
 Charge =  0 Multiplicity = 1

                         Standard orientation:
 ---------------------------------------------------------------------
 Center     Atomic      Atomic             Coordinates (Angstroms)
 Number     Number       Type             X           Y           Z
 ---------------------------------------------------------------------
      1          6           0       -1.870202    0.098314    0.017757
      2          6           0       -0.634903   -0.353572   -0.054943
      3          6           0        0.637271    0.439020   -0.087758
      4          6           0        1.857382   -0.163110    0.050331
      5          1           0       -2.708428   -0.652457    0.204181
      6          1           0       -2.004403    1.177972    0.165369
      7          1           0       -0.555298   -1.448630   -0.043207
      8          1           0        0.590877    1.602340   -0.112157
      9          1           0        1.987556   -1.240417   -0.063678
     10          1           0        2.752413    0.437282    0.297167
 ---------------------------------------------------------------------

 SCF Done:  E(RB2PLYPD3) =  -155.682730826     A.U. after   11 cycles
 E2(B2PLYPD3) =    -0.2276365048D+00 E(B2PLYPD3) =    -0.15591036733083D+03

 The electronic state is 1-A.
 Alpha  occ. eigenvalues --  -10.64597 -10.62854 -10.62714 -10.61847  -0.92064
 Alpha  occ. eigenvalues --   -0.84792  -0.68946  -0.62885  -0.53919  -0.53065
 Alpha  occ. eigenvalues --   -0.46021  -0.45206  -0.40670  -0.37379  -0.27840
 Alpha virt. eigenvalues --    0.01511   0.06833   0.07171   0.07667   0.09133
 Alpha virt. eigenvalues --    0.11547   0.12207   0.14156   0.15767   0.16020
 Alpha virt. eigenvalues --    0.18976   0.20296   0.20668   0.22168   0.24138

 Mulliken charges:
               1
     1  C   -0.167076
     2  C   -0.015905
     3  C   -0.052887
     4  C   -0.173905
     5  H    0.079742
     6  H    0.063927
     7  H    0.049175
     8  H    0.054208
     9  H    0.077087
    10  H    0.085635
 Sum of Mulliken charges =   0.00000

 Dipole moment (field-independent basis, Debye):
    X=              0.1730    Y=             -0.0650    Z=              0.3091  Tot=              0.3601
 Quadrupole moment (field-independent basis, Debye-Ang):
   XX=            -24.0270   YY=            -23.0493   ZZ=            -29.4502
   XY=              0.1973   XZ=             -0.1798   YZ=              0.2037

 1\1\GINC-NODE23\SP\RB2PLYPD3-FC\def2QZVP\C4H6\BOITTIER\26-Aug-2020\0\\
 #p B2PLYPD3/Def2QZVP\\butadiene\\0,1\C,0,-3.879417,0.190816,0.049211\C
 ,0,-2.736415,-0.461413,-0.010745\C,0,-1.350773,0.108157,-0.06811\C,0,-
 0.246444,-0.683458,0.087136\H,0,-4.829321,-0.404903,0.258577\H,0,-3.83
 2173,1.281656,0.164528\H,0,-2.839156,-1.553702,0.033711\H,0,-1.204049,
 1.261861,-0.127288\H,0,-0.297081,-1.770325,0.005339\H,0,0.737013,-0.23
 2643,0.315299\\Version=ES64L-G09RevD.01\State=1-A\HF=-155.6827308\MP2=
 -155.9103673\RMSD=8.025e-09\PG=C01 [X(C4H6)]\\@

 Normal termination of Gaussian 09 at Wed Aug 26 14:38:54 2020.
