 Gaussian 09, Revision D.01,
 Gaussian 09:  ES64L-G09RevD.01 24-Apr-2013

 --------------------
 #p B2PLYPD3/Def2QZVP
 --------------------

 ---------
 butadiene
 ---------
 Symbolic Z-matrix:
 Charge =  0 Multiplicity = 1

                         Standard orientation:
 ---------------------------------------------------------------------
 Center     Atomic      Atomic             Coordinates (Angstroms)
 Number     Number       Type             X           Y           Z
 ---------------------------------------------------------------------
      1          6           0       -1.830856    0.063154   -0.086637
      2          6           0       -0.559729   -0.372515    0.015880
      3          6           0        0.575918    0.413514    0.042561
      4          6           0        1.827957   -0.115881   -0.037560
      5          1           0       -2.682365   -0.548222    0.172866
      6          1           0       -2.172775    1.109904   -0.096111
      7          1           0       -0.297587   -1.399169    0.254732
      8          1           0        0.446696    1.554335    0.250656
      9          1           0        1.949605   -1.162925   -0.120134
     10          1           0        2.676687    0.516442   -0.067473
 ---------------------------------------------------------------------

 SCF Done:  E(RB2PLYPD3) =  -155.680520221     A.U. after   12 cycles
 E2(B2PLYPD3) =    -0.2277106011D+00 E(B2PLYPD3) =    -0.15590823082202D+03

 The electronic state is 1-A.
 Alpha  occ. eigenvalues --  -10.63068 -10.62405 -10.61873 -10.61640  -0.93930
 Alpha  occ. eigenvalues --   -0.84317  -0.71634  -0.63361  -0.55458  -0.53346
 Alpha  occ. eigenvalues --   -0.47249  -0.45140  -0.41417  -0.37616  -0.27079
 Alpha virt. eigenvalues --    0.00488   0.07032   0.07212   0.07866   0.09655
 Alpha virt. eigenvalues --    0.11494   0.12593   0.15132   0.15475   0.16184
 Alpha virt. eigenvalues --    0.18831   0.19533   0.22013   0.22522   0.23261

 Mulliken charges:
               1
     1  C   -0.169293
     2  C   -0.025450
     3  C   -0.020511
     4  C   -0.186818
     5  H    0.073455
     6  H    0.058044
     7  H    0.058465
     8  H    0.050328
     9  H    0.069092
    10  H    0.092689
 Sum of Mulliken charges =   0.00000

 Dipole moment (field-independent basis, Debye):
    X=              0.1215    Y=              0.0216    Z=              0.3761  Tot=              0.3958
 Quadrupole moment (field-independent basis, Debye-Ang):
   XX=            -23.4107   YY=            -23.5691   ZZ=            -29.1398
   XY=             -0.6429   XZ=             -0.7697   YZ=             -0.1163

 1\1\GINC-NODE31\SP\RB2PLYPD3-FC\def2QZVP\C4H6\BOITTIER\26-Aug-2020\0\\
 #p B2PLYPD3/Def2QZVP\\butadiene\\0,1\C,0,-3.836914,0.206436,-0.048519\
 C,0,-2.675222,-0.467732,0.06126\C,0,-1.407195,0.080308,0.063572\C,0,-0
 .284145,-0.686568,-0.006698\H,0,-4.789665,-0.219038,0.229737\H,0,-3.96
 6779,1.299383,-0.084377\H,0,-2.617717,-1.519547,0.326149\H,0,-1.308224
 ,1.229146,0.242039\H,0,-0.371085,-1.738845,-0.062128\H,0,0.671913,-0.2
 34248,-0.055986\\Version=ES64L-G09RevD.01\State=1-A\HF=-155.6805202\MP
 2=-155.9082308\RMSD=4.866e-09\PG=C01 [X(C4H6)]\\@

 Normal termination of Gaussian 09 at Wed Aug 26 16:07:57 2020.
