 Gaussian 09, Revision D.01,
 Gaussian 09:  ES64L-G09RevD.01 24-Apr-2013

 --------------------
 #p B2PLYPD3/Def2QZVP
 --------------------

 ---------
 butadiene
 ---------
 Symbolic Z-matrix:
 Charge =  0 Multiplicity = 1

                         Standard orientation:
 ---------------------------------------------------------------------
 Center     Atomic      Atomic             Coordinates (Angstroms)
 Number     Number       Type             X           Y           Z
 ---------------------------------------------------------------------
      1          6           0        1.850964    0.096363   -0.002562
      2          6           0        0.604694   -0.385854    0.004573
      3          6           0       -0.611406    0.415329   -0.004790
      4          6           0       -1.839155   -0.120413   -0.000502
      5          1           0        2.740087   -0.527953   -0.025513
      6          1           0        2.012249    1.138556   -0.032681
      7          1           0        0.439293   -1.444680    0.098014
      8          1           0       -0.480457    1.494660    0.041593
      9          1           0       -2.009970   -1.192188   -0.093197
     10          1           0       -2.731783    0.499052    0.031472
 ---------------------------------------------------------------------

 SCF Done:  E(RB2PLYPD3) =  -155.699973242     A.U. after   11 cycles
 E2(B2PLYPD3) =    -0.2257353411D+00 E(B2PLYPD3) =    -0.15592570858297D+03

 The electronic state is 1-A.
 Alpha  occ. eigenvalues --  -10.62746 -10.62425 -10.61821 -10.61288  -0.92915
 Alpha  occ. eigenvalues --   -0.84853  -0.70324  -0.64268  -0.54650  -0.53869
 Alpha  occ. eigenvalues --   -0.46967  -0.45665  -0.41081  -0.37984  -0.27677
 Alpha virt. eigenvalues --    0.01617   0.07010   0.07472   0.08084   0.09516
 Alpha virt. eigenvalues --    0.11667   0.12519   0.14697   0.15769   0.16181
 Alpha virt. eigenvalues --    0.18846   0.20337   0.21805   0.23011   0.23552

 Mulliken charges:
               1
     1  C   -0.177934
     2  C   -0.026845
     3  C   -0.036143
     4  C   -0.174024
     5  H    0.086439
     6  H    0.064530
     7  H    0.056782
     8  H    0.055961
     9  H    0.067292
    10  H    0.083941
 Sum of Mulliken charges =   0.00000

 Dipole moment (field-independent basis, Debye):
    X=             -0.0299    Y=              0.0126    Z=              0.0090  Tot=              0.0336
 Quadrupole moment (field-independent basis, Debye-Ang):
   XX=            -23.2835   YY=            -23.2170   ZZ=            -29.2563
   XY=              0.2327   XZ=             -0.0319   YZ=              0.0534

 1\1\GINC-NODE39\SP\RB2PLYPD3-FC\def2QZVP\C4H6\BOITTIER\26-Aug-2020\0\\
 #p B2PLYPD3/Def2QZVP\\butadiene\\0,1\C,0,-3.855108,0.212935,0.020351\C
 ,0,-2.716183,-0.486004,0.030747\C,0,-1.375583,0.08274,0.016516\C,0,-0.
 26451,-0.665391,0.03144\H,0,-4.842081,-0.23984,0.06177\H,0,-3.825811,1
 .267552,0.016834\H,0,-2.744689,-1.559726,-0.028487\H,0,-1.310069,1.165
 967,-0.0646\H,0,-0.289258,-1.746905,0.15867\H,0,0.725,-0.218304,-0.018
 837\\Version=ES64L-G09RevD.01\State=1-A\HF=-155.6999732\MP2=-155.92570
 86\RMSD=3.671e-09\PG=C01 [X(C4H6)]\\@

 Normal termination of Gaussian 09 at Wed Aug 26 22:01:08 2020.
