 Gaussian 09, Revision D.01,
 Gaussian 09:  ES64L-G09RevD.01 24-Apr-2013

 --------------------
 #p B2PLYPD3/Def2QZVP
 --------------------

 ---------
 butadiene
 ---------
 Symbolic Z-matrix:
 Charge =  0 Multiplicity = 1

                         Standard orientation:
 ---------------------------------------------------------------------
 Center     Atomic      Atomic             Coordinates (Angstroms)
 Number     Number       Type             X           Y           Z
 ---------------------------------------------------------------------
      1          6           0        1.859987    0.127231    0.043814
      2          6           0        0.622602   -0.438197   -0.077719
      3          6           0       -0.624908    0.362292   -0.049475
      4          6           0       -1.831717   -0.096068    0.088683
      5          1           0        2.851363   -0.372374    0.282284
      6          1           0        1.954120    1.229289   -0.072410
      7          1           0        0.526637   -1.499110   -0.152821
      8          1           0       -0.608660    1.485439   -0.105600
      9          1           0       -2.142626   -1.178730   -0.018328
     10          1           0       -2.736622    0.603935    0.035057
 ---------------------------------------------------------------------

 SCF Done:  E(RB2PLYPD3) =  -155.679832024     A.U. after   12 cycles
 E2(B2PLYPD3) =    -0.2272499270D+00 E(B2PLYPD3) =    -0.15590708195135D+03

 The electronic state is 1-A.
 Alpha  occ. eigenvalues --  -10.63647 -10.63181 -10.62905 -10.61981  -0.92603
 Alpha  occ. eigenvalues --   -0.84786  -0.69119  -0.63359  -0.53935  -0.53342
 Alpha  occ. eigenvalues --   -0.46882  -0.44188  -0.40413  -0.37457  -0.27952
 Alpha virt. eigenvalues --    0.01566   0.06780   0.07311   0.07657   0.09283
 Alpha virt. eigenvalues --    0.11276   0.12402   0.14164   0.15840   0.16566
 Alpha virt. eigenvalues --    0.19065   0.19505   0.21646   0.22318   0.23758

 Mulliken charges:
               1
     1  C   -0.163478
     2  C   -0.055044
     3  C   -0.022211
     4  C   -0.152225
     5  H    0.085365
     6  H    0.063283
     7  H    0.072174
     8  H    0.051663
     9  H    0.054793
    10  H    0.065680
 Sum of Mulliken charges =   0.00000

 Dipole moment (field-independent basis, Debye):
    X=              0.0791    Y=              0.0009    Z=             -0.1283  Tot=              0.1507
 Quadrupole moment (field-independent basis, Debye-Ang):
   XX=            -23.2876   YY=            -23.4446   ZZ=            -29.3860
   XY=              0.0611   XZ=              0.7634   YZ=             -0.1141

 1\1\GINC-NODE33\SP\RB2PLYPD3-FC\def2QZVP\C4H6\BOITTIER\26-Aug-2020\0\\
 #p B2PLYPD3/Def2QZVP\\butadiene\\0,1\C,0,-3.858705,0.231984,-0.036458\
 C,0,-2.737118,-0.532988,0.113406\C,0,-1.370545,0.039939,0.067637\C,0,-
 0.260246,-0.623328,-0.045874\H,0,-4.920801,-0.097891,-0.265446\H,0,-3.
 762217,1.33718,0.041852\H,0,-2.825047,-1.591391,0.224935\H,0,-1.193606
 ,1.150451,0.085762\H,0,-0.140221,-1.738951,0.099902\H,0,0.751414,-0.08
 768,-0.009026\\Version=ES64L-G09RevD.01\State=1-A\HF=-155.679832\MP2=-
 155.907082\RMSD=2.563e-09\PG=C01 [X(C4H6)]\\@

 Normal termination of Gaussian 09 at Wed Aug 26 15:20:56 2020.
