 Gaussian 09, Revision D.01,
 Gaussian 09:  ES64L-G09RevD.01 24-Apr-2013

 --------------------
 #p B2PLYPD3/Def2QZVP
 --------------------

 ---------
 butadiene
 ---------
 Symbolic Z-matrix:
 Charge =  0 Multiplicity = 1

                         Standard orientation:
 ---------------------------------------------------------------------
 Center     Atomic      Atomic             Coordinates (Angstroms)
 Number     Number       Type             X           Y           Z
 ---------------------------------------------------------------------
      1          6           0       -1.837202   -0.110565   -0.012698
      2          6           0       -0.595485    0.416408   -0.003767
      3          6           0        0.599692   -0.407064    0.024038
      4          6           0        1.837255    0.103989   -0.026304
      5          1           0       -2.719202    0.505288    0.015909
      6          1           0       -2.006606   -1.192828   -0.061048
      7          1           0       -0.478302    1.486381    0.100703
      8          1           0        0.447991   -1.458079    0.070493
      9          1           0        2.015060    1.160855   -0.034978
     10          1           0        2.715499   -0.518228    0.021310
 ---------------------------------------------------------------------

 SCF Done:  E(RB2PLYPD3) =  -155.700000496     A.U. after   11 cycles
 E2(B2PLYPD3) =    -0.2259412629D+00 E(B2PLYPD3) =    -0.15592594175850D+03

 The electronic state is 1-A.
 Alpha  occ. eigenvalues --  -10.62662 -10.62376 -10.61771 -10.61375  -0.92933
 Alpha  occ. eigenvalues --   -0.84616  -0.70259  -0.64495  -0.54633  -0.53895
 Alpha  occ. eigenvalues --   -0.46663  -0.45648  -0.41528  -0.37928  -0.27461
 Alpha virt. eigenvalues --    0.01588   0.07054   0.07440   0.08104   0.09380
 Alpha virt. eigenvalues --    0.11667   0.12498   0.14721   0.15778   0.16294
 Alpha virt. eigenvalues --    0.18807   0.20297   0.21849   0.22964   0.23698

 Mulliken charges:
               1
     1  C   -0.178847
     2  C   -0.032054
     3  C   -0.035118
     4  C   -0.173044
     5  H    0.084668
     6  H    0.063846
     7  H    0.060561
     8  H    0.061520
     9  H    0.065974
    10  H    0.082494
 Sum of Mulliken charges =   0.00000

 Dipole moment (field-independent basis, Debye):
    X=             -0.0047    Y=              0.0031    Z=              0.1173  Tot=              0.1175
 Quadrupole moment (field-independent basis, Debye-Ang):
   XX=            -23.4607   YY=            -23.0654   ZZ=            -29.2908
   XY=              0.2348   XZ=              0.0329   YZ=              0.0822

 1\1\GINC-NODE16\SP\RB2PLYPD3-FC\def2QZVP\C4H6\BOITTIER\26-Aug-2020\0\\
 #p B2PLYPD3/Def2QZVP\\butadiene\\0,1\C,0,-3.838468,0.230195,0.029783\C
 ,0,-2.714115,-0.51509,0.034436\C,0,-1.388563,0.075031,-0.010251\C,0,-0
 .265218,-0.652519,0.053295\H,0,-4.818308,-0.214414,0.013831\H,0,-3.806
 928,1.325991,0.053519\H,0,-2.794902,-1.590511,-0.045755\H,0,-1.345595,
 1.134755,-0.080568\H,0,-0.283697,-1.723613,0.086008\H,0,0.711883,-0.20
 2675,-0.007103\\Version=ES64L-G09RevD.01\State=1-A\HF=-155.7000005\MP2
 =-155.9259418\RMSD=2.997e-09\PG=C01 [X(C4H6)]\\@

 Normal termination of Gaussian 09 at Wed Aug 26 12:35:43 2020.
