 Gaussian 09, Revision D.01,
 Gaussian 09:  ES64L-G09RevD.01 24-Apr-2013

 --------------------
 #p B2PLYPD3/Def2QZVP
 --------------------

 ---------
 butadiene
 ---------
 Symbolic Z-matrix:
 Charge =  0 Multiplicity = 1

                         Standard orientation:
 ---------------------------------------------------------------------
 Center     Atomic      Atomic             Coordinates (Angstroms)
 Number     Number       Type             X           Y           Z
 ---------------------------------------------------------------------
      1          6           0       -1.849492   -0.116188    0.012174
      2          6           0       -0.608672    0.409898   -0.028578
      3          6           0        0.610471   -0.394735   -0.021877
      4          6           0        1.855503    0.098715    0.018201
      5          1           0       -2.709894    0.509635    0.039890
      6          1           0       -2.025996   -1.174727    0.076113
      7          1           0       -0.469412    1.469043   -0.063090
      8          1           0        0.456156   -1.448273   -0.018532
      9          1           0        1.978802    1.190807    0.114283
     10          1           0        2.723485   -0.532627   -0.028189
 ---------------------------------------------------------------------

 SCF Done:  E(RB2PLYPD3) =  -155.699615193     A.U. after   11 cycles
 E2(B2PLYPD3) =    -0.2258397232D+00 E(B2PLYPD3) =    -0.15592545491637D+03

 The electronic state is 1-A.
 Alpha  occ. eigenvalues --  -10.62660 -10.62350 -10.61734 -10.61535  -0.92782
 Alpha  occ. eigenvalues --   -0.84771  -0.70378  -0.64416  -0.54761  -0.53783
 Alpha  occ. eigenvalues --   -0.46978  -0.45787  -0.41339  -0.37837  -0.27563
 Alpha virt. eigenvalues --    0.01514   0.07004   0.07481   0.08171   0.09506
 Alpha virt. eigenvalues --    0.11682   0.12449   0.14691   0.15837   0.16175
 Alpha virt. eigenvalues --    0.18839   0.20462   0.21562   0.22938   0.23760

 Mulliken charges:
               1
     1  C   -0.176746
     2  C   -0.036065
     3  C   -0.029631
     4  C   -0.178986
     5  H    0.085811
     6  H    0.067663
     7  H    0.057675
     8  H    0.056269
     9  H    0.062369
    10  H    0.091641
 Sum of Mulliken charges =   0.00000

 Dipole moment (field-independent basis, Debye):
    X=             -0.0386    Y=             -0.0253    Z=              0.0788  Tot=              0.0913
 Quadrupole moment (field-independent basis, Debye-Ang):
   XX=            -23.4211   YY=            -23.1245   ZZ=            -29.2892
   XY=              0.0934   XZ=             -0.1312   YZ=              0.0390

 1\1\GINC-NODE21\SP\RB2PLYPD3-FC\def2QZVP\C4H6\BOITTIER\26-Aug-2020\0\\
 #p B2PLYPD3/Def2QZVP\\butadiene\\0,1\C,0,-3.851382,0.231653,0.002426\C
 ,0,-2.725499,-0.507913,0.061531\C,0,-1.381398,0.06347,0.035027\C,0,-0.
 245701,-0.647081,0.012412\H,0,-4.810493,-0.229513,-0.00964\H,0,-3.8345
 19,1.302397,-0.092278\H,0,-2.779181,-1.573389,0.126739\H,0,-1.343456,1
 .127038,0.001094\H,0,-0.321348,-1.745819,-0.052019\H,0,0.721908,-0.181
 318,0.043007\\Version=ES64L-G09RevD.01\State=1-A\HF=-155.6996152\MP2=-
 155.9254549\RMSD=5.689e-09\PG=C01 [X(C4H6)]\\@

 Normal termination of Gaussian 09 at Wed Aug 26 15:22:08 2020.
