 Gaussian 09, Revision D.01,
 Gaussian 09:  ES64L-G09RevD.01 24-Apr-2013

 --------------------
 #p B2PLYPD3/Def2QZVP
 --------------------

 ---------
 butadiene
 ---------
 Symbolic Z-matrix:
 Charge =  0 Multiplicity = 1

                         Standard orientation:
 ---------------------------------------------------------------------
 Center     Atomic      Atomic             Coordinates (Angstroms)
 Number     Number       Type             X           Y           Z
 ---------------------------------------------------------------------
      1          6           0       -1.834246    0.086714    0.024148
      2          6           0       -0.599585   -0.376992   -0.044360
      3          6           0        0.598168    0.430589   -0.043348
      4          6           0        1.835185   -0.118334    0.041504
      5          1           0       -2.664150   -0.521190    0.098260
      6          1           0       -2.029437    1.141073    0.105250
      7          1           0       -0.486659   -1.456249   -0.046324
      8          1           0        0.479971    1.518673   -0.129261
      9          1           0        1.887992   -1.226647   -0.027728
     10          1           0        2.815155    0.412477    0.132135
 ---------------------------------------------------------------------

 SCF Done:  E(RB2PLYPD3) =  -155.694425566     A.U. after   11 cycles
 E2(B2PLYPD3) =    -0.2261683939D+00 E(B2PLYPD3) =    -0.15592059395988D+03

 The electronic state is 1-A.
 Alpha  occ. eigenvalues --  -10.63120 -10.62625 -10.62266 -10.60565  -0.93143
 Alpha  occ. eigenvalues --   -0.84822  -0.70196  -0.64048  -0.55030  -0.53712
 Alpha  occ. eigenvalues --   -0.46941  -0.44842  -0.41435  -0.38072  -0.27549
 Alpha virt. eigenvalues --    0.01578   0.07027   0.07403   0.08019   0.09512
 Alpha virt. eigenvalues --    0.11527   0.12725   0.14444   0.15826   0.16437
 Alpha virt. eigenvalues --    0.18757   0.20426   0.21750   0.22397   0.24063

 Mulliken charges:
               1
     1  C   -0.173711
     2  C   -0.018035
     3  C   -0.039538
     4  C   -0.168931
     5  H    0.086625
     6  H    0.058531
     7  H    0.050523
     8  H    0.058921
     9  H    0.058158
    10  H    0.087457
 Sum of Mulliken charges =   0.00000

 Dipole moment (field-independent basis, Debye):
    X=             -0.0029    Y=              0.0012    Z=              0.0660  Tot=              0.0661
 Quadrupole moment (field-independent basis, Debye-Ang):
   XX=            -23.2214   YY=            -23.3224   ZZ=            -29.2447
   XY=              0.0205   XZ=             -0.1897   YZ=              0.0547

 1\1\GINC-NODE03\SP\RB2PLYPD3-FC\def2QZVP\C4H6\BOITTIER\26-Aug-2020\0\\
 #p B2PLYPD3/Def2QZVP\\butadiene\\0,1\C,0,-3.841077,0.19962,0.047966\C,
 0,-2.710516,-0.480889,-0.005369\C,0,-1.386919,0.097284,-0.03002\C,0,-0
 .268533,-0.662582,0.07266\H,0,-4.766465,-0.246151,0.141372\H,0,-3.8427
 36,1.27392,0.095154\H,0,-2.793818,-1.562344,0.027322\H,0,-1.307702,1.1
 85589,-0.150827\H,0,-0.416578,-1.763896,0.039038\H,0,0.7915,-0.314437,
 0.146418\\Version=ES64L-G09RevD.01\State=1-A\HF=-155.6944256\MP2=-155.
 920594\RMSD=8.856e-09\PG=C01 [X(C4H6)]\\@

 Normal termination of Gaussian 09 at Wed Aug 26 09:33:53 2020.
