 Gaussian 09, Revision D.01,
 Gaussian 09:  ES64L-G09RevD.01 24-Apr-2013

 --------------------
 #p B2PLYPD3/Def2QZVP
 --------------------

 ---------
 butadiene
 ---------
 Symbolic Z-matrix:
 Charge =  0 Multiplicity = 1

                         Standard orientation:
 ---------------------------------------------------------------------
 Center     Atomic      Atomic             Coordinates (Angstroms)
 Number     Number       Type             X           Y           Z
 ---------------------------------------------------------------------
      1          6           0        1.817365   -0.094471    0.076524
      2          6           0        0.584028    0.361132   -0.058319
      3          6           0       -0.602167   -0.471718   -0.086558
      4          6           0       -1.825653    0.143147    0.034211
      5          1           0        2.693184    0.546281    0.136114
      6          1           0        2.034059   -1.109988   -0.061409
      7          1           0        0.595111    1.516349   -0.173673
      8          1           0       -0.526955   -1.508123    0.025846
      9          1           0       -1.785250    1.276393    0.093686
     10          1           0       -2.851582   -0.349448    0.184286
 ---------------------------------------------------------------------

 SCF Done:  E(RB2PLYPD3) =  -155.677680088     A.U. after   12 cycles
 E2(B2PLYPD3) =    -0.2277918752D+00 E(B2PLYPD3) =    -0.15590547196315D+03

 The electronic state is 1-A.
 Alpha  occ. eigenvalues --  -10.63535 -10.63205 -10.63089 -10.60581  -0.93015
 Alpha  occ. eigenvalues --   -0.84491  -0.69300  -0.64085  -0.54525  -0.53644
 Alpha  occ. eigenvalues --   -0.45996  -0.44075  -0.41612  -0.37859  -0.27303
 Alpha virt. eigenvalues --    0.01419   0.06877   0.07406   0.07678   0.08979
 Alpha virt. eigenvalues --    0.11486   0.12700   0.14062   0.15517   0.16766
 Alpha virt. eigenvalues --    0.18707   0.19721   0.21203   0.23059   0.24250

 Mulliken charges:
               1
     1  C   -0.174668
     2  C   -0.011787
     3  C   -0.058924
     4  C   -0.155230
     5  H    0.075035
     6  H    0.060790
     7  H    0.046462
     8  H    0.076737
     9  H    0.057986
    10  H    0.083600
 Sum of Mulliken charges =   0.00000

 Dipole moment (field-independent basis, Debye):
    X=             -0.0308    Y=             -0.0694    Z=              0.0802  Tot=              0.1105
 Quadrupole moment (field-independent basis, Debye-Ang):
   XX=            -23.4922   YY=            -23.2846   ZZ=            -29.3939
   XY=              0.2940   XZ=             -0.6845   YZ=             -0.0592

 1\1\GINC-NODE03\SP\RB2PLYPD3-FC\def2QZVP\C4H6\BOITTIER\26-Aug-2020\0\\
 #p B2PLYPD3/Def2QZVP\\butadiene\\0,1\C,0,-3.83057,0.188596,0.08883\C,0
 ,-2.694251,-0.477343,-0.021541\C,0,-1.382051,0.136911,-0.069694\C,0,-0
 .283228,-0.675194,0.080757\H,0,-4.803927,-0.289004,0.163981\H,0,-3.868
 53,1.220834,-0.085238\H,0,-2.904471,-1.61664,-0.09747\H,0,-1.277339,1.
 174033,0.006724\H,0,-0.518738,-1.781711,0.178591\H,0,0.812163,-0.36202
 4,0.221277\\Version=ES64L-G09RevD.01\State=1-A\HF=-155.6776801\MP2=-15
 5.905472\RMSD=4.895e-09\PG=C01 [X(C4H6)]\\@

 Normal termination of Gaussian 09 at Wed Aug 26 11:46:51 2020.
