 Gaussian 09, Revision D.01,
 Gaussian 09:  ES64L-G09RevD.01 24-Apr-2013

 --------------------
 #p B2PLYPD3/Def2QZVP
 --------------------

 ---------
 butadiene
 ---------
 Symbolic Z-matrix:
 Charge =  0 Multiplicity = 1

                         Standard orientation:
 ---------------------------------------------------------------------
 Center     Atomic      Atomic             Coordinates (Angstroms)
 Number     Number       Type             X           Y           Z
 ---------------------------------------------------------------------
      1          6           0        1.854491    0.071140    0.082307
      2          6           0        0.593354   -0.373155   -0.109997
      3          6           0       -0.616973    0.453034   -0.085359
      4          6           0       -1.824483   -0.148882    0.026589
      5          1           0        2.748534   -0.489722    0.090546
      6          1           0        1.942821    1.156698    0.103129
      7          1           0        0.393701   -1.358043   -0.016192
      8          1           0       -0.612853    1.553595   -0.078276
      9          1           0       -1.800907   -1.322911    0.106603
     10          1           0       -2.709632    0.447557    0.312952
 ---------------------------------------------------------------------

 SCF Done:  E(RB2PLYPD3) =  -155.679306184     A.U. after   11 cycles
 E2(B2PLYPD3) =    -0.2275516716D+00 E(B2PLYPD3) =    -0.15590685785556D+03

 The electronic state is 1-A.
 Alpha  occ. eigenvalues --  -10.63237 -10.62976 -10.62207 -10.61550  -0.92939
 Alpha  occ. eigenvalues --   -0.84493  -0.69819  -0.64387  -0.54698  -0.53533
 Alpha  occ. eigenvalues --   -0.46271  -0.44544  -0.41783  -0.37840  -0.27460
 Alpha virt. eigenvalues --    0.01287   0.06971   0.07327   0.07997   0.08968
 Alpha virt. eigenvalues --    0.11669   0.12716   0.14083   0.15540   0.16616
 Alpha virt. eigenvalues --    0.18392   0.19356   0.21298   0.23432   0.24067

 Mulliken charges:
               1
     1  C   -0.173513
     2  C   -0.034630
     3  C   -0.033867
     4  C   -0.164813
     5  H    0.091611
     6  H    0.055616
     7  H    0.067178
     8  H    0.056956
     9  H    0.050285
    10  H    0.085178
 Sum of Mulliken charges =   0.00000

 Dipole moment (field-independent basis, Debye):
    X=              0.0368    Y=              0.0644    Z=              0.3451  Tot=              0.3530
 Quadrupole moment (field-independent basis, Debye-Ang):
   XX=            -23.8747   YY=            -23.2303   ZZ=            -29.3236
   XY=             -0.4802   XZ=             -0.6244   YZ=              0.0175

 1\1\GINC-NODE03\SP\RB2PLYPD3-FC\def2QZVP\C4H6\BOITTIER\26-Aug-2020\0\\
 #p B2PLYPD3/Def2QZVP\\butadiene\\0,1\C,0,-3.866015,0.177712,-0.063019\
 C,0,-2.700797,-0.47769,0.130784\C,0,-1.365091,0.124488,0.093933\C,0,-0
 .281528,-0.679888,-0.014635\H,0,-4.844175,-0.21871,-0.062775\H,0,-3.76
 3829,1.261768,-0.095448\H,0,-2.676332,-1.483215,0.0472\H,0,-1.177307,1
 .208773,0.074856\H,0,-0.509784,-1.832578,-0.081775\H,0,0.692749,-0.249
 914,-0.309828\\Version=ES64L-G09RevD.01\State=1-A\HF=-155.6793062\MP2=
 -155.9068579\RMSD=6.328e-09\PG=C01 [X(C4H6)]\\@

 Normal termination of Gaussian 09 at Wed Aug 26 11:40:54 2020.
