 Gaussian 09, Revision D.01,
 Gaussian 09:  ES64L-G09RevD.01 24-Apr-2013

 --------------------
 #p B2PLYPD3/Def2QZVP
 --------------------

 ---------
 butadiene
 ---------
 Symbolic Z-matrix:
 Charge =  0 Multiplicity = 1

                         Standard orientation:
 ---------------------------------------------------------------------
 Center     Atomic      Atomic             Coordinates (Angstroms)
 Number     Number       Type             X           Y           Z
 ---------------------------------------------------------------------
      1          6           0       -1.840553   -0.097548   -0.024758
      2          6           0       -0.603621    0.362009    0.020272
      3          6           0        0.612777   -0.407375    0.067911
      4          6           0        1.851508    0.116007   -0.048807
      5          1           0       -2.681502    0.603920   -0.042732
      6          1           0       -2.125837   -1.120418   -0.034997
      7          1           0       -0.465497    1.471271    0.035885
      8          1           0        0.417898   -1.462253   -0.024959
      9          1           0        2.004276    1.170863    0.016890
     10          1           0        2.730002   -0.501942   -0.037794
 ---------------------------------------------------------------------

 SCF Done:  E(RB2PLYPD3) =  -155.696248068     A.U. after   11 cycles
 E2(B2PLYPD3) =    -0.2258857870D+00 E(B2PLYPD3) =    -0.15592213385479D+03

 The electronic state is 1-A.
 Alpha  occ. eigenvalues --  -10.62644 -10.62458 -10.61768 -10.61266  -0.93142
 Alpha  occ. eigenvalues --   -0.85005  -0.70883  -0.63881  -0.54917  -0.53820
 Alpha  occ. eigenvalues --   -0.46966  -0.45869  -0.40443  -0.38302  -0.27742
 Alpha virt. eigenvalues --    0.01368   0.06957   0.07480   0.08053   0.09751
 Alpha virt. eigenvalues --    0.11649   0.12457   0.14980   0.15512   0.16266
 Alpha virt. eigenvalues --    0.18876   0.19886   0.22064   0.22622   0.23935

 Mulliken charges:
               1
     1  C   -0.179549
     2  C   -0.010048
     3  C   -0.042031
     4  C   -0.170317
     5  H    0.080715
     6  H    0.066065
     7  H    0.042104
     8  H    0.058375
     9  H    0.069108
    10  H    0.085579
 Sum of Mulliken charges =   0.00000

 Dipole moment (field-independent basis, Debye):
    X=              0.0099    Y=             -0.0284    Z=             -0.0142  Tot=              0.0333
 Quadrupole moment (field-independent basis, Debye-Ang):
   XX=            -23.2106   YY=            -23.3101   ZZ=            -29.2183
   XY=              0.4041   XZ=              0.0585   YZ=              0.1536

 1\1\GINC-NODE28\SP\RB2PLYPD3-FC\def2QZVP\C4H6\BOITTIER\26-Aug-2020\0\\
 #p B2PLYPD3/Def2QZVP\\butadiene\\0,1\C,0,-3.846599,0.215909,0.047616\C
 ,0,-2.714778,-0.463063,0.013007\C,0,-1.378271,0.069604,-0.049134\C,0,-
 0.255902,-0.669184,0.079267\H,0,-4.801654,-0.319308,0.079055\H,0,-3.93
 9864,1.27371,0.036871\H,0,-2.782011,-1.578955,0.019999\H,0,-1.376567,1
 .143979,0.022167\H,0,-0.298925,-1.735286,0.035096\H,0,0.720801,-0.2227
 89,0.056513\\Version=ES64L-G09RevD.01\State=1-A\HF=-155.6962481\MP2=-1
 55.9221339\RMSD=6.891e-09\PG=C01 [X(C4H6)]\\@

 Normal termination of Gaussian 09 at Wed Aug 26 09:33:47 2020.
