 Gaussian 09, Revision D.01,
 Gaussian 09:  ES64L-G09RevD.01 24-Apr-2013

 --------------------
 #p B2PLYPD3/Def2QZVP
 --------------------

 ---------
 butadiene
 ---------
 Symbolic Z-matrix:
 Charge =  0 Multiplicity = 1

                         Standard orientation:
 ---------------------------------------------------------------------
 Center     Atomic      Atomic             Coordinates (Angstroms)
 Number     Number       Type             X           Y           Z
 ---------------------------------------------------------------------
      1          6           0        1.836357   -0.126449   -0.005883
      2          6           0        0.601233    0.425922   -0.013143
      3          6           0       -0.602507   -0.395999    0.002431
      4          6           0       -1.840802    0.095067    0.007167
      5          1           0        2.742757    0.509030   -0.004575
      6          1           0        2.000230   -1.199099    0.101379
      7          1           0        0.481560    1.523722   -0.005811
      8          1           0       -0.455291   -1.469641   -0.053622
      9          1           0       -2.008006    1.158440    0.056583
     10          1           0       -2.726934   -0.513695   -0.037385
 ---------------------------------------------------------------------

 SCF Done:  E(RB2PLYPD3) =  -155.699031506     A.U. after   11 cycles
 E2(B2PLYPD3) =    -0.2262959197D+00 E(B2PLYPD3) =    -0.15592532742582D+03

 The electronic state is 1-A.
 Alpha  occ. eigenvalues --  -10.63162 -10.62530 -10.62169 -10.61300  -0.92786
 Alpha  occ. eigenvalues --   -0.84591  -0.69938  -0.64019  -0.54447  -0.53708
 Alpha  occ. eigenvalues --   -0.46549  -0.45354  -0.41222  -0.37995  -0.27536
 Alpha virt. eigenvalues --    0.01618   0.07007   0.07336   0.08011   0.09349
 Alpha virt. eigenvalues --    0.11646   0.12456   0.14633   0.15846   0.16194
 Alpha virt. eigenvalues --    0.18770   0.20461   0.21627   0.22966   0.23567

 Mulliken charges:
               1
     1  C   -0.173729
     2  C   -0.037873
     3  C   -0.025823
     4  C   -0.175050
     5  H    0.081091
     6  H    0.069126
     7  H    0.057708
     8  H    0.056738
     9  H    0.062003
    10  H    0.085810
 Sum of Mulliken charges =   0.00000

 Dipole moment (field-independent basis, Debye):
    X=             -0.0063    Y=              0.0003    Z=              0.0510  Tot=              0.0514
 Quadrupole moment (field-independent basis, Debye-Ang):
   XX=            -23.4887   YY=            -23.0873   ZZ=            -29.3689
   XY=             -0.2033   XZ=              0.2405   YZ=              0.0256

 1\1\GINC-NODE19\SP\RB2PLYPD3-FC\def2QZVP\C4H6\BOITTIER\26-Aug-2020\0\\
 #p B2PLYPD3/Def2QZVP\\butadiene\\0,1\C,0,-3.835975,0.240567,0.015812\C
 ,0,-2.720957,-0.525814,0.025525\C,0,-1.38852,0.065206,0.015871\C,0,-0.
 259248,-0.641117,0.035693\H,0,-4.842204,-0.220373,0.036619\H,0,-3.8028
 65,1.327914,0.090092\H,0,-2.801447,-1.62644,0.066557\H,0,-1.339753,1.1
 45588,-0.073117\H,0,-0.286538,-1.715215,0.117732\H,0,0.721983,-0.20408
 7,-0.027518\\Version=ES64L-G09RevD.01\State=1-A\HF=-155.6990315\MP2=-1
 55.9253274\RMSD=5.782e-09\PG=C01 [X(C4H6)]\\@

 Normal termination of Gaussian 09 at Wed Aug 26 21:29:49 2020.
