 Gaussian 09, Revision D.01,
 Gaussian 09:  ES64L-G09RevD.01 24-Apr-2013

 --------------------
 #p B2PLYPD3/Def2QZVP
 --------------------

 ---------
 butadiene
 ---------
 Symbolic Z-matrix:
 Charge =  0 Multiplicity = 1

                         Standard orientation:
 ---------------------------------------------------------------------
 Center     Atomic      Atomic             Coordinates (Angstroms)
 Number     Number       Type             X           Y           Z
 ---------------------------------------------------------------------
      1          6           0        1.845253   -0.132388    0.033394
      2          6           0        0.614174    0.416239   -0.046932
      3          6           0       -0.596018   -0.359278   -0.032176
      4          6           0       -1.860359    0.085763    0.048685
      5          1           0        2.710316    0.537321    0.159384
      6          1           0        2.024914   -1.207573   -0.058798
      7          1           0        0.496520    1.483009   -0.085666
      8          1           0       -0.427607   -1.407179   -0.048757
      9          1           0       -2.084665    1.091465   -0.024196
     10          1           0       -2.737780   -0.559051    0.040209
 ---------------------------------------------------------------------

 SCF Done:  E(RB2PLYPD3) =  -155.694959660     A.U. after   11 cycles
 E2(B2PLYPD3) =    -0.2261041389D+00 E(B2PLYPD3) =    -0.15592106379911D+03

 The electronic state is 1-A.
 Alpha  occ. eigenvalues --  -10.62654 -10.62316 -10.62222 -10.61123  -0.93075
 Alpha  occ. eigenvalues --   -0.84711  -0.70815  -0.64561  -0.54665  -0.53916
 Alpha  occ. eigenvalues --   -0.46870  -0.45919  -0.41379  -0.37891  -0.27387
 Alpha virt. eigenvalues --    0.01163   0.06917   0.07570   0.08071   0.09676
 Alpha virt. eigenvalues --    0.11670   0.12447   0.14868   0.15852   0.16176
 Alpha virt. eigenvalues --    0.18896   0.20220   0.21764   0.23070   0.23582

 Mulliken charges:
               1
     1  C   -0.177427
     2  C   -0.038174
     3  C   -0.025040
     4  C   -0.176088
     5  H    0.083817
     6  H    0.074205
     7  H    0.059083
     8  H    0.054761
     9  H    0.064170
    10  H    0.080694
 Sum of Mulliken charges =   0.00000

 Dipole moment (field-independent basis, Debye):
    X=              0.0572    Y=              0.0275    Z=             -0.0838  Tot=              0.1051
 Quadrupole moment (field-independent basis, Debye-Ang):
   XX=            -23.3266   YY=            -23.2231   ZZ=            -29.2382
   XY=             -0.2816   XZ=              0.2862   YZ=              0.0844

 1\1\GINC-NODE08\SP\RB2PLYPD3-FC\def2QZVP\C4H6\BOITTIER\26-Aug-2020\0\\
 #p B2PLYPD3/Def2QZVP\\butadiene\\0,1\C,0,-3.841693,0.251268,0.053762\C
 ,0,-2.730845,-0.51354,-0.010151\C,0,-1.400115,0.029868,-0.018773\C,0,-
 0.2369,-0.634388,0.075317\H,0,-4.813065,-0.246536,0.199864\H,0,-3.8240
 93,1.338011,-0.070651\H,0,-2.808623,-1.584636,-0.016853\H,0,-1.375977,
 1.089984,-0.066791\H,0,-0.198917,-1.665794,0.032642\H,0,0.742763,-0.15
 9829,0.047422\\Version=ES64L-G09RevD.01\State=1-A\HF=-155.6949597\MP2=
 -155.9210638\RMSD=7.023e-09\PG=C01 [X(C4H6)]\\@

 Normal termination of Gaussian 09 at Wed Aug 26 09:12:27 2020.
