 Gaussian 09, Revision D.01,
 Gaussian 09:  ES64L-G09RevD.01 24-Apr-2013

 --------------------
 #p B2PLYPD3/Def2QZVP
 --------------------

 ---------
 butadiene
 ---------
 Symbolic Z-matrix:
 Charge =  0 Multiplicity = 1

                         Standard orientation:
 ---------------------------------------------------------------------
 Center     Atomic      Atomic             Coordinates (Angstroms)
 Number     Number       Type             X           Y           Z
 ---------------------------------------------------------------------
      1          6           0        1.832796   -0.128998    0.012577
      2          6           0        0.618193    0.408526   -0.027972
      3          6           0       -0.602234   -0.382935   -0.028989
      4          6           0       -1.856082    0.108817    0.019523
      5          1           0        2.716989    0.493749    0.084553
      6          1           0        1.994664   -1.194262    0.065186
      7          1           0        0.600826    1.526810   -0.010427
      8          1           0       -0.496182   -1.475271   -0.101745
      9          1           0       -2.022291    1.124211   -0.026026
     10          1           0       -2.750041   -0.507698    0.137627
 ---------------------------------------------------------------------

 SCF Done:  E(RB2PLYPD3) =  -155.695641634     A.U. after   11 cycles
 E2(B2PLYPD3) =    -0.2259532985D+00 E(B2PLYPD3) =    -0.15592159493264D+03

 The electronic state is 1-A.
 Alpha  occ. eigenvalues --  -10.63026 -10.62906 -10.61406 -10.61208  -0.92832
 Alpha  occ. eigenvalues --   -0.85035  -0.70266  -0.63876  -0.54612  -0.54198
 Alpha  occ. eigenvalues --   -0.46357  -0.45513  -0.41340  -0.37958  -0.27616
 Alpha virt. eigenvalues --    0.01609   0.07000   0.07450   0.07890   0.09553
 Alpha virt. eigenvalues --    0.11598   0.12557   0.14567   0.15815   0.16420
 Alpha virt. eigenvalues --    0.18820   0.20341   0.21840   0.22624   0.23797

 Mulliken charges:
               1
     1  C   -0.168817
     2  C   -0.029922
     3  C   -0.034619
     4  C   -0.177069
     5  H    0.081866
     6  H    0.064838
     7  H    0.051659
     8  H    0.057565
     9  H    0.070003
    10  H    0.084495
 Sum of Mulliken charges =   0.00000

 Dipole moment (field-independent basis, Debye):
    X=              0.0422    Y=              0.0229    Z=              0.0979  Tot=              0.1091
 Quadrupole moment (field-independent basis, Debye-Ang):
   XX=            -23.2881   YY=            -23.1676   ZZ=            -29.2614
   XY=             -0.0212   XZ=              0.0694   YZ=             -0.0302

 1\1\GINC-NODE08\SP\RB2PLYPD3-FC\def2QZVP\C4H6\BOITTIER\26-Aug-2020\0\\
 #p B2PLYPD3/Def2QZVP\\butadiene\\0,1\C,0,-3.835209,0.230872,0.03438\C,
 0,-2.732383,-0.510096,0.010302\C,0,-1.393212,0.057346,-0.011696\C,0,-0
 .243458,-0.64288,0.052004\H,0,-4.813714,-0.226817,0.122919\H,0,-3.8096
 95,1.309113,0.05678\H,0,-2.909133,-1.613509,0.059366\H,0,-1.308513,1.1
 49055,-0.115314\H,0,-0.256022,-1.672582,0.035261\H,0,0.744312,-0.18771
 ,0.153656\\Version=ES64L-G09RevD.01\State=1-A\HF=-155.6956416\MP2=-155
 .9215949\RMSD=5.304e-09\PG=C01 [X(C4H6)]\\@

 Normal termination of Gaussian 09 at Wed Aug 26 09:05:32 2020.
