 Gaussian 09, Revision D.01,
 Gaussian 09:  ES64L-G09RevD.01 24-Apr-2013

 --------------------
 #p B2PLYPD3/Def2QZVP
 --------------------

 ---------
 butadiene
 ---------
 Symbolic Z-matrix:
 Charge =  0 Multiplicity = 1

                         Standard orientation:
 ---------------------------------------------------------------------
 Center     Atomic      Atomic             Coordinates (Angstroms)
 Number     Number       Type             X           Y           Z
 ---------------------------------------------------------------------
      1          6           0        1.830683   -0.124717    0.009852
      2          6           0        0.605231    0.414393   -0.021135
      3          6           0       -0.606870   -0.378468   -0.021183
      4          6           0       -1.839031    0.096853    0.023099
      5          1           0        2.704400    0.485131    0.022805
      6          1           0        2.026597   -1.172170    0.105630
      7          1           0        0.521910    1.477187   -0.075906
      8          1           0       -0.481284   -1.448105   -0.065704
      9          1           0       -2.016365    1.169974    0.096518
     10          1           0       -2.695333   -0.560378   -0.027138
 ---------------------------------------------------------------------

 SCF Done:  E(RB2PLYPD3) =  -155.700686174     A.U. after   11 cycles
 E2(B2PLYPD3) =    -0.2251613182D+00 E(B2PLYPD3) =    -0.15592584749224D+03

 The electronic state is 1-A.
 Alpha  occ. eigenvalues --  -10.62407 -10.62070 -10.61263 -10.61256  -0.93164
 Alpha  occ. eigenvalues --   -0.85143  -0.70354  -0.64334  -0.54798  -0.54228
 Alpha  occ. eigenvalues --   -0.46875  -0.45551  -0.41227  -0.38197  -0.27746
 Alpha virt. eigenvalues --    0.01799   0.07027   0.07536   0.08065   0.09725
 Alpha virt. eigenvalues --    0.11679   0.12448   0.14842   0.15889   0.16248
 Alpha virt. eigenvalues --    0.18835   0.20455   0.21712   0.22690   0.23844

 Mulliken charges:
               1
     1  C   -0.172308
     2  C   -0.038608
     3  C   -0.025945
     4  C   -0.176438
     5  H    0.080409
     6  H    0.066691
     7  H    0.060567
     8  H    0.055278
     9  H    0.063632
    10  H    0.086722
 Sum of Mulliken charges =   0.00000

 Dipole moment (field-independent basis, Debye):
    X=              0.0514    Y=             -0.0086    Z=              0.0288  Tot=              0.0595
 Quadrupole moment (field-independent basis, Debye-Ang):
   XX=            -23.4133   YY=            -23.0927   ZZ=            -29.1463
   XY=             -0.1139   XZ=              0.1746   YZ=              0.0016

 1\1\GINC-NODE09\SP\RB2PLYPD3-FC\def2QZVP\C4H6\BOITTIER\26-Aug-2020\0\\
 #p B2PLYPD3/Def2QZVP\\butadiene\\0,1\C,0,-3.831552,0.237192,0.030828\C
 ,0,-2.722854,-0.513731,0.01549\C,0,-1.38819,0.048427,-0.006148\C,0,-0.
 261105,-0.638895,0.051974\H,0,-4.800434,-0.205366,0.06041\H,0,-3.83593
 4,1.305035,0.097206\H,0,-2.831803,-1.575323,-0.00952\H,0,-1.320045,1.1
 21595,-0.080602\H,0,-0.278836,-1.723979,0.155436\H,0,0.698975,-0.14764
 5,-0.01621\\Version=ES64L-G09RevD.01\State=1-A\HF=-155.7006862\MP2=-15
 5.9258475\RMSD=5.675e-09\PG=C01 [X(C4H6)]\\@

 Normal termination of Gaussian 09 at Wed Aug 26 19:21:27 2020.
