 Gaussian 09, Revision D.01,
 Gaussian 09:  ES64L-G09RevD.01 24-Apr-2013

 --------------------
 #p B2PLYPD3/Def2QZVP
 --------------------

 ---------
 butadiene
 ---------
 Symbolic Z-matrix:
 Charge =  0 Multiplicity = 1

                         Standard orientation:
 ---------------------------------------------------------------------
 Center     Atomic      Atomic             Coordinates (Angstroms)
 Number     Number       Type             X           Y           Z
 ---------------------------------------------------------------------
      1          6           0       -1.842996   -0.120140    0.033135
      2          6           0       -0.627993    0.386681   -0.023995
      3          6           0        0.616345   -0.406591   -0.062325
      4          6           0        1.843437    0.115197    0.046164
      5          1           0       -2.687462    0.558169    0.100201
      6          1           0       -1.991291   -1.163208   -0.015272
      7          1           0       -0.470155    1.501991   -0.071327
      8          1           0        0.522847   -1.498144   -0.033963
      9          1           0        1.920457    1.231030   -0.053632
     10          1           0        2.772841   -0.480716    0.116114
 ---------------------------------------------------------------------

 SCF Done:  E(RB2PLYPD3) =  -155.694795564     A.U. after   11 cycles
 E2(B2PLYPD3) =    -0.2260840538D+00 E(B2PLYPD3) =    -0.15592087961773D+03

 The electronic state is 1-A.
 Alpha  occ. eigenvalues --  -10.62952 -10.62830 -10.62274 -10.61068  -0.92751
 Alpha  occ. eigenvalues --   -0.85159  -0.69467  -0.63415  -0.54245  -0.53947
 Alpha  occ. eigenvalues --   -0.46778  -0.45089  -0.40706  -0.37905  -0.28026
 Alpha virt. eigenvalues --    0.01972   0.06967   0.07278   0.07940   0.09485
 Alpha virt. eigenvalues --    0.11663   0.12362   0.14483   0.15658   0.16207
 Alpha virt. eigenvalues --    0.18744   0.19981   0.21323   0.23098   0.23979

 Mulliken charges:
               1
     1  C   -0.179782
     2  C   -0.020531
     3  C   -0.034866
     4  C   -0.169438
     5  H    0.089281
     6  H    0.073626
     7  H    0.044588
     8  H    0.050530
     9  H    0.057703
    10  H    0.088890
 Sum of Mulliken charges =   0.00000

 Dipole moment (field-independent basis, Debye):
    X=             -0.0087    Y=             -0.0536    Z=             -0.0219  Tot=              0.0585
 Quadrupole moment (field-independent basis, Debye-Ang):
   XX=            -23.5341   YY=            -23.1906   ZZ=            -29.3237
   XY=             -0.1051   XZ=              0.0470   YZ=             -0.1207

 1\1\GINC-NODE28\SP\RB2PLYPD3-FC\def2QZVP\C4H6\BOITTIER\26-Aug-2020\0\\
 #p B2PLYPD3/Def2QZVP\\butadiene\\0,1\C,0,-3.845893,0.218225,-0.016339\
 C,0,-2.736605,-0.48874,0.061399\C,0,-1.373647,0.078136,0.072533\C,0,-0
 .255829,-0.651704,-0.014665\H,0,-4.795263,-0.305735,-0.059768\H,0,-3.8
 1131,1.272282,-0.006609\H,0,-2.773829,-1.612052,0.150019\H,0,-1.277073
 ,1.167627,0.003851\H,0,-0.372492,-1.759631,0.12627\H,0,0.762294,-0.228
 544,-0.104986\\Version=ES64L-G09RevD.01\State=1-A\HF=-155.6947956\MP2=
 -155.9208796\RMSD=5.458e-09\PG=C01 [X(C4H6)]\\@

 Normal termination of Gaussian 09 at Wed Aug 26 09:01:04 2020.
