 Gaussian 09, Revision D.01,
 Gaussian 09:  ES64L-G09RevD.01 24-Apr-2013

 --------------------
 #p B2PLYPD3/Def2QZVP
 --------------------

 ---------
 butadiene
 ---------
 Symbolic Z-matrix:
 Charge =  0 Multiplicity = 1

                         Standard orientation:
 ---------------------------------------------------------------------
 Center     Atomic      Atomic             Coordinates (Angstroms)
 Number     Number       Type             X           Y           Z
 ---------------------------------------------------------------------
      1          6           0       -1.827111    0.109563    0.015633
      2          6           0       -0.597420   -0.433653   -0.044965
      3          6           0        0.580489    0.395080   -0.037002
      4          6           0        1.843984   -0.088750    0.046159
      5          1           0       -2.743747   -0.461049    0.141008
      6          1           0       -1.945293    1.219999   -0.030173
      7          1           0       -0.477273   -1.462252   -0.003693
      8          1           0        0.405625    1.455726    0.042173
      9          1           0        2.007484   -1.140422   -0.020813
     10          1           0        2.753553    0.494565   -0.007451
 ---------------------------------------------------------------------

 SCF Done:  E(RB2PLYPD3) =  -155.694927309     A.U. after   11 cycles
 E2(B2PLYPD3) =    -0.2264762307D+00 E(B2PLYPD3) =    -0.15592140353944D+03

 The electronic state is 1-A.
 Alpha  occ. eigenvalues --  -10.62716 -10.62267 -10.62150 -10.61530  -0.93176
 Alpha  occ. eigenvalues --   -0.84376  -0.70322  -0.64969  -0.54920  -0.53532
 Alpha  occ. eigenvalues --   -0.46801  -0.45158  -0.41772  -0.38105  -0.27260
 Alpha virt. eigenvalues --    0.01275   0.07026   0.07465   0.08191   0.09227
 Alpha virt. eigenvalues --    0.11664   0.12727   0.14531   0.15738   0.16423
 Alpha virt. eigenvalues --    0.18812   0.19804   0.22029   0.23479   0.23526

 Mulliken charges:
               1
     1  C   -0.170354
     2  C   -0.035995
     3  C   -0.028748
     4  C   -0.175378
     5  H    0.084566
     6  H    0.059396
     7  H    0.066147
     8  H    0.059261
     9  H    0.058783
    10  H    0.082322
 Sum of Mulliken charges =   0.00000

 Dipole moment (field-independent basis, Debye):
    X=             -0.0696    Y=             -0.0503    Z=              0.0491  Tot=              0.0989
 Quadrupole moment (field-independent basis, Debye-Ang):
   XX=            -23.3334   YY=            -23.2512   ZZ=            -29.2962
   XY=             -0.1767   XZ=             -0.4535   YZ=             -0.0418

 1\1\GINC-NODE10\SP\RB2PLYPD3-FC\def2QZVP\C4H6\BOITTIER\26-Aug-2020\0\\
 #p B2PLYPD3/Def2QZVP\\butadiene\\0,1\C,0,-3.826634,0.233014,0.042549\C
 ,0,-2.719065,-0.529822,-0.005077\C,0,-1.40816,0.066496,-0.02138\C,0,-0
 .255455,-0.640457,0.073036\H,0,-4.832169,-0.154567,0.184739\H,0,-3.737
 666,1.344532,-0.033247\H,0,-2.790993,-1.56143,0.063959\H,0,-1.383295,1
 .142898,0.029196\H,0,-0.289749,-1.705616,0.034431\H,0,0.74595,-0.23719
 1,0.002249\\Version=ES64L-G09RevD.01\State=1-A\HF=-155.6949273\MP2=-15
 5.9214035\RMSD=5.149e-09\PG=C01 [X(C4H6)]\\@

 Normal termination of Gaussian 09 at Wed Aug 26 11:07:37 2020.
