 Gaussian 09, Revision D.01,
 Gaussian 09:  ES64L-G09RevD.01 24-Apr-2013

 --------------------
 #p B2PLYPD3/Def2QZVP
 --------------------

 ---------
 butadiene
 ---------
 Symbolic Z-matrix:
 Charge =  0 Multiplicity = 1

                         Standard orientation:
 ---------------------------------------------------------------------
 Center     Atomic      Atomic             Coordinates (Angstroms)
 Number     Number       Type             X           Y           Z
 ---------------------------------------------------------------------
      1          6           0       -1.882413    0.066661    0.063184
      2          6           0       -0.614194   -0.349150   -0.072645
      3          6           0        0.602564    0.431182   -0.060528
      4          6           0        1.853649   -0.149714    0.044443
      5          1           0       -2.618014   -0.667718    0.131647
      6          1           0       -2.034598    1.170669   -0.095303
      7          1           0       -0.370711   -1.334882   -0.089697
      8          1           0        0.505056    1.484053    0.104455
      9          1           0        2.087117   -1.174779    0.064716
     10          1           0        2.673515    0.528779    0.037457
 ---------------------------------------------------------------------

 SCF Done:  E(RB2PLYPD3) =  -155.681713200     A.U. after   11 cycles
 E2(B2PLYPD3) =    -0.2268786980D+00 E(B2PLYPD3) =    -0.15590859189792D+03

 The electronic state is 1-A.
 Alpha  occ. eigenvalues --  -10.63025 -10.61988 -10.61663 -10.61480  -0.92920
 Alpha  occ. eigenvalues --   -0.84617  -0.71270  -0.64802  -0.55299  -0.53211
 Alpha  occ. eigenvalues --   -0.47617  -0.45701  -0.41499  -0.37608  -0.27150
 Alpha virt. eigenvalues --    0.00749   0.06995   0.07619   0.08270   0.09279
 Alpha virt. eigenvalues --    0.11805   0.12251   0.14812   0.15434   0.16261
 Alpha virt. eigenvalues --    0.18564   0.19697   0.22008   0.23458   0.24230

 Mulliken charges:
               1
     1  C   -0.190598
     2  C   -0.023969
     3  C   -0.042225
     4  C   -0.183762
     5  H    0.094044
     6  H    0.072957
     7  H    0.054831
     8  H    0.061191
     9  H    0.075706
    10  H    0.081825
 Sum of Mulliken charges =   0.00000

 Dipole moment (field-independent basis, Debye):
    X=              0.1495    Y=             -0.1035    Z=              0.0462  Tot=              0.1876
 Quadrupole moment (field-independent basis, Debye-Ang):
   XX=            -23.8068   YY=            -23.0059   ZZ=            -29.2778
   XY=             -0.1795   XZ=              0.1553   YZ=             -0.0929

 1\1\GINC-NODE33\SP\RB2PLYPD3-FC\def2QZVP\C4H6\BOITTIER\26-Aug-2020\0\\
 #p B2PLYPD3/Def2QZVP\\butadiene\\0,1\C,0,-3.885447,0.199519,0.081626\C
 ,0,-2.715907,-0.447683,-0.032539\C,0,-1.376357,0.095381,-0.048436\C,0,
 -0.253008,-0.700874,0.084748\H,0,-4.743261,-0.383588,0.1778\H,0,-3.832
 671,1.305199,-0.122822\H,0,-2.657928,-1.461232,-0.008047\H,0,-1.277885
 ,1.154114,0.072609\H,0,-0.21195,-1.749671,0.148122\H,0,0.677614,-0.185
 616,0.052596\\Version=ES64L-G09RevD.01\State=1-A\HF=-155.6817132\MP2=-
 155.9085919\RMSD=9.891e-09\PG=C01 [X(C4H6)]\\@

 Normal termination of Gaussian 09 at Wed Aug 26 11:45:58 2020.
