 Gaussian 09, Revision D.01,
 Gaussian 09:  ES64L-G09RevD.01 24-Apr-2013

 --------------------
 #p B2PLYPD3/Def2QZVP
 --------------------

 ---------
 butadiene
 ---------
 Symbolic Z-matrix:
 Charge =  0 Multiplicity = 1

                         Standard orientation:
 ---------------------------------------------------------------------
 Center     Atomic      Atomic             Coordinates (Angstroms)
 Number     Number       Type             X           Y           Z
 ---------------------------------------------------------------------
      1          6           0        1.851513   -0.122485   -0.008492
      2          6           0        0.618665    0.402375   -0.001885
      3          6           0       -0.635536   -0.377040   -0.020593
      4          6           0       -1.858535    0.106713    0.006722
      5          1           0        2.761557    0.489331   -0.021741
      6          1           0        1.966206   -1.231331    0.125580
      7          1           0        0.541200    1.534493    0.014131
      8          1           0       -0.433315   -1.447568   -0.025501
      9          1           0       -1.975503    1.153601    0.048883
     10          1           0       -2.716790   -0.555904    0.004136
 ---------------------------------------------------------------------

 SCF Done:  E(RB2PLYPD3) =  -155.695107984     A.U. after   11 cycles
 E2(B2PLYPD3) =    -0.2259771335D+00 E(B2PLYPD3) =    -0.15592108511768D+03

 The electronic state is 1-A.
 Alpha  occ. eigenvalues --  -10.63292 -10.62550 -10.62276 -10.61129  -0.92725
 Alpha  occ. eigenvalues --   -0.85209  -0.69799  -0.63290  -0.54497  -0.53744
 Alpha  occ. eigenvalues --   -0.47083  -0.45264  -0.40382  -0.37951  -0.28103
 Alpha virt. eigenvalues --    0.01844   0.06967   0.07287   0.07956   0.09659
 Alpha virt. eigenvalues --    0.11656   0.12343   0.14478   0.15851   0.15980
 Alpha virt. eigenvalues --    0.18797   0.20545   0.21198   0.22721   0.23793

 Mulliken charges:
               1
     1  C   -0.173550
     2  C   -0.030792
     3  C   -0.021845
     4  C   -0.176642
     5  H    0.090098
     6  H    0.058387
     7  H    0.041208
     8  H    0.048560
     9  H    0.071541
    10  H    0.093036
 Sum of Mulliken charges =   0.00000

 Dipole moment (field-independent basis, Debye):
    X=             -0.0075    Y=              0.0092    Z=              0.1239  Tot=              0.1244
 Quadrupole moment (field-independent basis, Debye-Ang):
   XX=            -23.3674   YY=            -23.2961   ZZ=            -29.3247
   XY=              0.0880   XZ=              0.0754   YZ=             -0.0743

 1\1\GINC-NODE26\SP\RB2PLYPD3-FC\def2QZVP\C4H6\BOITTIER\26-Aug-2020\0\\
 #p B2PLYPD3/Def2QZVP\\butadiene\\0,1\C,0,-3.857073,0.226733,0.01451\C,
 0,-2.73355,-0.50315,0.034611\C,0,-1.363529,0.046922,-0.001726\C,0,-0.2
 42529,-0.640292,0.038088\H,0,-4.859249,-0.218596,0.015165\H,0,-3.77782
 9,1.341561,0.121974\H,0,-2.852981,-1.630903,0.077719\H,0,-1.377588,1.1
 35871,-0.032356\H,0,-0.308224,-1.690338,0.105329\H,0,0.717371,-0.13636
 ,0.020348\\Version=ES64L-G09RevD.01\State=1-A\HF=-155.695108\MP2=-155.
 9210851\RMSD=4.132e-09\PG=C01 [X(C4H6)]\\@

 Normal termination of Gaussian 09 at Wed Aug 26 09:27:04 2020.
