 Gaussian 09, Revision D.01,
 Gaussian 09:  ES64L-G09RevD.01 24-Apr-2013

 --------------------
 #p B2PLYPD3/Def2QZVP
 --------------------

 ---------
 butadiene
 ---------
 Symbolic Z-matrix:
 Charge =  0 Multiplicity = 1

                         Standard orientation:
 ---------------------------------------------------------------------
 Center     Atomic      Atomic             Coordinates (Angstroms)
 Number     Number       Type             X           Y           Z
 ---------------------------------------------------------------------
      1          6           0        1.845631    0.107290    0.020291
      2          6           0        0.611345   -0.393039   -0.013122
      3          6           0       -0.613127    0.418671   -0.037093
      4          6           0       -1.846978   -0.117905    0.022453
      5          1           0        2.703633   -0.567028    0.054095
      6          1           0        2.048690    1.152375   -0.009066
      7          1           0        0.491764   -1.470620   -0.045933
      8          1           0       -0.457736    1.510022   -0.012545
      9          1           0       -2.002784   -1.184599   -0.018252
     10          1           0       -2.764797    0.469747    0.076531
 ---------------------------------------------------------------------

 SCF Done:  E(RB2PLYPD3) =  -155.699632464     A.U. after   11 cycles
 E2(B2PLYPD3) =    -0.2259641420D+00 E(B2PLYPD3) =    -0.15592559660569D+03

 The electronic state is 1-A.
 Alpha  occ. eigenvalues --  -10.63162 -10.62588 -10.61875 -10.61352  -0.92633
 Alpha  occ. eigenvalues --   -0.84783  -0.70047  -0.64071  -0.54410  -0.53828
 Alpha  occ. eigenvalues --   -0.46720  -0.45658  -0.40974  -0.37871  -0.27703
 Alpha virt. eigenvalues --    0.01712   0.06981   0.07409   0.08036   0.09409
 Alpha virt. eigenvalues --    0.11624   0.12453   0.14670   0.15805   0.16206
 Alpha virt. eigenvalues --    0.18850   0.20405   0.21740   0.22824   0.23751

 Mulliken charges:
               1
     1  C   -0.177772
     2  C   -0.025899
     3  C   -0.039647
     4  C   -0.170147
     5  H    0.082727
     6  H    0.068669
     7  H    0.055864
     8  H    0.056420
     9  H    0.065952
    10  H    0.083831
 Sum of Mulliken charges =   0.00000

 Dipole moment (field-independent basis, Debye):
    X=             -0.0190    Y=             -0.0121    Z=              0.0016  Tot=              0.0226
 Quadrupole moment (field-independent basis, Debye-Ang):
   XX=            -23.3710   YY=            -23.1125   ZZ=            -29.3433
   XY=              0.2845   XZ=             -0.0974   YZ=              0.0727

 1\1\GINC-NODE14\SP\RB2PLYPD3-FC\def2QZVP\C4H6\BOITTIER\26-Aug-2020\0\\
 #p B2PLYPD3/Def2QZVP\\butadiene\\0,1\C,0,-3.849568,0.218598,-0.001968\
 C,0,-2.724498,-0.493082,0.049383\C,0,-1.374516,0.086854,0.048073\C,0,-
 0.256794,-0.663424,0.007709\H,0,-4.814469,-0.292108,-0.014572\H,0,-3.8
 62336,1.283543,-0.007291\H,0,-2.799379,-1.573021,0.117811\H,0,-1.33236
 6,1.187008,-0.012593\H,0,-0.294051,-1.738879,0.083711\H,0,0.751048,-0.
 251505,-0.064596\\Version=ES64L-G09RevD.01\State=1-A\HF=-155.6996325\M
 P2=-155.9255966\RMSD=5.141e-09\PG=C01 [X(C4H6)]\\@

 Normal termination of Gaussian 09 at Wed Aug 26 19:53:22 2020.
