 Gaussian 09, Revision D.01,
 Gaussian 09:  ES64L-G09RevD.01 24-Apr-2013

 --------------------
 #p B2PLYPD3/Def2QZVP
 --------------------

 ---------
 butadiene
 ---------
 Symbolic Z-matrix:
 Charge =  0 Multiplicity = 1

                         Standard orientation:
 ---------------------------------------------------------------------
 Center     Atomic      Atomic             Coordinates (Angstroms)
 Number     Number       Type             X           Y           Z
 ---------------------------------------------------------------------
      1          6           0        1.843866    0.103757    0.043196
      2          6           0        0.621600   -0.369147   -0.044997
      3          6           0       -0.603108    0.418141   -0.101255
      4          6           0       -1.835939   -0.121835    0.084274
      5          1           0        2.539869   -0.708310   -0.016788
      6          1           0        2.175644    1.117871    0.194500
      7          1           0        0.341795   -1.379526   -0.132958
      8          1           0       -0.456181    1.517925   -0.010366
      9          1           0       -1.906900   -1.228093    0.143172
     10          1           0       -2.852739    0.494634   -0.064872
 ---------------------------------------------------------------------

 SCF Done:  E(RB2PLYPD3) =  -155.676775724     A.U. after   12 cycles
 E2(B2PLYPD3) =    -0.2273397587D+00 E(B2PLYPD3) =    -0.15590411548258D+03

 The electronic state is 1-A.
 Alpha  occ. eigenvalues --  -10.63475 -10.62905 -10.61964 -10.61252  -0.93170
 Alpha  occ. eigenvalues --   -0.84730  -0.69840  -0.63902  -0.53907  -0.53632
 Alpha  occ. eigenvalues --   -0.46725  -0.45262  -0.40101  -0.37758  -0.27840
 Alpha virt. eigenvalues --    0.01290   0.06819   0.07330   0.07942   0.09453
 Alpha virt. eigenvalues --    0.11586   0.12147   0.14821   0.15057   0.16202
 Alpha virt. eigenvalues --    0.18552   0.19472   0.21498   0.22285   0.24325

 Mulliken charges:
               1
     1  C   -0.179854
     2  C   -0.025959
     3  C   -0.035442
     4  C   -0.168074
     5  H    0.077652
     6  H    0.085564
     7  H    0.056671
     8  H    0.053157
     9  H    0.055901
    10  H    0.080383
 Sum of Mulliken charges =   0.00000

 Dipole moment (field-independent basis, Debye):
    X=              0.0589    Y=             -0.0106    Z=              0.0227  Tot=              0.0640
 Quadrupole moment (field-independent basis, Debye-Ang):
   XX=            -23.8965   YY=            -23.2078   ZZ=            -29.3290
   XY=              0.5433   XZ=              0.2890   YZ=              0.2283

 1\1\GINC-NODE28\SP\RB2PLYPD3-FC\def2QZVP\C4H6\BOITTIER\26-Aug-2020\0\\
 #p B2PLYPD3/Def2QZVP\\butadiene\\0,1\C,0,-3.843203,0.220455,-0.032591\
 C,0,-2.728321,-0.464952,0.079692\C,0,-1.37977,0.085773,0.111449\C,0,-0
 .267455,-0.678079,-0.047143\H,0,-4.676313,-0.447131,0.055318\H,0,-3.98
 3525,1.271583,-0.224516\H,0,-2.638551,-1.505332,0.207927\H,0,-1.322516
 ,1.189471,-0.022519\H,0,-0.400923,-1.780008,-0.062966\H,0,0.84558,-0.2
 53377,0.083018\\Version=ES64L-G09RevD.01\State=1-A\HF=-155.6767757\MP2
 =-155.9041155\RMSD=4.954e-09\PG=C01 [X(C4H6)]\\@

 Normal termination of Gaussian 09 at Wed Aug 26 15:56:37 2020.
