 Gaussian 09, Revision D.01,
 Gaussian 09:  ES64L-G09RevD.01 24-Apr-2013

 --------------------
 #p B2PLYPD3/Def2QZVP
 --------------------

 ---------
 butadiene
 ---------
 Symbolic Z-matrix:
 Charge =  0 Multiplicity = 1

                         Standard orientation:
 ---------------------------------------------------------------------
 Center     Atomic      Atomic             Coordinates (Angstroms)
 Number     Number       Type             X           Y           Z
 ---------------------------------------------------------------------
      1          6           0       -1.835598    0.075631   -0.069019
      2          6           0       -0.576006   -0.397925    0.037127
      3          6           0        0.585226    0.439371    0.056998
      4          6           0        1.822445   -0.129265   -0.054641
      5          1           0       -2.726464   -0.471445    0.027705
      6          1           0       -1.968845    1.183075   -0.088100
      7          1           0       -0.318268   -1.449320    0.263263
      8          1           0        0.479907    1.448509    0.143885
      9          1           0        1.904091   -1.211884   -0.176421
     10          1           0        2.653176    0.574194    0.006875
 ---------------------------------------------------------------------

 SCF Done:  E(RB2PLYPD3) =  -155.687152337     A.U. after   12 cycles
 E2(B2PLYPD3) =    -0.2271478734D+00 E(B2PLYPD3) =    -0.15591430021017D+03

 The electronic state is 1-A.
 Alpha  occ. eigenvalues --  -10.62762 -10.62147 -10.61882 -10.61688  -0.93269
 Alpha  occ. eigenvalues --   -0.84200  -0.70324  -0.64912  -0.54722  -0.53440
 Alpha  occ. eigenvalues --   -0.46728  -0.45720  -0.41747  -0.37517  -0.27143
 Alpha virt. eigenvalues --    0.01192   0.07126   0.07312   0.08025   0.09238
 Alpha virt. eigenvalues --    0.11754   0.12411   0.14655   0.15600   0.16017
 Alpha virt. eigenvalues --    0.18688   0.20068   0.21401   0.22671   0.24052

 Mulliken charges:
               1
     1  C   -0.178116
     2  C   -0.025597
     3  C   -0.036022
     4  C   -0.182381
     5  H    0.087980
     6  H    0.052864
     7  H    0.055028
     8  H    0.065392
     9  H    0.075239
    10  H    0.085614
 Sum of Mulliken charges =   0.00000

 Dipole moment (field-independent basis, Debye):
    X=              0.0249    Y=              0.0747    Z=              0.2309  Tot=              0.2440
 Quadrupole moment (field-independent basis, Debye-Ang):
   XX=            -23.9443   YY=            -23.0799   ZZ=            -29.2799
   XY=             -0.1377   XZ=             -0.2972   YZ=              0.0077

 1\1\GINC-NODE13\SP\RB2PLYPD3-FC\def2QZVP\C4H6\BOITTIER\26-Aug-2020\0\\
 #p B2PLYPD3/Def2QZVP\\butadiene\\0,1\C,0,-3.840645,0.204486,-0.042369\
 C,0,-2.692204,-0.494651,0.077569\C,0,-1.394029,0.109212,0.074123\C,0,-
 0.286548,-0.685122,-0.020953\H,0,-4.818075,-0.162128,0.069501\H,0,-3.7
 6313,1.316239,-0.092839\H,0,-2.63587,-1.569053,0.333466\H,0,-1.307062,
 1.122151,0.132371\H,0,-0.410772,-1.766712,-0.112008\H,0,0.662052,-0.14
 925,0.020906\\Version=ES64L-G09RevD.01\State=1-A\HF=-155.6871523\MP2=-
 155.9143002\RMSD=4.904e-09\PG=C01 [X(C4H6)]\\@

 Normal termination of Gaussian 09 at Wed Aug 26 14:30:37 2020.
