 Gaussian 09, Revision D.01,
 Gaussian 09:  ES64L-G09RevD.01 24-Apr-2013

 --------------------
 #p B2PLYPD3/Def2QZVP
 --------------------

 ---------
 butadiene
 ---------
 Symbolic Z-matrix:
 Charge =  0 Multiplicity = 1

                         Standard orientation:
 ---------------------------------------------------------------------
 Center     Atomic      Atomic             Coordinates (Angstroms)
 Number     Number       Type             X           Y           Z
 ---------------------------------------------------------------------
      1          6           0        1.846079   -0.107193    0.007098
      2          6           0        0.606459    0.383287   -0.030862
      3          6           0       -0.614744   -0.400381   -0.010201
      4          6           0       -1.843663    0.114131    0.018461
      5          1           0        2.684912    0.548116    0.101584
      6          1           0        2.043474   -1.165635    0.018643
      7          1           0        0.470190    1.473820   -0.015072
      8          1           0       -0.508556   -1.493467   -0.055288
      9          1           0       -1.946490    1.216632   -0.019329
     10          1           0       -2.708316   -0.518528    0.062485
 ---------------------------------------------------------------------

 SCF Done:  E(RB2PLYPD3) =  -155.699742954     A.U. after   11 cycles
 E2(B2PLYPD3) =    -0.2257844986D+00 E(B2PLYPD3) =    -0.15592552745305D+03

 The electronic state is 1-A.
 Alpha  occ. eigenvalues --  -10.62652 -10.62543 -10.61684 -10.61330  -0.92978
 Alpha  occ. eigenvalues --   -0.85088  -0.70202  -0.63602  -0.54781  -0.53865
 Alpha  occ. eigenvalues --   -0.46777  -0.45467  -0.41048  -0.38114  -0.27763
 Alpha virt. eigenvalues --    0.01700   0.07015   0.07352   0.08021   0.09728
 Alpha virt. eigenvalues --    0.11679   0.12380   0.14671   0.15789   0.16122
 Alpha virt. eigenvalues --    0.18785   0.20509   0.21403   0.22709   0.23969

 Mulliken charges:
               1
     1  C   -0.176570
     2  C   -0.026590
     3  C   -0.026856
     4  C   -0.177236
     5  H    0.086964
     6  H    0.067439
     7  H    0.048170
     8  H    0.049166
     9  H    0.062983
    10  H    0.092531
 Sum of Mulliken charges =   0.00000

 Dipole moment (field-independent basis, Debye):
    X=              0.0019    Y=             -0.0336    Z=              0.0582  Tot=              0.0672
 Quadrupole moment (field-independent basis, Debye-Ang):
   XX=            -23.5114   YY=            -23.1286   ZZ=            -29.2695
   XY=              0.0241   XZ=              0.2356   YZ=              0.0395

 1\1\GINC-NODE36\SP\RB2PLYPD3-FC\def2QZVP\C4H6\BOITTIER\26-Aug-2020\0\\
 #p B2PLYPD3/Def2QZVP\\butadiene\\0,1\C,0,-3.850539,0.218383,0.030087\C
 ,0,-2.718205,-0.485907,0.008474\C,0,-1.376961,0.068107,0.002919\C,0,-0
 .259035,-0.655725,0.048693\H,0,-4.791995,-0.273677,0.146426\H,0,-3.856
 404,1.294857,0.006303\H,0,-2.778035,-1.582164,0.060651\H,0,-1.287251,1
 .160557,-0.078625\H,0,-0.354222,-1.759559,0.047721\H,0,0.704628,-0.185
 989,0.071542\\Version=ES64L-G09RevD.01\State=1-A\HF=-155.699743\MP2=-1
 55.9255275\RMSD=3.330e-09\PG=C01 [X(C4H6)]\\@

 Normal termination of Gaussian 09 at Wed Aug 26 16:17:00 2020.
