 Gaussian 09, Revision D.01,
 Gaussian 09:  ES64L-G09RevD.01 24-Apr-2013

 --------------------
 #p B2PLYPD3/Def2QZVP
 --------------------

 ---------
 butadiene
 ---------
 Symbolic Z-matrix:
 Charge =  0 Multiplicity = 1

                         Standard orientation:
 ---------------------------------------------------------------------
 Center     Atomic      Atomic             Coordinates (Angstroms)
 Number     Number       Type             X           Y           Z
 ---------------------------------------------------------------------
      1          6           0       -1.846694    0.105181    0.012898
      2          6           0       -0.604020   -0.383554   -0.022232
      3          6           0        0.618144    0.405642   -0.013877
      4          6           0        1.840139   -0.130993    0.005044
      5          1           0       -2.699930   -0.538074    0.010366
      6          1           0       -2.003046    1.165409    0.061403
      7          1           0       -0.515299   -1.464296   -0.052704
      8          1           0        0.501038    1.503966   -0.010242
      9          1           0        1.990030   -1.184726    0.117938
     10          1           0        2.681790    0.540061   -0.017762
 ---------------------------------------------------------------------

 SCF Done:  E(RB2PLYPD3) =  -155.700063680     A.U. after   11 cycles
 E2(B2PLYPD3) =    -0.2256002256D+00 E(B2PLYPD3) =    -0.15592566390603D+03

 The electronic state is 1-A.
 Alpha  occ. eigenvalues --  -10.62761 -10.62373 -10.61375 -10.61169  -0.92919
 Alpha  occ. eigenvalues --   -0.85127  -0.70186  -0.63892  -0.54467  -0.54379
 Alpha  occ. eigenvalues --   -0.46579  -0.45759  -0.41257  -0.38036  -0.27692
 Alpha virt. eigenvalues --    0.01722   0.07017   0.07437   0.08016   0.09664
 Alpha virt. eigenvalues --    0.11729   0.12359   0.14792   0.15889   0.16107
 Alpha virt. eigenvalues --    0.18763   0.20546   0.21449   0.22702   0.24060

 Mulliken charges:
               1
     1  C   -0.179880
     2  C   -0.024323
     3  C   -0.033760
     4  C   -0.177431
     5  H    0.088461
     6  H    0.063717
     7  H    0.050595
     8  H    0.051811
     9  H    0.074533
    10  H    0.086277
 Sum of Mulliken charges =   0.00000

 Dipole moment (field-independent basis, Debye):
    X=              0.0146    Y=             -0.0072    Z=              0.0858  Tot=              0.0873
 Quadrupole moment (field-independent basis, Debye-Ang):
   XX=            -23.6120   YY=            -23.0047   ZZ=            -29.2442
   XY=              0.0154   XZ=              0.0574   YZ=             -0.0497

 1\1\GINC-NODE08\SP\RB2PLYPD3-FC\def2QZVP\C4H6\BOITTIER\26-Aug-2020\0\\
 #p B2PLYPD3/Def2QZVP\\butadiene\\0,1\C,0,-3.85233,0.214775,0.031946\C,
 0,-2.715267,-0.486041,0.015264\C,0,-1.373207,0.075439,0.001028\C,0,-0.
 264747,-0.667134,0.039858\H,0,-4.805509,-0.267908,0.048143\H,0,-3.8193
 72,1.286967,0.046089\H,0,-2.818349,-1.565929,0.019652\H,0,-1.295063,1.
 176767,-0.030811\H,0,-0.302363,-1.726642,0.186808\H,0,0.681835,-0.1558
 71,-0.002581\\Version=ES64L-G09RevD.01\State=1-A\HF=-155.7000637\MP2=-
 155.9256639\RMSD=4.497e-09\PG=C01 [X(C4H6)]\\@

 Normal termination of Gaussian 09 at Wed Aug 26 21:10:12 2020.
