 Gaussian 09, Revision D.01,
 Gaussian 09:  ES64L-G09RevD.01 24-Apr-2013

 --------------------
 #p B2PLYPD3/Def2QZVP
 --------------------

 ---------
 butadiene
 ---------
 Symbolic Z-matrix:
 Charge =  0 Multiplicity = 1

                         Standard orientation:
 ---------------------------------------------------------------------
 Center     Atomic      Atomic             Coordinates (Angstroms)
 Number     Number       Type             X           Y           Z
 ---------------------------------------------------------------------
      1          6           0       -1.846114    0.115004    0.016349
      2          6           0       -0.607891   -0.408669   -0.018779
      3          6           0        0.602924    0.380204   -0.026077
      4          6           0        1.844506   -0.098889    0.019806
      5          1           0       -2.722653   -0.511701    0.008842
      6          1           0       -2.024915    1.173377    0.028731
      7          1           0       -0.453790   -1.471969    0.014062
      8          1           0        0.471548    1.473638   -0.028160
      9          1           0        2.067344   -1.125747   -0.018956
     10          1           0        2.701914    0.536498    0.047683
 ---------------------------------------------------------------------

 SCF Done:  E(RB2PLYPD3) =  -155.700004656     A.U. after   11 cycles
 E2(B2PLYPD3) =    -0.2255322890D+00 E(B2PLYPD3) =    -0.15592553694477D+03

 The electronic state is 1-A.
 Alpha  occ. eigenvalues --  -10.62603 -10.62507 -10.61646 -10.60968  -0.93017
 Alpha  occ. eigenvalues --   -0.84954  -0.70798  -0.64228  -0.54908  -0.54065
 Alpha  occ. eigenvalues --   -0.46972  -0.45846  -0.41048  -0.38149  -0.27601
 Alpha virt. eigenvalues --    0.01509   0.06993   0.07511   0.08103   0.09711
 Alpha virt. eigenvalues --    0.11653   0.12529   0.14878   0.15875   0.16200
 Alpha virt. eigenvalues --    0.18870   0.20526   0.21942   0.22830   0.23613

 Mulliken charges:
               1
     1  C   -0.173908
     2  C   -0.038155
     3  C   -0.020500
     4  C   -0.177270
     5  H    0.085304
     6  H    0.068765
     7  H    0.058273
     8  H    0.049377
     9  H    0.064502
    10  H    0.083610
 Sum of Mulliken charges =   0.00000

 Dipole moment (field-independent basis, Debye):
    X=              0.0005    Y=             -0.0208    Z=              0.0135  Tot=              0.0248
 Quadrupole moment (field-independent basis, Debye-Ang):
   XX=            -23.1907   YY=            -23.2014   ZZ=            -29.2182
   XY=             -0.3213   XZ=             -0.0029   YZ=              0.0387

 1\1\GINC-NODE15\SP\RB2PLYPD3-FC\def2QZVP\C4H6\BOITTIER\26-Aug-2020\0\\
 #p B2PLYPD3/Def2QZVP\\butadiene\\0,1\C,0,-3.845221,0.235716,0.03575\C,
 0,-2.723169,-0.505442,0.017129\C,0,-1.388989,0.049253,-0.009783\C,0,-0
 .255247,-0.646486,0.051356\H,0,-4.821237,-0.22086,0.043976\H,0,-3.8282
 86,1.308889,0.018745\H,0,-2.765138,-1.577725,0.079434\H,0,-1.319086,1.
 147856,-0.042132\H,0,-0.223232,-1.697423,0.041201\H,0,0.703606,-0.1773
 36,0.063222\\Version=ES64L-G09RevD.01\State=1-A\HF=-155.7000047\MP2=-1
 55.9255369\RMSD=5.447e-09\PG=C01 [X(C4H6)]\\@

 Normal termination of Gaussian 09 at Wed Aug 26 21:34:15 2020.
