 Gaussian 09, Revision D.01,
 Gaussian 09:  ES64L-G09RevD.01 24-Apr-2013

 --------------------
 #p B2PLYPD3/Def2QZVP
 --------------------

 ---------
 butadiene
 ---------
 Symbolic Z-matrix:
 Charge =  0 Multiplicity = 1

                         Standard orientation:
 ---------------------------------------------------------------------
 Center     Atomic      Atomic             Coordinates (Angstroms)
 Number     Number       Type             X           Y           Z
 ---------------------------------------------------------------------
      1          6           0        1.850218   -0.108271    0.013617
      2          6           0        0.604675    0.402395   -0.024236
      3          6           0       -0.614062   -0.400277   -0.020364
      4          6           0       -1.847052    0.100349   -0.002171
      5          1           0        2.720759    0.528029    0.015742
      6          1           0        2.055336   -1.188494    0.039142
      7          1           0        0.460762    1.478462    0.029600
      8          1           0       -0.457813   -1.458108   -0.006239
      9          1           0       -1.992965    1.180187    0.039210
     10          1           0       -2.748755   -0.505248    0.081476
 ---------------------------------------------------------------------

 SCF Done:  E(RB2PLYPD3) =  -155.699936566     A.U. after   11 cycles
 E2(B2PLYPD3) =    -0.2259435259D+00 E(B2PLYPD3) =    -0.15592588009225D+03

 The electronic state is 1-A.
 Alpha  occ. eigenvalues --  -10.62849 -10.62396 -10.61938 -10.61679  -0.92834
 Alpha  occ. eigenvalues --   -0.84755  -0.70189  -0.64165  -0.54723  -0.53542
 Alpha  occ. eigenvalues --   -0.47036  -0.45392  -0.40976  -0.38010  -0.27707
 Alpha virt. eigenvalues --    0.01592   0.06985   0.07398   0.08113   0.09542
 Alpha virt. eigenvalues --    0.11623   0.12460   0.14620   0.15804   0.16222
 Alpha virt. eigenvalues --    0.18882   0.20336   0.21791   0.22876   0.23523

 Mulliken charges:
               1
     1  C   -0.175739
     2  C   -0.034543
     3  C   -0.029239
     4  C   -0.169523
     5  H    0.085757
     6  H    0.064917
     7  H    0.055440
     8  H    0.057094
     9  H    0.060097
    10  H    0.085739
 Sum of Mulliken charges =   0.00000

 Dipole moment (field-independent basis, Debye):
    X=              0.0093    Y=             -0.0122    Z=              0.1524  Tot=              0.1532
 Quadrupole moment (field-independent basis, Debye-Ang):
   XX=            -23.2923   YY=            -23.2210   ZZ=            -29.3166
   XY=             -0.2106   XZ=             -0.1861   YZ=              0.0061

 1\1\GINC-NODE05\SP\RB2PLYPD3-FC\def2QZVP\C4H6\BOITTIER\26-Aug-2020\0\\
 #p B2PLYPD3/Def2QZVP\\butadiene\\0,1\C,0,-3.852893,0.226319,0.032765\C
 ,0,-2.720499,-0.502349,0.014958\C,0,-1.376563,0.066121,-0.002196\C,0,-
 0.254561,-0.648653,0.035661\H,0,-4.824251,-0.241466,0.05187\H,0,-3.858
 964,1.326088,0.02391\H,0,-2.773678,-1.584469,0.102805\H,0,-1.338654,1.
 134674,-0.021586\H,0,-0.306486,-1.735231,0.111183\H,0,0.742091,-0.2140
 08,0.103346\\Version=ES64L-G09RevD.01\State=1-A\HF=-155.6999366\MP2=-1
 55.9258801\RMSD=4.804e-09\PG=C01 [X(C4H6)]\\@

 Normal termination of Gaussian 09 at Wed Aug 26 15:17:07 2020.
