 Gaussian 09, Revision D.01,
 Gaussian 09:  ES64L-G09RevD.01 24-Apr-2013

 --------------------
 #p B2PLYPD3/Def2QZVP
 --------------------

 ---------
 butadiene
 ---------
 Symbolic Z-matrix:
 Charge =  0 Multiplicity = 1

                         Standard orientation:
 ---------------------------------------------------------------------
 Center     Atomic      Atomic             Coordinates (Angstroms)
 Number     Number       Type             X           Y           Z
 ---------------------------------------------------------------------
      1          6           0       -1.843331   -0.094588   -0.022665
      2          6           0       -0.599283    0.370075    0.044193
      3          6           0        0.624626   -0.422831    0.034402
      4          6           0        1.861893    0.128677   -0.073668
      5          1           0       -2.711276    0.501576   -0.115951
      6          1           0       -1.982259   -1.121918   -0.238160
      7          1           0       -0.522619    1.464310    0.339571
      8          1           0        0.361532   -1.490626    0.230453
      9          1           0        1.802183    1.260645   -0.218170
     10          1           0        2.789011   -0.501984    0.108686
 ---------------------------------------------------------------------

 SCF Done:  E(RB2PLYPD3) =  -155.679511937     A.U. after   12 cycles
 E2(B2PLYPD3) =    -0.2278260644D+00 E(B2PLYPD3) =    -0.15590733800116D+03

 The electronic state is 1-A.
 Alpha  occ. eigenvalues --  -10.63516 -10.63400 -10.62904 -10.60910  -0.92808
 Alpha  occ. eigenvalues --   -0.84696  -0.69949  -0.63064  -0.54450  -0.53087
 Alpha  occ. eigenvalues --   -0.46884  -0.44917  -0.40881  -0.37051  -0.27872
 Alpha virt. eigenvalues --    0.01233   0.07072   0.07184   0.07685   0.09189
 Alpha virt. eigenvalues --    0.11643   0.12345   0.14284   0.15297   0.15802
 Alpha virt. eigenvalues --    0.18201   0.19195   0.21608   0.22372   0.24168

 Mulliken charges:
               1
     1  C   -0.175838
     2  C   -0.019703
     3  C   -0.044806
     4  C   -0.175524
     5  H    0.087032
     6  H    0.053916
     7  H    0.049995
     8  H    0.054315
     9  H    0.070567
    10  H    0.100045
 Sum of Mulliken charges =   0.00000

 Dipole moment (field-independent basis, Debye):
    X=             -0.0756    Y=             -0.0449    Z=              0.1321  Tot=              0.1587
 Quadrupole moment (field-independent basis, Debye-Ang):
   XX=            -23.6051   YY=            -23.6414   ZZ=            -29.2394
   XY=             -0.1862   XZ=              0.7276   YZ=             -0.0793

 1\1\GINC-NODE01\SP\RB2PLYPD3-FC\def2QZVP\C4H6\BOITTIER\26-Aug-2020\0\\
 #p B2PLYPD3/Def2QZVP\\butadiene\\0,1\C,0,-3.855745,0.201262,0.047493\C
 ,0,-2.713149,-0.476499,-0.008626\C,0,-1.369122,0.0891,-0.029536\C,0,-0
 .246778,-0.667357,0.092065\H,0,-4.813866,-0.229973,0.163612\H,0,-3.810
 322,1.243353,0.229506\H,0,-2.832356,-1.576031,-0.268041\H,0,-1.442725,
 1.179715,-0.259715\H,0,-0.502702,-1.766077,0.274039\H,0,0.774804,-0.21
 5401,-0.11443\\Version=ES64L-G09RevD.01\State=1-A\HF=-155.6795119\MP2=
 -155.907338\RMSD=4.783e-09\PG=C01 [X(C4H6)]\\@

 Normal termination of Gaussian 09 at Wed Aug 26 15:37:49 2020.
