 Gaussian 09, Revision D.01,
 Gaussian 09:  ES64L-G09RevD.01 24-Apr-2013

 --------------------
 #p B2PLYPD3/Def2QZVP
 --------------------

 ---------
 butadiene
 ---------
 Symbolic Z-matrix:
 Charge =  0 Multiplicity = 1

                         Standard orientation:
 ---------------------------------------------------------------------
 Center     Atomic      Atomic             Coordinates (Angstroms)
 Number     Number       Type             X           Y           Z
 ---------------------------------------------------------------------
      1          6           0       -1.838279   -0.124290    0.049982
      2          6           0       -0.621830    0.444673   -0.028423
      3          6           0        0.621045   -0.363284   -0.046719
      4          6           0        1.874880    0.081624   -0.004050
      5          1           0       -2.874954    0.392975    0.023083
      6          1           0       -1.995144   -1.190680    0.013151
      7          1           0       -0.518254    1.541359   -0.030564
      8          1           0        0.372523   -1.487821   -0.137670
      9          1           0        2.174976    1.137754    0.030873
     10          1           0        2.625964   -0.625926    0.276389
 ---------------------------------------------------------------------

 SCF Done:  E(RB2PLYPD3) =  -155.684379584     A.U. after   11 cycles
 E2(B2PLYPD3) =    -0.2272587738D+00 E(B2PLYPD3) =    -0.15591163835793D+03

 The electronic state is 1-A.
 Alpha  occ. eigenvalues --  -10.63739 -10.63478 -10.62729 -10.61616  -0.92357
 Alpha  occ. eigenvalues --   -0.84760  -0.69828  -0.63358  -0.54288  -0.53123
 Alpha  occ. eigenvalues --   -0.47142  -0.44619  -0.40333  -0.37497  -0.27890
 Alpha virt. eigenvalues --    0.01399   0.06842   0.07226   0.07883   0.09221
 Alpha virt. eigenvalues --    0.11326   0.12509   0.14430   0.15489   0.16480
 Alpha virt. eigenvalues --    0.18942   0.19400   0.22006   0.22445   0.23658

 Mulliken charges:
               1
     1  C   -0.156507
     2  C   -0.040919
     3  C   -0.028150
     4  C   -0.169961
     5  H    0.073103
     6  H    0.059280
     7  H    0.061060
     8  H    0.051177
     9  H    0.066798
    10  H    0.084118
 Sum of Mulliken charges =   0.00000

 Dipole moment (field-independent basis, Debye):
    X=             -0.1173    Y=              0.0029    Z=              0.1132  Tot=              0.1630
 Quadrupole moment (field-independent basis, Debye-Ang):
   XX=            -23.3725   YY=            -23.3962   ZZ=            -29.3929
   XY=              0.6827   XZ=              0.7770   YZ=             -0.0689

 1\1\GINC-NODE27\SP\RB2PLYPD3-FC\def2QZVP\C4H6\BOITTIER\26-Aug-2020\0\\
 #p B2PLYPD3/Def2QZVP\\butadiene\\0,1\C,0,-3.840915,0.243868,-0.025268\
 C,0,-2.747304,-0.533943,0.067686\C,0,-1.378237,0.034669,0.053463\C,0,-
 0.226557,-0.631999,0.021031\H,0,-4.953969,-0.075075,0.023383\H,0,-3.80
 1111,1.321627,-0.024235\H,0,-2.844617,-1.630506,0.106847\H,0,-1.417453
 ,1.18802,0.106962\H,0,-0.123636,-1.72566,0.020987\H,0,0.637669,-0.0824
 38,-0.286373\\Version=ES64L-G09RevD.01\State=1-A\HF=-155.6843796\MP2=-
 155.9116384\RMSD=6.872e-09\PG=C01 [X(C4H6)]\\@

 Normal termination of Gaussian 09 at Wed Aug 26 15:39:52 2020.
