 Gaussian 09, Revision D.01,
 Gaussian 09:  ES64L-G09RevD.01 24-Apr-2013

 --------------------
 #p B2PLYPD3/Def2QZVP
 --------------------

 ---------
 butadiene
 ---------
 Symbolic Z-matrix:
 Charge =  0 Multiplicity = 1

                         Standard orientation:
 ---------------------------------------------------------------------
 Center     Atomic      Atomic             Coordinates (Angstroms)
 Number     Number       Type             X           Y           Z
 ---------------------------------------------------------------------
      1          6           0       -1.874179   -0.109980    0.025270
      2          6           0       -0.602793    0.399137   -0.070799
      3          6           0        0.608308   -0.431242   -0.076278
      4          6           0        1.848382    0.098554    0.058045
      5          1           0       -2.683622    0.593284    0.166049
      6          1           0       -2.070679   -1.153509    0.267492
      7          1           0       -0.373195    1.523047   -0.077194
      8          1           0        0.494450   -1.514113   -0.247135
      9          1           0        1.943415    1.239360    0.014792
     10          1           0        2.811328   -0.426884    0.258566
 ---------------------------------------------------------------------

 SCF Done:  E(RB2PLYPD3) =  -155.683556171     A.U. after   12 cycles
 E2(B2PLYPD3) =    -0.2286744418D+00 E(B2PLYPD3) =    -0.15591223061269D+03

 The electronic state is 1-A.
 Alpha  occ. eigenvalues --  -10.64242 -10.63463 -10.63100 -10.62237  -0.92173
 Alpha  occ. eigenvalues --   -0.83953  -0.69780  -0.63216  -0.54163  -0.52807
 Alpha  occ. eigenvalues --   -0.46469  -0.44865  -0.41209  -0.37194  -0.27271
 Alpha virt. eigenvalues --    0.00911   0.06854   0.07226   0.07799   0.08789
 Alpha virt. eigenvalues --    0.11408   0.12540   0.14239   0.15502   0.16301
 Alpha virt. eigenvalues --    0.18791   0.20087   0.21595   0.22237   0.23317

 Mulliken charges:
               1
     1  C   -0.174232
     2  C   -0.037036
     3  C   -0.032212
     4  C   -0.169575
     5  H    0.082681
     6  H    0.073694
     7  H    0.051079
     8  H    0.065890
     9  H    0.049991
    10  H    0.089720
 Sum of Mulliken charges =   0.00000

 Dipole moment (field-independent basis, Debye):
    X=              0.1434    Y=             -0.0252    Z=              0.2684  Tot=              0.3054
 Quadrupole moment (field-independent basis, Debye-Ang):
   XX=            -23.6954   YY=            -23.3530   ZZ=            -29.4954
   XY=              0.1863   XZ=             -0.3461   YZ=             -0.1365

 1\1\GINC-NODE26\SP\RB2PLYPD3-FC\def2QZVP\C4H6\BOITTIER\26-Aug-2020\0\\
 #p B2PLYPD3/Def2QZVP\\butadiene\\0,1\C,0,-3.873562,0.228458,-0.019134\
 C,0,-2.716119,-0.500743,0.096813\C,0,-1.374081,0.095199,0.086223\C,0,-
 0.251177,-0.654874,-0.027743\H,0,-4.797503,-0.319303,-0.145173\H,0,-3.
 876778,1.283367,-0.290045\H,0,-2.694976,-1.647075,0.134291\H,0,-1.2889
 ,1.184933,0.227603\H,0,-0.365429,-1.792326,0.046357\H,0,0.791349,-0.31
 9088,-0.237375\\Version=ES64L-G09RevD.01\State=1-A\HF=-155.6835562\MP2
 =-155.9122306\RMSD=3.574e-09\PG=C01 [X(C4H6)]\\@

 Normal termination of Gaussian 09 at Wed Aug 26 13:03:53 2020.
