 Gaussian 09, Revision D.01,
 Gaussian 09:  ES64L-G09RevD.01 24-Apr-2013

 --------------------
 #p B2PLYPD3/Def2QZVP
 --------------------

 ---------
 butadiene
 ---------
 Symbolic Z-matrix:
 Charge =  0 Multiplicity = 1

                         Standard orientation:
 ---------------------------------------------------------------------
 Center     Atomic      Atomic             Coordinates (Angstroms)
 Number     Number       Type             X           Y           Z
 ---------------------------------------------------------------------
      1          6           0       -1.857399    0.104733   -0.009230
      2          6           0       -0.610429   -0.382830   -0.005212
      3          6           0        0.603220    0.416928    0.009157
      4          6           0        1.842148   -0.128215    0.004872
      5          1           0       -2.676667   -0.611991    0.058107
      6          1           0       -2.064486    1.147570   -0.117986
      7          1           0       -0.430205   -1.453726    0.070467
      8          1           0        0.540002    1.497266    0.134412
      9          1           0        2.079414   -1.148357   -0.071872
     10          1           0        2.686703    0.505538   -0.070649
 ---------------------------------------------------------------------

 SCF Done:  E(RB2PLYPD3) =  -155.696486687     A.U. after   11 cycles
 E2(B2PLYPD3) =    -0.2260201769D+00 E(B2PLYPD3) =    -0.15592250686369D+03

 The electronic state is 1-A.
 Alpha  occ. eigenvalues --  -10.62866 -10.62582 -10.61532 -10.61166  -0.92740
 Alpha  occ. eigenvalues --   -0.84829  -0.70654  -0.64190  -0.54533  -0.54133
 Alpha  occ. eigenvalues --   -0.46412  -0.46172  -0.41325  -0.37783  -0.27470
 Alpha virt. eigenvalues --    0.01399   0.07024   0.07531   0.08012   0.09417
 Alpha virt. eigenvalues --    0.11667   0.12393   0.14977   0.15745   0.16077
 Alpha virt. eigenvalues --    0.18807   0.20024   0.21996   0.23099   0.23693

 Mulliken charges:
               1
     1  C   -0.182283
     2  C   -0.031871
     3  C   -0.037242
     4  C   -0.174742
     5  H    0.085428
     6  H    0.076753
     7  H    0.057848
     8  H    0.061309
     9  H    0.067016
    10  H    0.077784
 Sum of Mulliken charges =   0.00000

 Dipole moment (field-independent basis, Debye):
    X=              0.0610    Y=             -0.0071    Z=             -0.0125  Tot=              0.0626
 Quadrupole moment (field-independent basis, Debye-Ang):
   XX=            -23.5617   YY=            -23.0010   ZZ=            -29.2539
   XY=             -0.3406   XZ=             -0.2551   YZ=             -0.0740

 1\1\GINC-NODE13\SP\RB2PLYPD3-FC\def2QZVP\C4H6\BOITTIER\26-Aug-2020\0\\
 #p B2PLYPD3/Def2QZVP\\butadiene\\0,1\C,0,-3.857695,0.222344,0.012837\C
 ,0,-2.719392,-0.482327,0.032182\C,0,-1.381113,0.084823,0.021676\C,0,-0
 .261174,-0.675251,0.034519\H,0,-4.792633,-0.331992,0.10245\H,0,-3.8734
 73,1.281595,-0.128443\H,0,-2.73529,-1.56532,0.141275\H,0,-1.247314,1.1
 62111,0.113134\H,0,-0.212644,-1.723349,-0.010316\H,0,0.683591,-0.20730
 3,-0.060681\\Version=ES64L-G09RevD.01\State=1-A\HF=-155.6964867\MP2=-1
 55.9225069\RMSD=6.239e-09\PG=C01 [X(C4H6)]\\@

 Normal termination of Gaussian 09 at Wed Aug 26 08:54:32 2020.
