 Gaussian 09, Revision D.01,
 Gaussian 09:  ES64L-G09RevD.01 24-Apr-2013

 --------------------
 #p B2PLYPD3/Def2QZVP
 --------------------

 ---------
 butadiene
 ---------
 Symbolic Z-matrix:
 Charge =  0 Multiplicity = 1

                         Standard orientation:
 ---------------------------------------------------------------------
 Center     Atomic      Atomic             Coordinates (Angstroms)
 Number     Number       Type             X           Y           Z
 ---------------------------------------------------------------------
      1          6           0        1.824105    0.098982    0.027503
      2          6           0        0.597422   -0.375283   -0.043467
      3          6           0       -0.612638    0.402108   -0.053365
      4          6           0       -1.828569   -0.122391    0.048593
      5          1           0        2.710327   -0.557090    0.144295
      6          1           0        2.006374    1.167502    0.025044
      7          1           0        0.452192   -1.468234   -0.079127
      8          1           0       -0.453244    1.500942   -0.052658
      9          1           0       -1.944109   -1.201148   -0.010088
     10          1           0       -2.653462    0.537536    0.096953
 ---------------------------------------------------------------------

 SCF Done:  E(RB2PLYPD3) =  -155.697770927     A.U. after   11 cycles
 E2(B2PLYPD3) =    -0.2255774008D+00 E(B2PLYPD3) =    -0.15592334832786D+03

 The electronic state is 1-A.
 Alpha  occ. eigenvalues --  -10.62480 -10.62181 -10.61498 -10.61269  -0.93431
 Alpha  occ. eigenvalues --   -0.85265  -0.70153  -0.63531  -0.54856  -0.53750
 Alpha  occ. eigenvalues --   -0.46761  -0.45579  -0.40801  -0.38366  -0.27865
 Alpha virt. eigenvalues --    0.01896   0.07018   0.07254   0.08033   0.09854
 Alpha virt. eigenvalues --    0.11756   0.12341   0.14779   0.15748   0.16048
 Alpha virt. eigenvalues --    0.18694   0.20215   0.21518   0.22865   0.24035

 Mulliken charges:
               1
     1  C   -0.176651
     2  C   -0.014688
     3  C   -0.028523
     4  C   -0.178979
     5  H    0.085051
     6  H    0.062262
     7  H    0.044070
     8  H    0.045329
     9  H    0.070927
    10  H    0.091201
 Sum of Mulliken charges =   0.00000

 Dipole moment (field-independent basis, Debye):
    X=             -0.0157    Y=              0.0195    Z=              0.0447  Tot=              0.0513
 Quadrupole moment (field-independent basis, Debye-Ang):
   XX=            -23.6899   YY=            -23.1389   ZZ=            -29.1691
   XY=              0.0719   XZ=              0.1957   YZ=              0.0488

 1\1\GINC-NODE08\SP\RB2PLYPD3-FC\def2QZVP\C4H6\BOITTIER\26-Aug-2020\0\\
 #p B2PLYPD3/Def2QZVP\\butadiene\\0,1\C,0,-3.830846,0.210952,-0.014681\
 C,0,-2.709887,-0.474628,0.07558\C,0,-1.379279,0.071323,0.065713\C,0,-0
 .278315,-0.667116,-0.015343\H,0,-4.821242,-0.277581,-0.11424\H,0,-3.81
 7074,1.294363,-0.046212\H,0,-2.764426,-1.574171,0.145836\H,0,-1.337538
 ,1.180303,0.030157\H,0,-0.359445,-1.746621,0.07737\H,0,0.652128,-0.168
 89,-0.081202\\Version=ES64L-G09RevD.01\State=1-A\HF=-155.6977709\MP2=-
 155.9233483\RMSD=6.745e-09\PG=C01 [X(C4H6)]\\@

 Normal termination of Gaussian 09 at Wed Aug 26 08:51:39 2020.
