 Gaussian 09, Revision D.01,
 Gaussian 09:  ES64L-G09RevD.01 24-Apr-2013

 --------------------
 #p B2PLYPD3/Def2QZVP
 --------------------

 ---------
 butadiene
 ---------
 Symbolic Z-matrix:
 Charge =  0 Multiplicity = 1

                         Standard orientation:
 ---------------------------------------------------------------------
 Center     Atomic      Atomic             Coordinates (Angstroms)
 Number     Number       Type             X           Y           Z
 ---------------------------------------------------------------------
      1          6           0        1.838831   -0.102243   -0.014075
      2          6           0        0.586175    0.378625   -0.003930
      3          6           0       -0.608651   -0.416011    0.004825
      4          6           0       -1.833718    0.116442    0.003704
      5          1           0        2.742060    0.546158    0.046146
      6          1           0        2.020227   -1.145070   -0.082159
      7          1           0        0.468885    1.489238    0.088611
      8          1           0       -0.470703   -1.482014    0.128330
      9          1           0       -1.910002    1.177996   -0.065710
     10          1           0       -2.746291   -0.447187   -0.058361
 ---------------------------------------------------------------------

 SCF Done:  E(RB2PLYPD3) =  -155.697107839     A.U. after   11 cycles
 E2(B2PLYPD3) =    -0.2261377384D+00 E(B2PLYPD3) =    -0.15592324557754D+03

 The electronic state is 1-A.
 Alpha  occ. eigenvalues --  -10.62816 -10.62491 -10.61679 -10.61377  -0.93247
 Alpha  occ. eigenvalues --   -0.84824  -0.70378  -0.64003  -0.54822  -0.53839
 Alpha  occ. eigenvalues --   -0.46646  -0.45407  -0.41311  -0.38159  -0.27548
 Alpha virt. eigenvalues --    0.01469   0.07034   0.07418   0.07961   0.09559
 Alpha virt. eigenvalues --    0.11663   0.12624   0.14660   0.15653   0.16245
 Alpha virt. eigenvalues --    0.18739   0.20061   0.21893   0.22811   0.23781

 Mulliken charges:
               1
     1  C   -0.181119
     2  C   -0.021883
     3  C   -0.032969
     4  C   -0.170675
     5  H    0.084091
     6  H    0.065968
     7  H    0.047922
     8  H    0.058200
     9  H    0.062691
    10  H    0.087774
 Sum of Mulliken charges =   0.00000

 Dipole moment (field-independent basis, Debye):
    X=             -0.0395    Y=             -0.0406    Z=              0.0404  Tot=              0.0696
 Quadrupole moment (field-independent basis, Debye-Ang):
   XX=            -23.3021   YY=            -23.3088   ZZ=            -29.2388
   XY=             -0.0848   XZ=              0.2689   YZ=              0.0360

 1\1\GINC-NODE24\SP\RB2PLYPD3-FC\def2QZVP\C4H6\BOITTIER\26-Aug-2020\0\\
 #p B2PLYPD3/Def2QZVP\\butadiene\\0,1\C,0,-3.845355,0.213239,0.009959\C
 ,0,-2.699309,-0.484246,0.034022\C,0,-1.381234,0.082835,0.018903\C,0,-0
 .271651,-0.660747,0.033241\H,0,-4.849941,-0.260401,0.089612\H,0,-3.837
 016,1.269257,-0.088958\H,0,-2.782742,-1.594696,0.159411\H,0,-1.324924,
 1.159418,0.110793\H,0,-0.387522,-1.720308,-0.004696\H,0,0.726903,-0.27
 2197,-0.045744\\Version=ES64L-G09RevD.01\State=1-A\HF=-155.6971078\MP2
 =-155.9232456\RMSD=4.339e-09\PG=C01 [X(C4H6)]\\@

 Normal termination of Gaussian 09 at Wed Aug 26 10:51:47 2020.
