 Gaussian 09, Revision D.01,
 Gaussian 09:  ES64L-G09RevD.01 24-Apr-2013

 --------------------
 #p B2PLYPD3/Def2QZVP
 --------------------

 ---------
 butadiene
 ---------
 Symbolic Z-matrix:
 Charge =  0 Multiplicity = 1

                         Standard orientation:
 ---------------------------------------------------------------------
 Center     Atomic      Atomic             Coordinates (Angstroms)
 Number     Number       Type             X           Y           Z
 ---------------------------------------------------------------------
      1          6           0        1.825668   -0.130610    0.021019
      2          6           0        0.593376    0.429567   -0.035213
      3          6           0       -0.587220   -0.379201   -0.036788
      4          6           0       -1.819314    0.096857    0.004010
      5          1           0        2.730170    0.461471    0.044636
      6          1           0        1.926573   -1.172368    0.081687
      7          1           0        0.485693    1.499878    0.010244
      8          1           0       -0.526396   -1.496727   -0.059411
      9          1           0       -2.031071    1.148652    0.060814
     10          1           0       -2.660027   -0.540585    0.143866
 ---------------------------------------------------------------------

 SCF Done:  E(RB2PLYPD3) =  -155.696613950     A.U. after   11 cycles
 E2(B2PLYPD3) =    -0.2258273011D+00 E(B2PLYPD3) =    -0.15592244125129D+03

 The electronic state is 1-A.
 Alpha  occ. eigenvalues --  -10.62666 -10.62393 -10.61428 -10.60766  -0.93349
 Alpha  occ. eigenvalues --   -0.84953  -0.70469  -0.64152  -0.54728  -0.54443
 Alpha  occ. eigenvalues --   -0.46326  -0.45528  -0.41602  -0.38364  -0.27392
 Alpha virt. eigenvalues --    0.01583   0.07054   0.07410   0.08004   0.09587
 Alpha virt. eigenvalues --    0.11700   0.12600   0.14791   0.15797   0.16483
 Alpha virt. eigenvalues --    0.18693   0.20114   0.22049   0.22720   0.24102

 Mulliken charges:
               1
     1  C   -0.174679
     2  C   -0.041912
     3  C   -0.015315
     4  C   -0.172999
     5  H    0.084146
     6  H    0.070844
     7  H    0.062582
     8  H    0.048501
     9  H    0.058188
    10  H    0.080644
 Sum of Mulliken charges =   0.00000

 Dipole moment (field-independent basis, Debye):
    X=              0.0260    Y=              0.0106    Z=              0.2138  Tot=              0.2156
 Quadrupole moment (field-independent basis, Debye-Ang):
   XX=            -23.5805   YY=            -23.0411   ZZ=            -29.1785
   XY=             -0.0475   XZ=             -0.2218   YZ=             -0.0184

 1\1\GINC-NODE29\SP\RB2PLYPD3-FC\def2QZVP\C4H6\BOITTIER\26-Aug-2020\0\\
 #p B2PLYPD3/Def2QZVP\\butadiene\\0,1\C,0,-3.822393,0.244506,0.040785\C
 ,0,-2.711396,-0.530023,0.004818\C,0,-1.404326,0.052274,-0.015478\C,0,-
 0.2782,-0.636748,0.043162\H,0,-4.818789,-0.173891,0.077956\H,0,-3.7337
 08,1.288685,0.071558\H,0,-2.798392,-1.600473,0.08096\H,0,-1.262689,1.1
 61349,-0.069966\H,0,-0.25947,-1.707431,0.130491\H,0,0.663896,-0.157592
 ,0.167886\\Version=ES64L-G09RevD.01\State=1-A\HF=-155.696614\MP2=-155.
 9224413\RMSD=5.951e-09\PG=C01 [X(C4H6)]\\@

 Normal termination of Gaussian 09 at Wed Aug 26 09:08:55 2020.
