 Gaussian 09, Revision D.01,
 Gaussian 09:  ES64L-G09RevD.01 24-Apr-2013

 --------------------
 #p B2PLYPD3/Def2QZVP
 --------------------

 ---------
 butadiene
 ---------
 Symbolic Z-matrix:
 Charge =  0 Multiplicity = 1

                         Standard orientation:
 ---------------------------------------------------------------------
 Center     Atomic      Atomic             Coordinates (Angstroms)
 Number     Number       Type             X           Y           Z
 ---------------------------------------------------------------------
      1          6           0        1.885100    0.099049   -0.098511
      2          6           0        0.616831   -0.384318    0.038432
      3          6           0       -0.613204    0.425897    0.051719
      4          6           0       -1.855222   -0.125344   -0.052605
      5          1           0        2.680887   -0.598867    0.120442
      6          1           0        2.157391    1.169569   -0.077195
      7          1           0        0.437826   -1.506164    0.280439
      8          1           0       -0.574334    1.557838    0.243750
      9          1           0       -2.042236   -1.139488   -0.170173
     10          1           0       -2.860564    0.425407   -0.031475
 ---------------------------------------------------------------------

 SCF Done:  E(RB2PLYPD3) =  -155.678195416     A.U. after   11 cycles
 E2(B2PLYPD3) =    -0.2285382845D+00 E(B2PLYPD3) =    -0.15590673370074D+03

 The electronic state is 1-A.
 Alpha  occ. eigenvalues --  -10.64386 -10.64131 -10.62413 -10.62270  -0.91878
 Alpha  occ. eigenvalues --   -0.84172  -0.70188  -0.63027  -0.53906  -0.53004
 Alpha  occ. eigenvalues --   -0.46474  -0.44973  -0.40706  -0.36798  -0.27661
 Alpha virt. eigenvalues --    0.00860   0.06872   0.06999   0.07585   0.09184
 Alpha virt. eigenvalues --    0.11150   0.12500   0.14469   0.15687   0.16280
 Alpha virt. eigenvalues --    0.19025   0.19790   0.21767   0.22103   0.22948

 Mulliken charges:
               1
     1  C   -0.166832
     2  C   -0.044573
     3  C   -0.034301
     4  C   -0.166179
     5  H    0.080439
     6  H    0.070126
     7  H    0.058882
     8  H    0.062043
     9  H    0.067527
    10  H    0.072868
 Sum of Mulliken charges =   0.00000

 Dipole moment (field-independent basis, Debye):
    X=             -0.1448    Y=             -0.0327    Z=              0.3744  Tot=              0.4027
 Quadrupole moment (field-independent basis, Debye-Ang):
   XX=            -23.3164   YY=            -23.3840   ZZ=            -29.5355
   XY=              0.5965   XZ=              0.6567   YZ=             -0.0474

 1\1\GINC-NODE04\SP\RB2PLYPD3-FC\def2QZVP\C4H6\BOITTIER\26-Aug-2020\0\\
 #p B2PLYPD3/Def2QZVP\\butadiene\\0,1\C,0,-3.886132,0.217803,0.099966\C
 ,0,-2.723695,-0.486926,-0.014059\C,0,-1.369386,0.091446,-0.044764\C,0,
 -0.244982,-0.667775,0.084295\H,0,-4.79301,-0.33446,-0.102227\H,0,-3.96
 4097,1.31843,0.043833\H,0,-2.746478,-1.629806,-0.22011\H,0,-1.206628,1
 .2057,-0.271976\H,0,-0.240995,-1.694785,0.234357\H,0,0.842158,-0.30501
 5,0.052384\\Version=ES64L-G09RevD.01\State=1-A\HF=-155.6781954\MP2=-15
 5.9067337\RMSD=5.579e-09\PG=C01 [X(C4H6)]\\@

 Normal termination of Gaussian 09 at Wed Aug 26 15:42:57 2020.
