 Gaussian 09, Revision D.01,
 Gaussian 09:  ES64L-G09RevD.01 24-Apr-2013

 --------------------
 #p B2PLYPD3/Def2QZVP
 --------------------

 ---------
 butadiene
 ---------
 Symbolic Z-matrix:
 Charge =  0 Multiplicity = 1

                         Standard orientation:
 ---------------------------------------------------------------------
 Center     Atomic      Atomic             Coordinates (Angstroms)
 Number     Number       Type             X           Y           Z
 ---------------------------------------------------------------------
      1          6           0       -1.824110   -0.126581   -0.023642
      2          6           0       -0.605759    0.430049    0.018706
      3          6           0        0.608470   -0.394617    0.031023
      4          6           0        1.839907    0.102898   -0.040095
      5          1           0       -2.768580    0.453198   -0.003925
      6          1           0       -2.006023   -1.201517   -0.100993
      7          1           0       -0.501795    1.497073    0.063981
      8          1           0        0.493910   -1.446633    0.164211
      9          1           0        1.931805    1.146591    0.020303
     10          1           0        2.739635   -0.519203   -0.059525
 ---------------------------------------------------------------------

 SCF Done:  E(RB2PLYPD3) =  -155.696682315     A.U. after   11 cycles
 E2(B2PLYPD3) =    -0.2257019268D+00 E(B2PLYPD3) =    -0.15592238424218D+03

 The electronic state is 1-A.
 Alpha  occ. eigenvalues --  -10.62810 -10.62243 -10.62016 -10.61036  -0.92931
 Alpha  occ. eigenvalues --   -0.84877  -0.69721  -0.64657  -0.54655  -0.53804
 Alpha  occ. eigenvalues --   -0.46960  -0.45292  -0.41366  -0.37734  -0.27715
 Alpha virt. eigenvalues --    0.01893   0.07026   0.07503   0.08007   0.09312
 Alpha virt. eigenvalues --    0.11641   0.12594   0.14499   0.15746   0.16376
 Alpha virt. eigenvalues --    0.18814   0.20313   0.21743   0.22909   0.23769

 Mulliken charges:
               1
     1  C   -0.167098
     2  C   -0.044661
     3  C   -0.027586
     4  C   -0.178591
     5  H    0.076516
     6  H    0.065577
     7  H    0.063109
     8  H    0.062155
     9  H    0.064620
    10  H    0.085959
 Sum of Mulliken charges =   0.00000

 Dipole moment (field-independent basis, Debye):
    X=             -0.0436    Y=             -0.0162    Z=              0.1136  Tot=              0.1228
 Quadrupole moment (field-independent basis, Debye-Ang):
   XX=            -23.4221   YY=            -23.1434   ZZ=            -29.2371
   XY=              0.1004   XZ=              0.1297   YZ=              0.0806

 1\1\GINC-NODE18\SP\RB2PLYPD3-FC\def2QZVP\C4H6\BOITTIER\26-Aug-2020\0\\
 #p B2PLYPD3/Def2QZVP\\butadiene\\0,1\C,0,-3.82676,0.233684,0.042199\C,
 0,-2.726095,-0.530351,0.01401\C,0,-1.385319,0.066213,-0.017754\C,0,-0.
 260897,-0.639241,0.066058\H,0,-4.858877,-0.170362,0.036118\H,0,-3.8155
 92,1.325393,0.093292\H,0,-2.812466,-1.599729,-0.005248\H,0,-1.312709,1
 .118408,-0.176547\H,0,-0.355079,-1.683893,0.031108\H,0,0.734659,-0.185
 651,0.070801\\Version=ES64L-G09RevD.01\State=1-A\HF=-155.6966823\MP2=-
 155.9223842\RMSD=4.118e-09\PG=C01 [X(C4H6)]\\@

 Normal termination of Gaussian 09 at Wed Aug 26 08:46:49 2020.
