 Gaussian 09, Revision D.01,
 Gaussian 09:  ES64L-G09RevD.01 24-Apr-2013

 --------------------
 #p B2PLYPD3/Def2QZVP
 --------------------

 ---------
 butadiene
 ---------
 Symbolic Z-matrix:
 Charge =  0 Multiplicity = 1

                         Standard orientation:
 ---------------------------------------------------------------------
 Center     Atomic      Atomic             Coordinates (Angstroms)
 Number     Number       Type             X           Y           Z
 ---------------------------------------------------------------------
      1          6           0       -1.828178    0.110814    0.014968
      2          6           0       -0.596349   -0.403750   -0.031632
      3          6           0        0.592395    0.381184   -0.038797
      4          6           0        1.823099   -0.109777    0.022585
      5          1           0       -2.718328   -0.478606    0.004392
      6          1           0       -1.901638    1.205333    0.143177
      7          1           0       -0.442836   -1.471422    0.005086
      8          1           0        0.484725    1.461831   -0.070232
      9          1           0        1.976965   -1.192506    0.062722
     10          1           0        2.655319    0.604545    0.052110
 ---------------------------------------------------------------------

 SCF Done:  E(RB2PLYPD3) =  -155.697896864     A.U. after   11 cycles
 E2(B2PLYPD3) =    -0.2258771099D+00 E(B2PLYPD3) =    -0.15592377397382D+03

 The electronic state is 1-A.
 Alpha  occ. eigenvalues --  -10.62176 -10.61948 -10.61611 -10.61579  -0.93600
 Alpha  occ. eigenvalues --   -0.84991  -0.70129  -0.63980  -0.54551  -0.54075
 Alpha  occ. eigenvalues --   -0.46434  -0.45450  -0.41398  -0.38467  -0.27557
 Alpha virt. eigenvalues --    0.01655   0.07009   0.07335   0.08022   0.09816
 Alpha virt. eigenvalues --    0.11788   0.12368   0.14689   0.15693   0.16201
 Alpha virt. eigenvalues --    0.18596   0.20335   0.21419   0.22602   0.24295

 Mulliken charges:
               1
     1  C   -0.176553
     2  C   -0.029789
     3  C   -0.014487
     4  C   -0.182970
     5  H    0.091567
     6  H    0.060743
     7  H    0.050377
     8  H    0.046999
     9  H    0.067538
    10  H    0.086575
 Sum of Mulliken charges =   0.00000

 Dipole moment (field-independent basis, Debye):
    X=             -0.0166    Y=             -0.0148    Z=              0.1348  Tot=              0.1366
 Quadrupole moment (field-independent basis, Debye-Ang):
   XX=            -23.8090   YY=            -23.0881   ZZ=            -29.2029
   XY=              0.1553   XZ=             -0.0366   YZ=              0.0525

 1\1\GINC-NODE35\SP\RB2PLYPD3-FC\def2QZVP\C4H6\BOITTIER\26-Aug-2020\0\\
 #p B2PLYPD3/Def2QZVP\\butadiene\\0,1\C,0,-3.828717,0.22675,0.037808\C,
 0,-2.7103,-0.50298,0.006399\C,0,-1.399332,0.053758,-0.019868\C,0,-0.27
 7383,-0.64974,0.056045\H,0,-4.810743,-0.192183,0.041584\H,0,-3.702769,
 1.319496,0.137051\H,0,-2.752091,-1.579486,0.071423\H,0,-1.310089,1.134
 874,-0.079892\H,0,-0.321536,-1.741024,0.124885\H,0,0.6703,-0.097041,0.
 067845\\Version=ES64L-G09RevD.01\State=1-A\HF=-155.6978969\MP2=-155.92
 3774\RMSD=4.271e-09\PG=C01 [X(C4H6)]\\@

 Normal termination of Gaussian 09 at Wed Aug 26 08:10:04 2020.
