 Gaussian 09, Revision D.01,
 Gaussian 09:  ES64L-G09RevD.01 24-Apr-2013

 --------------------
 #p B2PLYPD3/Def2QZVP
 --------------------

 ---------
 butadiene
 ---------
 Symbolic Z-matrix:
 Charge =  0 Multiplicity = 1

                         Standard orientation:
 ---------------------------------------------------------------------
 Center     Atomic      Atomic             Coordinates (Angstroms)
 Number     Number       Type             X           Y           Z
 ---------------------------------------------------------------------
      1          6           0       -1.873695    0.062825    0.026750
      2          6           0       -0.588287   -0.349352   -0.013679
      3          6           0        0.614158    0.443515   -0.074423
      4          6           0        1.841184   -0.144210    0.004108
      5          1           0       -2.623236   -0.580845    0.008646
      6          1           0       -2.107643    1.127953   -0.049266
      7          1           0       -0.375960   -1.402371    0.097595
      8          1           0        0.482790    1.420538    0.159165
      9          1           0        2.011588   -1.209808   -0.034821
     10          1           0        2.652299    0.567866    0.162140
 ---------------------------------------------------------------------

 SCF Done:  E(RB2PLYPD3) =  -155.681448366     A.U. after   11 cycles
 E2(B2PLYPD3) =    -0.2264133787D+00 E(B2PLYPD3) =    -0.15590786174467D+03

 The electronic state is 1-A.
 Alpha  occ. eigenvalues --  -10.62414 -10.62271 -10.62014 -10.60639  -0.93064
 Alpha  occ. eigenvalues --   -0.84782  -0.71282  -0.64886  -0.54998  -0.54050
 Alpha  occ. eigenvalues --   -0.48006  -0.45349  -0.41676  -0.37481  -0.27280
 Alpha virt. eigenvalues --    0.00946   0.07118   0.07591   0.08241   0.09208
 Alpha virt. eigenvalues --    0.11787   0.12344   0.15007   0.15356   0.15990
 Alpha virt. eigenvalues --    0.18786   0.19585   0.21878   0.23533   0.24187

 Mulliken charges:
               1
     1  C   -0.189071
     2  C   -0.024373
     3  C   -0.043504
     4  C   -0.177525
     5  H    0.094111
     6  H    0.059676
     7  H    0.045121
     8  H    0.072207
     9  H    0.082715
    10  H    0.080641
 Sum of Mulliken charges =   0.00000

 Dipole moment (field-independent basis, Debye):
    X=              0.1349    Y=             -0.0284    Z=              0.2443  Tot=              0.2805
 Quadrupole moment (field-independent basis, Debye-Ang):
   XX=            -23.7069   YY=            -23.0721   ZZ=            -29.1577
   XY=             -0.3214   XZ=              0.5809   YZ=              0.2110

 1\1\GINC-NODE13\SP\RB2PLYPD3-FC\def2QZVP\C4H6\BOITTIER\26-Aug-2020\0\\
 #p B2PLYPD3/Def2QZVP\\butadiene\\0,1\C,0,-3.881233,0.196351,0.0462\C,0
 ,-2.695432,-0.449476,0.02209\C,0,-1.365864,0.103306,-0.047805\C,0,-0.2
 70472,-0.701474,0.050302\H,0,-4.73783,-0.296199,0.03691\H,0,-3.911827,
 1.284549,-0.053286\H,0,-2.683888,-1.520984,0.156443\H,0,-1.312792,1.09
 246,0.164687\H,0,-0.302153,-1.780733,0.034495\H,0,0.65911,-0.150235,0.
 198442\\Version=ES64L-G09RevD.01\State=1-A\HF=-155.6814484\MP2=-155.90
 78617\RMSD=8.750e-09\PG=C01 [X(C4H6)]\\@

 Normal termination of Gaussian 09 at Wed Aug 26 13:44:50 2020.
