 Gaussian 09, Revision D.01,
 Gaussian 09:  ES64L-G09RevD.01 24-Apr-2013

 --------------------
 #p B2PLYPD3/Def2QZVP
 --------------------

 ---------
 butadiene
 ---------
 Symbolic Z-matrix:
 Charge =  0 Multiplicity = 1

                         Standard orientation:
 ---------------------------------------------------------------------
 Center     Atomic      Atomic             Coordinates (Angstroms)
 Number     Number       Type             X           Y           Z
 ---------------------------------------------------------------------
      1          6           0       -1.853809    0.134083    0.051588
      2          6           0       -0.627275   -0.459223   -0.088500
      3          6           0        0.612984    0.356139   -0.022339
      4          6           0        1.867191   -0.092197    0.009576
      5          1           0       -2.830538   -0.407588    0.016917
      6          1           0       -1.882908    1.242446    0.179616
      7          1           0       -0.415690   -1.439993   -0.058592
      8          1           0        0.424345    1.416812   -0.147362
      9          1           0        2.062808   -1.109688    0.297879
     10          1           0        2.647438    0.665196    0.009589
 ---------------------------------------------------------------------

 SCF Done:  E(RB2PLYPD3) =  -155.683925303     A.U. after   12 cycles
 E2(B2PLYPD3) =    -0.2269665063D+00 E(B2PLYPD3) =    -0.15591089180923D+03

 The electronic state is 1-A.
 Alpha  occ. eigenvalues --  -10.63254 -10.62638 -10.62448 -10.61312  -0.92566
 Alpha  occ. eigenvalues --   -0.84503  -0.70111  -0.64764  -0.54044  -0.53531
 Alpha  occ. eigenvalues --   -0.47274  -0.45675  -0.40757  -0.37419  -0.27656
 Alpha virt. eigenvalues --    0.01224   0.06878   0.07487   0.08164   0.09026
 Alpha virt. eigenvalues --    0.11691   0.12306   0.14634   0.15513   0.16230
 Alpha virt. eigenvalues --    0.18344   0.19733   0.21371   0.22491   0.24425

 Mulliken charges:
               1
     1  C   -0.159124
     2  C   -0.059411
     3  C   -0.016219
     4  C   -0.189622
     5  H    0.087137
     6  H    0.063758
     7  H    0.071428
     8  H    0.050610
     9  H    0.068891
    10  H    0.082552
 Sum of Mulliken charges =   0.00000

 Dipole moment (field-independent basis, Debye):
    X=             -0.1427    Y=             -0.0016    Z=              0.2213  Tot=              0.2633
 Quadrupole moment (field-independent basis, Debye-Ang):
   XX=            -23.7368   YY=            -23.2491   ZZ=            -29.2813
   XY=             -0.1343   XZ=              0.2220   YZ=             -0.2409

 1\1\GINC-NODE22\SP\RB2PLYPD3-FC\def2QZVP\C4H6\BOITTIER\26-Aug-2020\0\\
 #p B2PLYPD3/Def2QZVP\\butadiene\\0,1\C,0,-3.850457,0.255651,0.067833\C
 ,0,-2.749862,-0.551879,-0.044447\C,0,-1.383833,0.031007,-0.003881\C,0,
 -0.229699,-0.632387,0.050349\H,0,-4.908262,-0.103964,0.049505\H,0,-3.6
 80955,1.35547,0.153697\H,0,-2.716635,-1.552807,0.023464\H,0,-1.380464,
 1.102788,-0.169764\H,0,-0.21808,-1.656751,0.377788\H,0,0.67319,-0.0269
 29,0.025038\\Version=ES64L-G09RevD.01\State=1-A\HF=-155.6839253\MP2=-1
 55.9108918\RMSD=3.765e-09\PG=C01 [X(C4H6)]\\@

 Normal termination of Gaussian 09 at Wed Aug 26 12:34:47 2020.
