 Gaussian 09, Revision D.01,
 Gaussian 09:  ES64L-G09RevD.01 24-Apr-2013

 --------------------
 #p B2PLYPD3/Def2QZVP
 --------------------

 ---------
 butadiene
 ---------
 Symbolic Z-matrix:
 Charge =  0 Multiplicity = 1

                         Standard orientation:
 ---------------------------------------------------------------------
 Center     Atomic      Atomic             Coordinates (Angstroms)
 Number     Number       Type             X           Y           Z
 ---------------------------------------------------------------------
      1          6           0       -1.825339   -0.104005    0.020238
      2          6           0       -0.590895    0.425926   -0.047368
      3          6           0        0.581177   -0.395968   -0.031015
      4          6           0        1.835571    0.091680    0.048234
      5          1           0       -2.766126    0.435489    0.165851
      6          1           0       -1.955430   -1.181877    0.014299
      7          1           0       -0.452712    1.465992   -0.079924
      8          1           0        0.421332   -1.439318   -0.083735
      9          1           0        2.053156    1.165214   -0.000889
     10          1           0        2.696697   -0.551298    0.043866
 ---------------------------------------------------------------------

 SCF Done:  E(RB2PLYPD3) =  -155.696877469     A.U. after   11 cycles
 E2(B2PLYPD3) =    -0.2261273289D+00 E(B2PLYPD3) =    -0.15592300479834D+03

 The electronic state is 1-A.
 Alpha  occ. eigenvalues --  -10.62303 -10.62231 -10.61871 -10.61677  -0.93352
 Alpha  occ. eigenvalues --   -0.84434  -0.70458  -0.65000  -0.54917  -0.53693
 Alpha  occ. eigenvalues --   -0.46888  -0.45296  -0.41814  -0.38097  -0.27246
 Alpha virt. eigenvalues --    0.01368   0.07013   0.07464   0.08189   0.09431
 Alpha virt. eigenvalues --    0.11627   0.12656   0.14660   0.15951   0.16318
 Alpha virt. eigenvalues --    0.18798   0.20418   0.21824   0.22996   0.23610

 Mulliken charges:
               1
     1  C   -0.169935
     2  C   -0.030390
     3  C   -0.031881
     4  C   -0.178592
     5  H    0.081687
     6  H    0.057213
     7  H    0.064717
     8  H    0.061555
     9  H    0.063192
    10  H    0.082433
 Sum of Mulliken charges =   0.00000

 Dipole moment (field-independent basis, Debye):
    X=             -0.0469    Y=             -0.0082    Z=             -0.0048  Tot=              0.0478
 Quadrupole moment (field-independent basis, Debye-Ang):
   XX=            -23.3706   YY=            -23.2100   ZZ=            -29.2342
   XY=              0.2852   XZ=             -0.4457   YZ=              0.0488

 1\1\GINC-NODE08\SP\RB2PLYPD3-FC\def2QZVP\C4H6\BOITTIER\26-Aug-2020\0\\
 #p B2PLYPD3/Def2QZVP\\butadiene\\0,1\C,0,-3.825436,0.229698,-0.009282\
 C,0,-2.711973,-0.519499,0.081015\C,0,-1.406783,0.067681,0.045989\C,0,-
 0.265869,-0.648263,-0.011676\H,0,-4.850637,-0.128477,-0.143483\H,0,-3.
 751471,1.312536,-0.036792\H,0,-2.770896,-1.565544,0.145896\H,0,-1.3684
 88,1.123634,0.066127\H,0,-0.253051,-1.741514,0.071207\H,0,0.700391,-0.
 177934,-0.022225\\Version=ES64L-G09RevD.01\State=1-A\HF=-155.6968775\M
 P2=-155.9230048\RMSD=3.993e-09\PG=C01 [X(C4H6)]\\@

 Normal termination of Gaussian 09 at Wed Aug 26 10:40:03 2020.
