 Gaussian 09, Revision D.01,
 Gaussian 09:  ES64L-G09RevD.01 24-Apr-2013

 --------------------
 #p B2PLYPD3/Def2QZVP
 --------------------

 ---------
 butadiene
 ---------
 Symbolic Z-matrix:
 Charge =  0 Multiplicity = 1

                         Standard orientation:
 ---------------------------------------------------------------------
 Center     Atomic      Atomic             Coordinates (Angstroms)
 Number     Number       Type             X           Y           Z
 ---------------------------------------------------------------------
      1          6           0        1.840334   -0.118676    0.020275
      2          6           0        0.613622    0.404541   -0.011275
      3          6           0       -0.615415   -0.397212   -0.028530
      4          6           0       -1.842195    0.113505    0.007939
      5          1           0        2.703106    0.501226    0.013288
      6          1           0        2.009665   -1.176663   -0.033118
      7          1           0        0.490553    1.489653   -0.005484
      8          1           0       -0.507214   -1.463534    0.037626
      9          1           0       -1.968895    1.177616    0.009883
     10          1           0       -2.705294   -0.541253    0.047349
 ---------------------------------------------------------------------

 SCF Done:  E(RB2PLYPD3) =  -155.700786167     A.U. after   11 cycles
 E2(B2PLYPD3) =    -0.2252949548D+00 E(B2PLYPD3) =    -0.15592608112133D+03

 The electronic state is 1-A.
 Alpha  occ. eigenvalues --  -10.62699 -10.62281 -10.61275 -10.61169  -0.92870
 Alpha  occ. eigenvalues --   -0.85179  -0.70061  -0.64183  -0.54612  -0.54210
 Alpha  occ. eigenvalues --   -0.46673  -0.45875  -0.41164  -0.37997  -0.27839
 Alpha virt. eigenvalues --    0.01916   0.07032   0.07482   0.08082   0.09541
 Alpha virt. eigenvalues --    0.11729   0.12462   0.14725   0.15778   0.16180
 Alpha virt. eigenvalues --    0.18819   0.20379   0.21596   0.23076   0.24009

 Mulliken charges:
               1
     1  C   -0.174449
     2  C   -0.035862
     3  C   -0.027499
     4  C   -0.178285
     5  H    0.085300
     6  H    0.067096
     7  H    0.053014
     8  H    0.056108
     9  H    0.067114
    10  H    0.087463
 Sum of Mulliken charges =   0.00000

 Dipole moment (field-independent basis, Debye):
    X=              0.0188    Y=             -0.0139    Z=              0.0325  Tot=              0.0400
 Quadrupole moment (field-independent basis, Debye-Ang):
   XX=            -23.5107   YY=            -23.0329   ZZ=            -29.2231
   XY=             -0.0433   XZ=             -0.2378   YZ=             -0.0324

 1\1\GINC-NODE04\SP\RB2PLYPD3-FC\def2QZVP\C4H6\BOITTIER\26-Aug-2020\0\\
 #p B2PLYPD3/Def2QZVP\\butadiene\\0,1\C,0,-3.84305,0.226945,0.036848\C,
 0,-2.727851,-0.504987,0.023462\C,0,-1.376724,0.066792,-0.01066\C,0,-0.
 259173,-0.65104,0.043618\H,0,-4.801615,-0.231112,0.043218\H,0,-3.82324
 6,1.296409,-0.045096\H,0,-2.798032,-1.594254,0.058376\H,0,-1.295135,1.
 136867,0.026897\H,0,-0.322081,-1.720385,0.074144\H,0,0.705898,-0.15787
 9,0.06874\\Version=ES64L-G09RevD.01\State=1-A\HF=-155.7007862\MP2=-155
 .9260811\RMSD=3.612e-09\PG=C01 [X(C4H6)]\\@

 Normal termination of Gaussian 09 at Wed Aug 26 09:33:08 2020.
