 Gaussian 09, Revision D.01,
 Gaussian 09:  ES64L-G09RevD.01 24-Apr-2013

 --------------------
 #p B2PLYPD3/Def2QZVP
 --------------------

 ---------
 butadiene
 ---------
 Symbolic Z-matrix:
 Charge =  0 Multiplicity = 1

                         Standard orientation:
 ---------------------------------------------------------------------
 Center     Atomic      Atomic             Coordinates (Angstroms)
 Number     Number       Type             X           Y           Z
 ---------------------------------------------------------------------
      1          6           0        1.834941    0.096597   -0.027855
      2          6           0        0.601117   -0.381513    0.024300
      3          6           0       -0.599878    0.417637    0.031657
      4          6           0       -1.836295   -0.122817   -0.016027
      5          1           0        2.686502   -0.544428   -0.017278
      6          1           0        1.976535    1.171212    0.014267
      7          1           0        0.469414   -1.466707    0.018723
      8          1           0       -0.460809    1.487897   -0.023097
      9          1           0       -1.933643   -1.184630   -0.028517
     10          1           0       -2.737309    0.477232   -0.036546
 ---------------------------------------------------------------------

 SCF Done:  E(RB2PLYPD3) =  -155.700050085     A.U. after   11 cycles
 E2(B2PLYPD3) =    -0.2257508762D+00 E(B2PLYPD3) =    -0.15592580096091D+03

 The electronic state is 1-A.
 Alpha  occ. eigenvalues --  -10.62638 -10.62214 -10.61654 -10.61108  -0.93206
 Alpha  occ. eigenvalues --   -0.84946  -0.70327  -0.64129  -0.54738  -0.54086
 Alpha  occ. eigenvalues --   -0.46713  -0.45653  -0.41375  -0.38232  -0.27577
 Alpha virt. eigenvalues --    0.01620   0.07050   0.07426   0.08091   0.09630
 Alpha virt. eigenvalues --    0.11727   0.12555   0.14688   0.15822   0.16149
 Alpha virt. eigenvalues --    0.18731   0.20370   0.21619   0.23038   0.24016

 Mulliken charges:
               1
     1  C   -0.179475
     2  C   -0.017421
     3  C   -0.034743
     4  C   -0.177304
     5  H    0.089439
     6  H    0.061676
     7  H    0.046862
     8  H    0.055163
     9  H    0.067643
    10  H    0.088159
 Sum of Mulliken charges =   0.00000

 Dipole moment (field-independent basis, Debye):
    X=             -0.0228    Y=             -0.0115    Z=             -0.0252  Tot=              0.0358
 Quadrupole moment (field-independent basis, Debye-Ang):
   XX=            -23.4893   YY=            -23.1363   ZZ=            -29.2417
   XY=             -0.0089   XZ=              0.1829   YZ=             -0.0081

 1\1\GINC-NODE25\SP\RB2PLYPD3-FC\def2QZVP\C4H6\BOITTIER\26-Aug-2020\0\\
 #p B2PLYPD3/Def2QZVP\\butadiene\\0,1\C,0,-3.839975,0.210026,0.045256\C
 ,0,-2.712378,-0.483517,0.01126\C,0,-1.387254,0.086038,-0.015901\C,0,-0
 .268104,-0.666304,0.051752\H,0,-4.792963,-0.267428,0.050932\H,0,-3.786
 073,1.29085,-0.029137\H,0,-2.777991,-1.57405,0.049405\H,0,-1.331442,1.
 165005,0.006676\H,0,-0.363292,-1.727464,0.096004\H,0,0.726182,-0.23773
 7,0.057387\\Version=ES64L-G09RevD.01\State=1-A\HF=-155.7000501\MP2=-15
 5.925801\RMSD=5.815e-09\PG=C01 [X(C4H6)]\\@

 Normal termination of Gaussian 09 at Wed Aug 26 20:49:51 2020.
