 Gaussian 09, Revision D.01,
 Gaussian 09:  ES64L-G09RevD.01 24-Apr-2013

 --------------------
 #p B2PLYPD3/Def2QZVP
 --------------------

 ---------
 butadiene
 ---------
 Symbolic Z-matrix:
 Charge =  0 Multiplicity = 1

                         Standard orientation:
 ---------------------------------------------------------------------
 Center     Atomic      Atomic             Coordinates (Angstroms)
 Number     Number       Type             X           Y           Z
 ---------------------------------------------------------------------
      1          6           0        1.836870   -0.119542   -0.017156
      2          6           0        0.611383    0.395224    0.011762
      3          6           0       -0.601442   -0.387474    0.020205
      4          6           0       -1.841969    0.109302   -0.027767
      5          1           0        2.703977    0.545167    0.023125
      6          1           0        2.029510   -1.181880   -0.098042
      7          1           0        0.503710    1.496137    0.067937
      8          1           0       -0.530851   -1.489491    0.120222
      9          1           0       -2.019954    1.163379   -0.026443
     10          1           0       -2.715446   -0.518368   -0.009059
 ---------------------------------------------------------------------

 SCF Done:  E(RB2PLYPD3) =  -155.699450548     A.U. after   11 cycles
 E2(B2PLYPD3) =    -0.2258118760D+00 E(B2PLYPD3) =    -0.15592526242426D+03

 The electronic state is 1-A.
 Alpha  occ. eigenvalues --  -10.62726 -10.62661 -10.61611 -10.61278  -0.93021
 Alpha  occ. eigenvalues --   -0.85036  -0.70221  -0.63626  -0.54436  -0.54260
 Alpha  occ. eigenvalues --   -0.46574  -0.45352  -0.41081  -0.38132  -0.27714
 Alpha virt. eigenvalues --    0.01669   0.07018   0.07375   0.07897   0.09747
 Alpha virt. eigenvalues --    0.11623   0.12389   0.14739   0.15849   0.16210
 Alpha virt. eigenvalues --    0.18806   0.20437   0.21626   0.22464   0.23826

 Mulliken charges:
               1
     1  C   -0.173592
     2  C   -0.031064
     3  C   -0.027185
     4  C   -0.175782
     5  H    0.083533
     6  H    0.071161
     7  H    0.052903
     8  H    0.051292
     9  H    0.063416
    10  H    0.085319
 Sum of Mulliken charges =   0.00000

 Dipole moment (field-independent basis, Debye):
    X=              0.0035    Y=              0.0044    Z=              0.0847  Tot=              0.0849
 Quadrupole moment (field-independent basis, Debye-Ang):
   XX=            -23.4095   YY=            -23.1338   ZZ=            -29.2590
   XY=             -0.0805   XZ=             -0.0882   YZ=              0.0544

 1\1\GINC-NODE19\SP\RB2PLYPD3-FC\def2QZVP\C4H6\BOITTIER\26-Aug-2020\0\\
 #p B2PLYPD3/Def2QZVP\\butadiene\\0,1\C,0,-3.838139,0.227287,0.00113\C,
 0,-2.723194,-0.495332,0.049683\C,0,-1.390835,0.059887,0.036172\C,0,-0.
 258141,-0.650161,0.007337\H,0,-4.809191,-0.271586,0.060451\H,0,-3.8397
 13,1.303809,-0.114245\H,0,-2.812156,-1.595531,0.141377\H,0,-1.264692,1
 .159595,0.10065\H,0,-0.269777,-1.718506,0.042889\H,0,0.712801,-0.18696
 4,0.008178\\Version=ES64L-G09RevD.01\State=1-A\HF=-155.6994505\MP2=-15
 5.9252624\RMSD=2.748e-09\PG=C01 [X(C4H6)]\\@

 Normal termination of Gaussian 09 at Wed Aug 26 16:35:10 2020.
