 Gaussian 09, Revision D.01,
 Gaussian 09:  ES64L-G09RevD.01 24-Apr-2013

 --------------------
 #p B2PLYPD3/Def2QZVP
 --------------------

 ---------
 butadiene
 ---------
 Symbolic Z-matrix:
 Charge =  0 Multiplicity = 1

                         Standard orientation:
 ---------------------------------------------------------------------
 Center     Atomic      Atomic             Coordinates (Angstroms)
 Number     Number       Type             X           Y           Z
 ---------------------------------------------------------------------
      1          6           0       -1.821885   -0.127872    0.052864
      2          6           0       -0.595733    0.433492   -0.039246
      3          6           0        0.609946   -0.383335   -0.048412
      4          6           0        1.841438    0.092914    0.026638
      5          1           0       -2.744210    0.448145    0.031158
      6          1           0       -1.901319   -1.250915   -0.012709
      7          1           0       -0.566524    1.499046   -0.029515
      8          1           0        0.386977   -1.414254   -0.085346
      9          1           0        1.918362    1.169546   -0.006418
     10          1           0        2.704118   -0.542762    0.151771
 ---------------------------------------------------------------------

 SCF Done:  E(RB2PLYPD3) =  -155.694780264     A.U. after   11 cycles
 E2(B2PLYPD3) =    -0.2260693374D+00 E(B2PLYPD3) =    -0.15592084960127D+03

 The electronic state is 1-A.
 Alpha  occ. eigenvalues --  -10.62532 -10.62181 -10.62057 -10.61260  -0.93197
 Alpha  occ. eigenvalues --   -0.84854  -0.69742  -0.64570  -0.54639  -0.53886
 Alpha  occ. eigenvalues --   -0.46606  -0.45155  -0.41640  -0.38029  -0.27627
 Alpha virt. eigenvalues --    0.01755   0.07035   0.07426   0.08103   0.09415
 Alpha virt. eigenvalues --    0.11723   0.12555   0.14404   0.15792   0.16290
 Alpha virt. eigenvalues --    0.18637   0.19896   0.21513   0.23336   0.24059

 Mulliken charges:
               1
     1  C   -0.172911
     2  C   -0.035404
     3  C   -0.023995
     4  C   -0.179279
     5  H    0.084560
     6  H    0.053396
     7  H    0.056515
     8  H    0.057257
     9  H    0.067163
    10  H    0.092700
 Sum of Mulliken charges =   0.00000

 Dipole moment (field-independent basis, Debye):
    X=             -0.0303    Y=              0.0264    Z=             -0.0146  Tot=              0.0427
 Quadrupole moment (field-independent basis, Debye-Ang):
   XX=            -23.6600   YY=            -23.1406   ZZ=            -29.2617
   XY=             -0.2306   XZ=              0.3844   YZ=             -0.0189

 1\1\GINC-NODE06\SP\RB2PLYPD3-FC\def2QZVP\C4H6\BOITTIER\26-Aug-2020\0\\
 #p B2PLYPD3/Def2QZVP\\butadiene\\0,1\C,0,-3.826092,0.234561,-0.030584\
 C,0,-2.718506,-0.53261,0.077886\C,0,-1.386903,0.056833,0.059371\C,0,-0
 .260108,-0.632796,-0.001964\H,0,-4.835874,-0.167414,0.010719\H,0,-3.70
 4375,1.355337,-0.000888\H,0,-2.879052,-1.586168,0.102227\H,0,-1.422995
 ,1.111609,0.063574\H,0,-0.375368,-1.704393,0.065436\H,0,0.700855,-0.16
 4776,-0.148475\\Version=ES64L-G09RevD.01\State=1-A\HF=-155.6947803\MP2
 =-155.9208496\RMSD=7.088e-09\PG=C01 [X(C4H6)]\\@

 Normal termination of Gaussian 09 at Wed Aug 26 09:54:57 2020.
