 Gaussian 09, Revision D.01,
 Gaussian 09:  ES64L-G09RevD.01 24-Apr-2013

 --------------------
 #p B2PLYPD3/Def2QZVP
 --------------------

 ---------
 butadiene
 ---------
 Symbolic Z-matrix:
 Charge =  0 Multiplicity = 1

                         Standard orientation:
 ---------------------------------------------------------------------
 Center     Atomic      Atomic             Coordinates (Angstroms)
 Number     Number       Type             X           Y           Z
 ---------------------------------------------------------------------
      1          6           0        1.843132    0.113213   -0.028423
      2          6           0        0.612813   -0.410222    0.013674
      3          6           0       -0.622350    0.380537    0.007248
      4          6           0       -1.841444   -0.110614   -0.000956
      5          1           0        2.752987   -0.446284    0.054372
      6          1           0        1.951948    1.225676   -0.100622
      7          1           0        0.513034   -1.503068    0.100113
      8          1           0       -0.508116    1.452359    0.158668
      9          1           0       -2.026256   -1.134433   -0.114728
     10          1           0       -2.636504    0.568269   -0.047058
 ---------------------------------------------------------------------

 SCF Done:  E(RB2PLYPD3) =  -155.696440074     A.U. after   11 cycles
 E2(B2PLYPD3) =    -0.2252663618D+00 E(B2PLYPD3) =    -0.15592170643573D+03

 The electronic state is 1-A.
 Alpha  occ. eigenvalues --  -10.62823 -10.62276 -10.61863 -10.60381  -0.92966
 Alpha  occ. eigenvalues --   -0.85395  -0.70167  -0.63818  -0.54889  -0.54262
 Alpha  occ. eigenvalues --   -0.46996  -0.45445  -0.40943  -0.37913  -0.28038
 Alpha virt. eigenvalues --    0.01925   0.07085   0.07453   0.08030   0.09574
 Alpha virt. eigenvalues --    0.11667   0.12493   0.14704   0.15551   0.16368
 Alpha virt. eigenvalues --    0.18779   0.19806   0.21902   0.22853   0.24033

 Mulliken charges:
               1
     1  C   -0.169607
     2  C   -0.041064
     3  C   -0.022867
     4  C   -0.176379
     5  H    0.090548
     6  H    0.056422
     7  H    0.052700
     8  H    0.055234
     9  H    0.070150
    10  H    0.084863
 Sum of Mulliken charges =   0.00000

 Dipole moment (field-independent basis, Debye):
    X=             -0.0039    Y=             -0.0173    Z=              0.0487  Tot=              0.0518
 Quadrupole moment (field-independent basis, Debye-Ang):
   XX=            -23.4005   YY=            -23.1866   ZZ=            -29.1281
   XY=             -0.0065   XZ=              0.3480   YZ=              0.0247

 1\1\GINC-NODE28\SP\RB2PLYPD3-FC\def2QZVP\C4H6\BOITTIER\26-Aug-2020\0\\
 #p B2PLYPD3/Def2QZVP\\butadiene\\0,1\C,0,-3.846871,0.224288,0.039838\C
 ,0,-2.727958,-0.508553,0.019352\C,0,-1.372877,0.052301,0.006519\C,0,-0
 .25927,-0.645223,0.035257\H,0,-4.841108,-0.168674,-0.029447\H,0,-3.758
 069,1.340248,0.076936\H,0,-2.82222,-1.604068,-0.032629\H,0,-1.296836,1
 .122212,-0.178651\H,0,-0.25743,-1.681506,0.181609\H,0,0.642937,-0.1157
 46,0.063659\\Version=ES64L-G09RevD.01\State=1-A\HF=-155.6964401\MP2=-1
 55.9217064\RMSD=3.563e-09\PG=C01 [X(C4H6)]\\@

 Normal termination of Gaussian 09 at Wed Aug 26 10:53:03 2020.
