 Gaussian 09, Revision D.01,
 Gaussian 09:  ES64L-G09RevD.01 24-Apr-2013

 --------------------
 #p B2PLYPD3/Def2QZVP
 --------------------

 ---------
 butadiene
 ---------
 Symbolic Z-matrix:
 Charge =  0 Multiplicity = 1

                         Standard orientation:
 ---------------------------------------------------------------------
 Center     Atomic      Atomic             Coordinates (Angstroms)
 Number     Number       Type             X           Y           Z
 ---------------------------------------------------------------------
      1          6           0       -1.858417   -0.140614    0.042104
      2          6           0       -0.615271    0.422954   -0.038789
      3          6           0        0.625303   -0.344993   -0.065275
      4          6           0        1.848027    0.097047   -0.008624
      5          1           0       -2.766247    0.497569   -0.036625
      6          1           0       -2.026046   -1.135356    0.126207
      7          1           0       -0.410605    1.439886    0.050800
      8          1           0        0.481921   -1.404515   -0.081095
      9          1           0        2.155443    1.118290    0.131149
     10          1           0        2.567678   -0.722232    0.233072
 ---------------------------------------------------------------------

 SCF Done:  E(RB2PLYPD3) =  -155.682817566     A.U. after   11 cycles
 E2(B2PLYPD3) =    -0.2258225370D+00 E(B2PLYPD3) =    -0.15590864010333D+03

 The electronic state is 1-A.
 Alpha  occ. eigenvalues --  -10.62669 -10.61922 -10.61721 -10.61199  -0.93186
 Alpha  occ. eigenvalues --   -0.85171  -0.70958  -0.64616  -0.54639  -0.54000
 Alpha  occ. eigenvalues --   -0.47182  -0.46450  -0.40203  -0.37990  -0.27761
 Alpha virt. eigenvalues --    0.01237   0.06775   0.07623   0.08111   0.09668
 Alpha virt. eigenvalues --    0.11706   0.12392   0.15122   0.15445   0.16345
 Alpha virt. eigenvalues --    0.18603   0.19620   0.22208   0.22406   0.24353

 Mulliken charges:
               1
     1  C   -0.176544
     2  C   -0.053728
     3  C   -0.008713
     4  C   -0.169094
     5  H    0.080872
     6  H    0.077631
     7  H    0.066120
     8  H    0.049966
     9  H    0.064532
    10  H    0.068958
 Sum of Mulliken charges =   0.00000

 Dipole moment (field-independent basis, Debye):
    X=             -0.1103    Y=             -0.0295    Z=              0.3216  Tot=              0.3413
 Quadrupole moment (field-independent basis, Debye-Ang):
   XX=            -23.9711   YY=            -23.0839   ZZ=            -29.0712
   XY=              0.5822   XZ=              0.7488   YZ=             -0.1087

 1\1\GINC-NODE26\SP\RB2PLYPD3-FC\def2QZVP\C4H6\BOITTIER\26-Aug-2020\0\\
 #p B2PLYPD3/Def2QZVP\\butadiene\\0,1\C,0,-3.854188,0.261032,-0.023722\
 C,0,-2.732697,-0.514908,0.074963\C,0,-1.37344,0.015943,0.065653\C,0,-0
 .251577,-0.642227,0.022091\H,0,-4.861565,-0.19851,0.084192\H,0,-3.8400
 06,1.265642,-0.147179\H,0,-2.716404,-1.554795,0.025619\H,0,-1.32258,1.
 083705,0.039334\H,0,-0.135575,-1.706923,-0.077623\H,0,0.601688,0.02303
 4,-0.255219\\Version=ES64L-G09RevD.01\State=1-A\HF=-155.6828176\MP2=-1
 55.9086401\RMSD=6.618e-09\PG=C01 [X(C4H6)]\\@

 Normal termination of Gaussian 09 at Wed Aug 26 13:05:50 2020.
