 Gaussian 09, Revision D.01,
 Gaussian 09:  ES64L-G09RevD.01 24-Apr-2013

 --------------------
 #p B2PLYPD3/Def2QZVP
 --------------------

 ---------
 butadiene
 ---------
 Symbolic Z-matrix:
 Charge =  0 Multiplicity = 1

                         Standard orientation:
 ---------------------------------------------------------------------
 Center     Atomic      Atomic             Coordinates (Angstroms)
 Number     Number       Type             X           Y           Z
 ---------------------------------------------------------------------
      1          6           0       -1.816245   -0.133231   -0.030265
      2          6           0       -0.605435    0.421073    0.010569
      3          6           0        0.598476   -0.390979   -0.001534
      4          6           0        1.827822    0.097407   -0.017726
      5          1           0       -2.652776    0.512837   -0.014873
      6          1           0       -1.918279   -1.211981    0.064565
      7          1           0       -0.541632    1.558233    0.136518
      8          1           0        0.411457   -1.450286    0.044162
      9          1           0        2.007959    1.182878   -0.060373
     10          1           0        2.665559   -0.557301    0.063734
 ---------------------------------------------------------------------

 SCF Done:  E(RB2PLYPD3) =  -155.695186930     A.U. after   11 cycles
 E2(B2PLYPD3) =    -0.2257767763D+00 E(B2PLYPD3) =    -0.15592096370674D+03

 The electronic state is 1-A.
 Alpha  occ. eigenvalues --  -10.62856 -10.62184 -10.61258 -10.61132  -0.93187
 Alpha  occ. eigenvalues --   -0.85172  -0.69919  -0.63438  -0.54601  -0.54061
 Alpha  occ. eigenvalues --   -0.46399  -0.45560  -0.41254  -0.38043  -0.27753
 Alpha virt. eigenvalues --    0.01986   0.07080   0.07163   0.08035   0.09521
 Alpha virt. eigenvalues --    0.11784   0.12331   0.14689   0.15652   0.16235
 Alpha virt. eigenvalues --    0.18627   0.20151   0.21581   0.22999   0.24216

 Mulliken charges:
               1
     1  C   -0.180902
     2  C   -0.023665
     3  C   -0.029049
     4  C   -0.176790
     5  H    0.086669
     6  H    0.067109
     7  H    0.047357
     8  H    0.053946
     9  H    0.068102
    10  H    0.087223
 Sum of Mulliken charges =   0.00000

 Dipole moment (field-independent basis, Debye):
    X=             -0.0237    Y=             -0.0108    Z=              0.2237  Tot=              0.2252
 Quadrupole moment (field-independent basis, Debye-Ang):
   XX=            -23.9051   YY=            -22.9375   ZZ=            -29.2214
   XY=              0.0047   XZ=             -0.0708   YZ=             -0.1004

 1\1\GINC-NODE20\SP\RB2PLYPD3-FC\def2QZVP\C4H6\BOITTIER\26-Aug-2020\0\\
 #p B2PLYPD3/Def2QZVP\\butadiene\\0,1\C,0,-3.81518,0.243002,0.040964\C,
 0,-2.724105,-0.521275,0.020565\C,0,-1.393611,0.060678,0.011039\C,0,-0.
 272272,-0.640375,0.045662\H,0,-4.754421,-0.242021,0.04312\H,0,-3.72154
 7,1.319056,-0.087278\H,0,-2.866482,-1.65466,-0.070177\H,0,-1.386936,1.
 134432,-0.067731\H,0,-0.290436,-1.738706,0.122171\H,0,0.669439,-0.1500
 52,-0.053561\\Version=ES64L-G09RevD.01\State=1-A\HF=-155.6951869\MP2=-
 155.9209637\RMSD=5.484e-09\PG=C01 [X(C4H6)]\\@

 Normal termination of Gaussian 09 at Wed Aug 26 09:27:37 2020.
