 Gaussian 09, Revision D.01,
 Gaussian 09:  ES64L-G09RevD.01 24-Apr-2013

 --------------------
 #p B2PLYPD3/Def2QZVP
 --------------------

 ---------
 butadiene
 ---------
 Symbolic Z-matrix:
 Charge =  0 Multiplicity = 1

                         Standard orientation:
 ---------------------------------------------------------------------
 Center     Atomic      Atomic             Coordinates (Angstroms)
 Number     Number       Type             X           Y           Z
 ---------------------------------------------------------------------
      1          6           0       -1.822998   -0.132264   -0.008030
      2          6           0       -0.577755    0.433195    0.013759
      3          6           0        0.608055   -0.369973    0.014678
      4          6           0        1.812078    0.064425   -0.037610
      5          1           0       -2.647842    0.498708   -0.092936
      6          1           0       -2.114716   -1.152597   -0.102820
      7          1           0       -0.465166    1.533996    0.194888
      8          1           0        0.402865   -1.471722    0.172104
      9          1           0        2.035021    1.193239   -0.085946
     10          1           0        2.673561   -0.573920    0.017928
 ---------------------------------------------------------------------

 SCF Done:  E(RB2PLYPD3) =  -155.684939974     A.U. after   12 cycles
 E2(B2PLYPD3) =    -0.2260989743D+00 E(B2PLYPD3) =    -0.15591103894816D+03

 The electronic state is 1-A.
 Alpha  occ. eigenvalues --  -10.63356 -10.61882 -10.61416 -10.61231  -0.93480
 Alpha  occ. eigenvalues --   -0.85062  -0.70750  -0.62989  -0.55320  -0.53374
 Alpha  occ. eigenvalues --   -0.46989  -0.44982  -0.40690  -0.38023  -0.27802
 Alpha virt. eigenvalues --    0.01701   0.07037   0.07167   0.07954   0.09688
 Alpha virt. eigenvalues --    0.11412   0.12428   0.14958   0.15545   0.16129
 Alpha virt. eigenvalues --    0.18626   0.19996   0.22022   0.22903   0.23505

 Mulliken charges:
               1
     1  C   -0.177086
     2  C   -0.041558
     3  C   -0.014829
     4  C   -0.166965
     5  H    0.077154
     6  H    0.070864
     7  H    0.062385
     8  H    0.049189
     9  H    0.052177
    10  H    0.088669
 Sum of Mulliken charges =   0.00000

 Dipole moment (field-independent basis, Debye):
    X=             -0.0441    Y=             -0.0382    Z=              0.1020  Tot=              0.1175
 Quadrupole moment (field-independent basis, Debye-Ang):
   XX=            -23.4058   YY=            -23.2506   ZZ=            -29.1344
   XY=              0.4431   XZ=              0.3902   YZ=              0.0271

 1\1\GINC-NODE36\SP\RB2PLYPD3-FC\def2QZVP\C4H6\BOITTIER\26-Aug-2020\0\\
 #p B2PLYPD3/Def2QZVP\\butadiene\\0,1\C,0,-3.81898,0.260554,0.028441\C,
 0,-2.703978,-0.53162,0.019528\C,0,-1.387211,0.03128,-0.002704\C,0,-0.2
 87353,-0.622622,0.059199\H,0,-4.748165,-0.199896,0.129955\H,0,-3.91100
 6,1.319733,0.097972\H,0,-2.8036,-1.637836,-0.134117\H,0,-1.380272,1.14
 7775,-0.187437\H,0,-0.282632,-1.771714,0.135535\H,0,0.679373,-0.161184
 ,-0.013178\\Version=ES64L-G09RevD.01\State=1-A\HF=-155.68494\MP2=-155.
 9110389\RMSD=3.676e-09\PG=C01 [X(C4H6)]\\@

 Normal termination of Gaussian 09 at Wed Aug 26 14:48:30 2020.
