 Gaussian 09, Revision D.01,
 Gaussian 09:  ES64L-G09RevD.01 24-Apr-2013

 --------------------
 #p B2PLYPD3/Def2QZVP
 --------------------

 ---------
 butadiene
 ---------
 Symbolic Z-matrix:
 Charge =  0 Multiplicity = 1

                         Standard orientation:
 ---------------------------------------------------------------------
 Center     Atomic      Atomic             Coordinates (Angstroms)
 Number     Number       Type             X           Y           Z
 ---------------------------------------------------------------------
      1          6           0       -1.842053   -0.124996    0.080389
      2          6           0       -0.631495    0.402598   -0.079505
      3          6           0        0.621944   -0.366465   -0.007493
      4          6           0        1.852554    0.124680    0.033086
      5          1           0       -2.807209    0.386467   -0.123724
      6          1           0       -1.966986   -1.147721    0.149517
      7          1           0       -0.609303    1.534834   -0.117303
      8          1           0        0.565769   -1.453111   -0.198472
      9          1           0        2.168938    1.092071    0.235207
     10          1           0        2.643093   -0.627438   -0.104087
 ---------------------------------------------------------------------

 SCF Done:  E(RB2PLYPD3) =  -155.685840963     A.U. after   11 cycles
 E2(B2PLYPD3) =    -0.2259447793D+00 E(B2PLYPD3) =    -0.15591178574239D+03

 The electronic state is 1-A.
 Alpha  occ. eigenvalues --  -10.63233 -10.62917 -10.61180 -10.61177  -0.92694
 Alpha  occ. eigenvalues --   -0.85463  -0.70169  -0.63880  -0.54823  -0.53933
 Alpha  occ. eigenvalues --   -0.46732  -0.45258  -0.40394  -0.37671  -0.28134
 Alpha virt. eigenvalues --    0.01543   0.06957   0.07511   0.07777   0.09504
 Alpha virt. eigenvalues --    0.11454   0.12508   0.14825   0.15372   0.16609
 Alpha virt. eigenvalues --    0.18991   0.19337   0.21645   0.22606   0.24035

 Mulliken charges:
               1
     1  C   -0.150197
     2  C   -0.046495
     3  C   -0.032430
     4  C   -0.173711
     5  H    0.074442
     6  H    0.059263
     7  H    0.057361
     8  H    0.059919
     9  H    0.081323
    10  H    0.070526
 Sum of Mulliken charges =   0.00000

 Dipole moment (field-independent basis, Debye):
    X=              0.0128    Y=             -0.0286    Z=             -0.1531  Tot=              0.1563
 Quadrupole moment (field-independent basis, Debye-Ang):
   XX=            -23.2534   YY=            -23.3298   ZZ=            -29.0854
   XY=              0.3263   XZ=              0.2848   YZ=              0.2837

 1\1\GINC-NODE21\SP\RB2PLYPD3-FC\def2QZVP\C4H6\BOITTIER\26-Aug-2020\0\\
 #p B2PLYPD3/Def2QZVP\\butadiene\\0,1\C,0,-3.845978,0.223941,-0.050392\
 C,0,-2.742174,-0.499789,0.114537\C,0,-1.376502,0.044001,0.03096\C,0,-0
 .247452,-0.649699,-0.005061\H,0,-4.883305,-0.113406,0.161584\H,0,-3.79
 5473,1.252084,-0.132402\H,0,-2.912653,-1.618757,0.166762\H,0,-1.24645,
 1.126649,0.208123\H,0,-0.10085,-1.65922,-0.195252\H,0,0.659923,-0.0413
 15,0.121391\\Version=ES64L-G09RevD.01\State=1-A\HF=-155.685841\MP2=-15
 5.9117857\RMSD=4.799e-09\PG=C01 [X(C4H6)]\\@

 Normal termination of Gaussian 09 at Wed Aug 26 11:34:35 2020.
