 Gaussian 09, Revision D.01,
 Gaussian 09:  ES64L-G09RevD.01 24-Apr-2013

 --------------------
 #p B2PLYPD3/Def2QZVP
 --------------------

 ---------
 butadiene
 ---------
 Symbolic Z-matrix:
 Charge =  0 Multiplicity = 1

                         Standard orientation:
 ---------------------------------------------------------------------
 Center     Atomic      Atomic             Coordinates (Angstroms)
 Number     Number       Type             X           Y           Z
 ---------------------------------------------------------------------
      1          6           0       -1.849282    0.102990    0.025402
      2          6           0       -0.611466   -0.386069   -0.022883
      3          6           0        0.614621    0.410296   -0.029391
      4          6           0        1.837323   -0.122750    0.016016
      5          1           0       -2.726204   -0.530915    0.004754
      6          1           0       -1.969444    1.167371    0.002816
      7          1           0       -0.462842   -1.456786    0.023776
      8          1           0        0.496203    1.475433   -0.020386
      9          1           0        1.994548   -1.194127   -0.030269
     10          1           0        2.720556    0.512222    0.084441
 ---------------------------------------------------------------------

 SCF Done:  E(RB2PLYPD3) =  -155.700648128     A.U. after   11 cycles
 E2(B2PLYPD3) =    -0.2255221937D+00 E(B2PLYPD3) =    -0.15592617032140D+03

 The electronic state is 1-A.
 Alpha  occ. eigenvalues --  -10.62490 -10.62384 -10.61688 -10.61309  -0.92949
 Alpha  occ. eigenvalues --   -0.85041  -0.70034  -0.64264  -0.54512  -0.54040
 Alpha  occ. eigenvalues --   -0.46940  -0.45623  -0.41086  -0.38048  -0.27794
 Alpha virt. eigenvalues --    0.01792   0.06999   0.07484   0.08082   0.09587
 Alpha virt. eigenvalues --    0.11718   0.12462   0.14662   0.15763   0.16181
 Alpha virt. eigenvalues --    0.18802   0.20221   0.21612   0.23106   0.23901

 Mulliken charges:
               1
     1  C   -0.178346
     2  C   -0.025671
     3  C   -0.035538
     4  C   -0.174704
     5  H    0.089691
     6  H    0.063487
     7  H    0.052197
     8  H    0.055953
     9  H    0.068518
    10  H    0.084412
 Sum of Mulliken charges =   0.00000

 Dipole moment (field-independent basis, Debye):
    X=              0.0399    Y=              0.0019    Z=              0.0175  Tot=              0.0436
 Quadrupole moment (field-independent basis, Debye-Ang):
   XX=            -23.4643   YY=            -23.1272   ZZ=            -29.2469
   XY=             -0.0454   XZ=              0.1615   YZ=              0.0406

 1\1\GINC-NODE33\SP\RB2PLYPD3-FC\def2QZVP\C4H6\BOITTIER\26-Aug-2020\0\\
 #p B2PLYPD3/Def2QZVP\\butadiene\\0,1\C,0,-3.853092,0.214141,0.043133\C
 ,0,-2.7216,-0.487642,0.01273\C,0,-1.373853,0.078413,-0.013518\C,0,-0.2
 64809,-0.661223,0.050974\H,0,-4.828482,-0.254737,0.038494\H,0,-3.78286
 2,1.281851,-0.0109\H,0,-2.764885,-1.565922,0.091093\H,0,-1.301699,1.14
 7482,-0.03599\H,0,-0.299963,-1.744396,0.036476\H,0,0.717093,-0.191014,
 0.103355\\Version=ES64L-G09RevD.01\State=1-A\HF=-155.7006481\MP2=-155.
 9261703\RMSD=4.137e-09\PG=C01 [X(C4H6)]\\@

 Normal termination of Gaussian 09 at Wed Aug 26 22:07:32 2020.
