 Gaussian 09, Revision D.01,
 Gaussian 09:  ES64L-G09RevD.01 24-Apr-2013

 --------------------
 #p B2PLYPD3/Def2QZVP
 --------------------

 ---------
 butadiene
 ---------
 Symbolic Z-matrix:
 Charge =  0 Multiplicity = 1

                         Standard orientation:
 ---------------------------------------------------------------------
 Center     Atomic      Atomic             Coordinates (Angstroms)
 Number     Number       Type             X           Y           Z
 ---------------------------------------------------------------------
      1          6           0       -1.846258    0.095206    0.024866
      2          6           0       -0.603621   -0.380787   -0.027867
      3          6           0        0.611799    0.419481    0.000749
      4          6           0        1.837678   -0.125907    0.008157
      5          1           0       -2.707118   -0.549877   -0.044649
      6          1           0       -2.048426    1.146383    0.039009
      7          1           0       -0.459054   -1.450174   -0.018545
      8          1           0        0.500921    1.482875   -0.049312
      9          1           0        2.023989   -1.194640    0.067946
     10          1           0        2.692104    0.517475   -0.029885
 ---------------------------------------------------------------------

 SCF Done:  E(RB2PLYPD3) =  -155.700597564     A.U. after   11 cycles
 E2(B2PLYPD3) =    -0.2255023167D+00 E(B2PLYPD3) =    -0.15592609988092D+03

 The electronic state is 1-A.
 Alpha  occ. eigenvalues --  -10.62520 -10.62316 -10.61591 -10.61205  -0.92936
 Alpha  occ. eigenvalues --   -0.84956  -0.70343  -0.64335  -0.54633  -0.54090
 Alpha  occ. eigenvalues --   -0.46802  -0.45812  -0.41185  -0.38021  -0.27667
 Alpha virt. eigenvalues --    0.01677   0.07008   0.07501   0.08109   0.09591
 Alpha virt. eigenvalues --    0.11685   0.12417   0.14843   0.15758   0.16260
 Alpha virt. eigenvalues --    0.18868   0.20271   0.21893   0.22753   0.23806

 Mulliken charges:
               1
     1  C   -0.174828
     2  C   -0.028156
     3  C   -0.038404
     4  C   -0.175761
     5  H    0.083877
     6  H    0.063516
     7  H    0.055524
     8  H    0.060399
     9  H    0.070428
    10  H    0.083404
 Sum of Mulliken charges =   0.00000

 Dipole moment (field-independent basis, Debye):
    X=              0.0406    Y=              0.0150    Z=             -0.0489  Tot=              0.0653
 Quadrupole moment (field-independent basis, Debye-Ang):
   XX=            -23.4531   YY=            -23.0483   ZZ=            -29.2321
   XY=             -0.2340   XZ=              0.0741   YZ=             -0.0850

 1\1\GINC-NODE39\SP\RB2PLYPD3-FC\def2QZVP\C4H6\BOITTIER\26-Aug-2020\0\\
 #p B2PLYPD3/Def2QZVP\\butadiene\\0,1\C,0,-3.851031,0.212276,0.040436\C
 ,0,-2.71502,-0.481952,0.008449\C,0,-1.37495,0.086114,0.010694\C,0,-0.2
 67706,-0.671088,0.041319\H,0,-4.814517,-0.268807,-0.007486\H,0,-3.8599
 72,1.28248,0.015347\H,0,-2.765925,-1.558789,0.057509\H,0,-1.292161,1.1
 49481,-0.078771\H,0,-0.277226,-1.752971,0.140895\H,0,0.688701,-0.19445
 9,-0.018197\\Version=ES64L-G09RevD.01\State=1-A\HF=-155.7005976\MP2=-1
 55.9260999\RMSD=5.497e-09\PG=C01 [X(C4H6)]\\@

 Normal termination of Gaussian 09 at Wed Aug 26 18:47:08 2020.
