 Gaussian 09, Revision D.01,
 Gaussian 09:  ES64L-G09RevD.01 24-Apr-2013

 --------------------
 #p B2PLYPD3/Def2QZVP
 --------------------

 ---------
 butadiene
 ---------
 Symbolic Z-matrix:
 Charge =  0 Multiplicity = 1

                         Standard orientation:
 ---------------------------------------------------------------------
 Center     Atomic      Atomic             Coordinates (Angstroms)
 Number     Number       Type             X           Y           Z
 ---------------------------------------------------------------------
      1          6           0       -1.831326   -0.120762   -0.020911
      2          6           0       -0.612483    0.413172    0.028905
      3          6           0        0.613678   -0.393994    0.008893
      4          6           0        1.845851    0.108704   -0.010780
      5          1           0       -2.727964    0.503715    0.002708
      6          1           0       -1.990367   -1.216696   -0.029894
      7          1           0       -0.537074    1.504689    0.004207
      8          1           0        0.451232   -1.461454    0.036192
      9          1           0        1.995422    1.173505   -0.044871
     10          1           0        2.714430   -0.546475   -0.004992
 ---------------------------------------------------------------------

 SCF Done:  E(RB2PLYPD3) =  -155.700280975     A.U. after   11 cycles
 E2(B2PLYPD3) =    -0.2257137685D+00 E(B2PLYPD3) =    -0.15592599474368D+03

 The electronic state is 1-A.
 Alpha  occ. eigenvalues --  -10.62663 -10.62524 -10.61822 -10.61430  -0.92829
 Alpha  occ. eigenvalues --   -0.84983  -0.69683  -0.63944  -0.54312  -0.53937
 Alpha  occ. eigenvalues --   -0.46626  -0.45440  -0.40973  -0.38037  -0.27866
 Alpha virt. eigenvalues --    0.01946   0.06997   0.07370   0.08008   0.09525
 Alpha virt. eigenvalues --    0.11686   0.12354   0.14588   0.15774   0.16175
 Alpha virt. eigenvalues --    0.18790   0.20320   0.21558   0.22805   0.23892

 Mulliken charges:
               1
     1  C   -0.171396
     2  C   -0.032311
     3  C   -0.031549
     4  C   -0.176713
     5  H    0.083398
     6  H    0.061606
     7  H    0.054227
     8  H    0.056311
     9  H    0.069256
    10  H    0.087170
 Sum of Mulliken charges =   0.00000

 Dipole moment (field-independent basis, Debye):
    X=             -0.0302    Y=              0.0065    Z=             -0.0083  Tot=              0.0320
 Quadrupole moment (field-independent basis, Debye-Ang):
   XX=            -23.5640   YY=            -23.0443   ZZ=            -29.3151
   XY=              0.0558   XZ=             -0.0280   YZ=             -0.0658

 1\1\GINC-NODE11\SP\RB2PLYPD3-FC\def2QZVP\C4H6\BOITTIER\26-Aug-2020\0\\
 #p B2PLYPD3/Def2QZVP\\butadiene\\0,1\C,0,-3.834763,0.228985,0.038241\C
 ,0,-2.729647,-0.513305,0.008764\C,0,-1.380082,0.064663,0.004643\C,0,-0
 .256065,-0.646962,0.04361\H,0,-4.827723,-0.227629,0.033409\H,0,-3.7976
 06,1.335465,0.010554\H,0,-2.848212,-1.599548,0.069788\H,0,-1.351444,1.
 142538,-0.058369\H,0,-0.296881,-1.719722,0.113295\H,0,0.714593,-0.1561
 58,0.017974\\Version=ES64L-G09RevD.01\State=1-A\HF=-155.700281\MP2=-15
 5.9259947\RMSD=3.318e-09\PG=C01 [X(C4H6)]\\@

 Normal termination of Gaussian 09 at Wed Aug 26 21:29:38 2020.
