 Gaussian 09, Revision D.01,
 Gaussian 09:  ES64L-G09RevD.01 24-Apr-2013

 --------------------
 #p B2PLYPD3/Def2QZVP
 --------------------

 ---------
 butadiene
 ---------
 Symbolic Z-matrix:
 Charge =  0 Multiplicity = 1

                         Standard orientation:
 ---------------------------------------------------------------------
 Center     Atomic      Atomic             Coordinates (Angstroms)
 Number     Number       Type             X           Y           Z
 ---------------------------------------------------------------------
      1          6           0       -1.839328    0.098312   -0.019559
      2          6           0       -0.598715   -0.389410    0.020381
      3          6           0        0.613104    0.407084    0.028107
      4          6           0        1.831556   -0.119953   -0.032167
      5          1           0       -2.740769   -0.504281   -0.032769
      6          1           0       -1.980429    1.174082   -0.031607
      7          1           0       -0.479868   -1.459650    0.032414
      8          1           0        0.477608    1.500636    0.064185
      9          1           0        1.957915   -1.178919    0.032780
     10          1           0        2.725842    0.491933   -0.045574
 ---------------------------------------------------------------------

 SCF Done:  E(RB2PLYPD3) =  -155.700508064     A.U. after   11 cycles
 E2(B2PLYPD3) =    -0.2255660406D+00 E(B2PLYPD3) =    -0.15592607410419D+03

 The electronic state is 1-A.
 Alpha  occ. eigenvalues --  -10.62666 -10.62341 -10.61490 -10.61358  -0.93141
 Alpha  occ. eigenvalues --   -0.85041  -0.70138  -0.64092  -0.54725  -0.54000
 Alpha  occ. eigenvalues --   -0.46934  -0.45343  -0.41140  -0.38191  -0.27759
 Alpha virt. eigenvalues --    0.01783   0.07023   0.07426   0.08045   0.09659
 Alpha virt. eigenvalues --    0.11668   0.12582   0.14614   0.15895   0.16211
 Alpha virt. eigenvalues --    0.18787   0.20500   0.21648   0.22840   0.23793

 Mulliken charges:
               1
     1  C   -0.175230
     2  C   -0.026068
     3  C   -0.029624
     4  C   -0.172956
     5  H    0.087829
     6  H    0.059014
     7  H    0.052390
     8  H    0.051743
     9  H    0.067249
    10  H    0.085652
 Sum of Mulliken charges =   0.00000

 Dipole moment (field-independent basis, Debye):
    X=              0.0232    Y=             -0.0150    Z=              0.0537  Tot=              0.0604
 Quadrupole moment (field-independent basis, Debye-Ang):
   XX=            -23.3223   YY=            -23.2236   ZZ=            -29.2279
   XY=             -0.0352   XZ=              0.1062   YZ=             -0.0504

 1\1\GINC-NODE17\SP\RB2PLYPD3-FC\def2QZVP\C4H6\BOITTIER\26-Aug-2020\0\\
 #p B2PLYPD3/Def2QZVP\\butadiene\\0,1\C,0,-3.845258,0.209784,-0.002427\
 C,0,-2.711432,-0.489931,0.056116\C,0,-1.376957,0.077481,0.042524\C,0,-
 0.272227,-0.660057,0.00206\H,0,-4.839762,-0.222466,0.000537\H,0,-3.792
 238,1.29257,-0.048252\H,0,-2.785362,-1.563309,0.101691\H,0,-1.315117,1
 .178249,0.044266\H,0,-0.336608,-1.722045,0.100195\H,0,0.716821,-0.2182
 17,-0.027817\\Version=ES64L-G09RevD.01\State=1-A\HF=-155.7005081\MP2=-
 155.9260741\RMSD=4.078e-09\PG=C01 [X(C4H6)]\\@

 Normal termination of Gaussian 09 at Wed Aug 26 08:43:34 2020.
