 Gaussian 09, Revision D.01,
 Gaussian 09:  ES64L-G09RevD.01 24-Apr-2013

 --------------------
 #p B2PLYPD3/Def2QZVP
 --------------------

 ---------
 butadiene
 ---------
 Symbolic Z-matrix:
 Charge =  0 Multiplicity = 1

                         Standard orientation:
 ---------------------------------------------------------------------
 Center     Atomic      Atomic             Coordinates (Angstroms)
 Number     Number       Type             X           Y           Z
 ---------------------------------------------------------------------
      1          6           0        1.822389   -0.152949   -0.050647
      2          6           0        0.584779    0.473197    0.033409
      3          6           0       -0.577684   -0.371787    0.085921
      4          6           0       -1.828515    0.051169   -0.092033
      5          1           0        2.758634    0.429883   -0.091808
      6          1           0        1.942743   -1.205277   -0.138733
      7          1           0        0.445323    1.529284    0.224525
      8          1           0       -0.404483   -1.364075    0.254132
      9          1           0       -1.974920    1.135022   -0.061724
     10          1           0       -2.773114   -0.522620   -0.046293
 ---------------------------------------------------------------------

 SCF Done:  E(RB2PLYPD3) =  -155.685492351     A.U. after   12 cycles
 E2(B2PLYPD3) =    -0.2272401412D+00 E(B2PLYPD3) =    -0.15591273249217D+03

 The electronic state is 1-A.
 Alpha  occ. eigenvalues --  -10.63472 -10.62558 -10.61662 -10.61523  -0.93210
 Alpha  occ. eigenvalues --   -0.83982  -0.70296  -0.65221  -0.54528  -0.53524
 Alpha  occ. eigenvalues --   -0.47235  -0.45161  -0.41874  -0.37241  -0.27150
 Alpha virt. eigenvalues --    0.01111   0.07090   0.07439   0.07917   0.09151
 Alpha virt. eigenvalues --    0.11520   0.12686   0.14522   0.15597   0.16504
 Alpha virt. eigenvalues --    0.18826   0.19991   0.21849   0.22706   0.23346

 Mulliken charges:
               1
     1  C   -0.182636
     2  C   -0.041724
     3  C   -0.030167
     4  C   -0.166424
     5  H    0.079105
     6  H    0.076155
     7  H    0.071856
     8  H    0.066307
     9  H    0.048174
    10  H    0.079354
 Sum of Mulliken charges =   0.00000

 Dipole moment (field-independent basis, Debye):
    X=              0.0810    Y=             -0.0449    Z=              0.2282  Tot=              0.2463
 Quadrupole moment (field-independent basis, Debye-Ang):
   XX=            -23.5040   YY=            -23.2598   ZZ=            -29.2761
   XY=             -0.2990   XZ=             -0.3179   YZ=              0.1526

 1\1\GINC-NODE17\SP\RB2PLYPD3-FC\def2QZVP\C4H6\BOITTIER\26-Aug-2020\0\\
 #p B2PLYPD3/Def2QZVP\\butadiene\\0,1\C,0,-3.813983,0.270854,-0.037889\
 C,0,-2.714048,-0.569335,0.084702\C,0,-1.414378,0.046112,0.097317\C,0,-
 0.265115,-0.611075,-0.052466\H,0,-4.842544,-0.128897,-0.05211\H,0,-3.7
 36912,1.321021,-0.182275\H,0,-2.772472,-1.621284,0.332254\H,0,-1.39896
 4,1.060795,0.211823\H,0,-0.32278,-1.700082,0.036013\H,0,0.769998,-0.22
 1508,-0.033156\\Version=ES64L-G09RevD.01\State=1-A\HF=-155.6854924\MP2
 =-155.9127325\RMSD=3.320e-09\PG=C01 [X(C4H6)]\\@

 Normal termination of Gaussian 09 at Wed Aug 26 11:29:35 2020.
