 Gaussian 09, Revision D.01,
 Gaussian 09:  ES64L-G09RevD.01 24-Apr-2013

 --------------------
 #p B2PLYPD3/Def2QZVP
 --------------------

 ---------
 butadiene
 ---------
 Symbolic Z-matrix:
 Charge =  0 Multiplicity = 1

                         Standard orientation:
 ---------------------------------------------------------------------
 Center     Atomic      Atomic             Coordinates (Angstroms)
 Number     Number       Type             X           Y           Z
 ---------------------------------------------------------------------
      1          6           0       -1.834560   -0.118992   -0.019010
      2          6           0       -0.610666    0.415708    0.033203
      3          6           0        0.598177   -0.404044    0.031531
      4          6           0        1.835222    0.111866   -0.031145
      5          1           0       -2.727137    0.501643   -0.044324
      6          1           0       -1.947252   -1.204619   -0.036820
      7          1           0       -0.465851    1.493235   -0.003918
      8          1           0        0.511074   -1.476509    0.020177
      9          1           0        1.977409    1.194155    0.001380
     10          1           0        2.722718   -0.535140   -0.023969
 ---------------------------------------------------------------------

 SCF Done:  E(RB2PLYPD3) =  -155.699861346     A.U. after   11 cycles
 E2(B2PLYPD3) =    -0.2261097535D+00 E(B2PLYPD3) =    -0.15592597109945D+03

 The electronic state is 1-A.
 Alpha  occ. eigenvalues --  -10.62706 -10.62493 -10.61746 -10.61715  -0.92876
 Alpha  occ. eigenvalues --   -0.84730  -0.69617  -0.64168  -0.54186  -0.53965
 Alpha  occ. eigenvalues --   -0.46331  -0.45441  -0.41413  -0.38016  -0.27619
 Alpha virt. eigenvalues --    0.01795   0.07013   0.07367   0.08012   0.09381
 Alpha virt. eigenvalues --    0.11714   0.12419   0.14543   0.15877   0.16074
 Alpha virt. eigenvalues --    0.18722   0.20368   0.21340   0.23024   0.24022

 Mulliken charges:
               1
     1  C   -0.173524
     2  C   -0.034551
     3  C   -0.029537
     4  C   -0.176944
     5  H    0.086877
     6  H    0.066843
     7  H    0.057165
     8  H    0.056359
     9  H    0.063532
    10  H    0.083780
 Sum of Mulliken charges =   0.00000

 Dipole moment (field-independent basis, Debye):
    X=             -0.0231    Y=             -0.0075    Z=             -0.0319  Tot=              0.0401
 Quadrupole moment (field-independent basis, Debye-Ang):
   XX=            -23.6927   YY=            -22.9932   ZZ=            -29.3631
   XY=             -0.0294   XZ=              0.1603   YZ=              0.0066

 1\1\GINC-NODE12\SP\RB2PLYPD3-FC\def2QZVP\C4H6\BOITTIER\26-Aug-2020\0\\
 #p B2PLYPD3/Def2QZVP\\butadiene\\0,1\C,0,-3.834855,0.228455,0.041133\C
 ,0,-2.725499,-0.516217,0.004546\C,0,-1.390393,0.075695,-0.016181\C,0,-
 0.264244,-0.649644,0.061555\H,0,-4.823266,-0.222964,0.083406\H,0,-3.75
 3056,1.316917,0.028424\H,0,-2.774001,-1.600891,0.071954\H,0,-1.285775,
 1.146489,-0.034962\H,0,-0.31649,-1.740465,0.059476\H,0,0.723927,-0.170
 879,0.03667\\Version=ES64L-G09RevD.01\State=1-A\HF=-155.6998613\MP2=-1
 55.9259711\RMSD=3.341e-09\PG=C01 [X(C4H6)]\\@

 Normal termination of Gaussian 09 at Wed Aug 26 18:31:19 2020.
