 Gaussian 09, Revision D.01,
 Gaussian 09:  ES64L-G09RevD.01 24-Apr-2013

 --------------------
 #p B2PLYPD3/Def2QZVP
 --------------------

 ---------
 butadiene
 ---------
 Symbolic Z-matrix:
 Charge =  0 Multiplicity = 1

                         Standard orientation:
 ---------------------------------------------------------------------
 Center     Atomic      Atomic             Coordinates (Angstroms)
 Number     Number       Type             X           Y           Z
 ---------------------------------------------------------------------
      1          6           0        1.836324    0.097700   -0.014110
      2          6           0        0.597958   -0.393843    0.024186
      3          6           0       -0.601867    0.407936    0.000480
      4          6           0       -1.831944   -0.114204   -0.003372
      5          1           0        2.728526   -0.500005   -0.011586
      6          1           0        1.998285    1.176171   -0.067005
      7          1           0        0.459236   -1.451644    0.051928
      8          1           0       -0.506349    1.499479    0.085567
      9          1           0       -1.955287   -1.218738   -0.077532
     10          1           0       -2.727240    0.509205   -0.024473
 ---------------------------------------------------------------------

 SCF Done:  E(RB2PLYPD3) =  -155.699486876     A.U. after   11 cycles
 E2(B2PLYPD3) =    -0.2259237409D+00 E(B2PLYPD3) =    -0.15592541061652D+03

 The electronic state is 1-A.
 Alpha  occ. eigenvalues --  -10.62605 -10.62284 -10.61953 -10.61481  -0.93176
 Alpha  occ. eigenvalues --   -0.84840  -0.70035  -0.64013  -0.54751  -0.53760
 Alpha  occ. eigenvalues --   -0.46749  -0.45025  -0.41261  -0.38260  -0.27661
 Alpha virt. eigenvalues --    0.01697   0.07037   0.07368   0.08008   0.09598
 Alpha virt. eigenvalues --    0.11648   0.12492   0.14560   0.15740   0.16313
 Alpha virt. eigenvalues --    0.18754   0.20276   0.21664   0.22775   0.23737

 Mulliken charges:
               1
     1  C   -0.171986
     2  C   -0.031510
     3  C   -0.027353
     4  C   -0.174680
     5  H    0.086481
     6  H    0.060415
     7  H    0.056443
     8  H    0.054510
     9  H    0.060749
    10  H    0.086930
 Sum of Mulliken charges =   0.00000

 Dipole moment (field-independent basis, Debye):
    X=              0.0089    Y=              0.0056    Z=             -0.0250  Tot=              0.0271
 Quadrupole moment (field-independent basis, Debye-Ang):
   XX=            -23.4125   YY=            -23.1952   ZZ=            -29.2742
   XY=             -0.0273   XZ=              0.0213   YZ=              0.0629

 1\1\GINC-NODE37\SP\RB2PLYPD3-FC\def2QZVP\C4H6\BOITTIER\26-Aug-2020\0\\
 #p B2PLYPD3/Def2QZVP\\butadiene\\0,1\C,0,-3.840797,0.212451,0.031992\C
 ,0,-2.711291,-0.495018,0.013684\C,0,-1.38667,0.078013,0.011486\C,0,-0.
 270641,-0.656559,0.036366\H,0,-4.826002,-0.214598,0.048774\H,0,-3.8057
 91,1.303642,0.046348\H,0,-2.765327,-1.560821,0.023685\H,0,-1.284552,1.
 165239,-0.112378\H,0,-0.347774,-1.761948,0.149827\H,0,0.722314,-0.2041
 45,0.037246\\Version=ES64L-G09RevD.01\State=1-A\HF=-155.6994869\MP2=-1
 55.9254106\RMSD=2.666e-09\PG=C01 [X(C4H6)]\\@

 Normal termination of Gaussian 09 at Wed Aug 26 22:06:14 2020.
