 Gaussian 09, Revision D.01,
 Gaussian 09:  ES64L-G09RevD.01 24-Apr-2013

 --------------------
 #p B2PLYPD3/Def2QZVP
 --------------------

 ---------
 butadiene
 ---------
 Symbolic Z-matrix:
 Charge =  0 Multiplicity = 1

                         Standard orientation:
 ---------------------------------------------------------------------
 Center     Atomic      Atomic             Coordinates (Angstroms)
 Number     Number       Type             X           Y           Z
 ---------------------------------------------------------------------
      1          6           0        1.810777    0.115589   -0.016884
      2          6           0        0.597617   -0.416043   -0.014398
      3          6           0       -0.575059    0.377955    0.015491
      4          6           0       -1.830919   -0.102688   -0.004467
      5          1           0        2.729761   -0.489403    0.121095
      6          1           0        1.933724    1.203478   -0.035622
      7          1           0        0.516286   -1.462421    0.043696
      8          1           0       -0.426141    1.456581   -0.009711
      9          1           0       -2.070225   -1.125678   -0.068987
     10          1           0       -2.697906    0.568566    0.071074
 ---------------------------------------------------------------------

 SCF Done:  E(RB2PLYPD3) =  -155.696656143     A.U. after   11 cycles
 E2(B2PLYPD3) =    -0.2258043167D+00 E(B2PLYPD3) =    -0.15592246045975D+03

 The electronic state is 1-A.
 Alpha  occ. eigenvalues --  -10.62392 -10.61770 -10.61621 -10.61418  -0.93723
 Alpha  occ. eigenvalues --   -0.84783  -0.70304  -0.64647  -0.54857  -0.53962
 Alpha  occ. eigenvalues --   -0.46374  -0.45395  -0.41590  -0.38531  -0.27393
 Alpha virt. eigenvalues --    0.01511   0.06981   0.07510   0.07992   0.09729
 Alpha virt. eigenvalues --    0.11733   0.12493   0.14851   0.15765   0.16228
 Alpha virt. eigenvalues --    0.18743   0.20357   0.21751   0.22703   0.23874

 Mulliken charges:
               1
     1  C   -0.169047
     2  C   -0.026996
     3  C   -0.028224
     4  C   -0.181610
     5  H    0.080070
     6  H    0.059512
     7  H    0.062056
     8  H    0.054875
     9  H    0.069934
    10  H    0.079429
 Sum of Mulliken charges =   0.00000

 Dipole moment (field-independent basis, Debye):
    X=              0.0345    Y=             -0.0517    Z=              0.1074  Tot=              0.1241
 Quadrupole moment (field-independent basis, Debye-Ang):
   XX=            -23.5816   YY=            -23.1297   ZZ=            -29.1614
   XY=              0.1871   XZ=              0.3041   YZ=             -0.0624

 1\1\GINC-NODE06\SP\RB2PLYPD3-FC\def2QZVP\C4H6\BOITTIER\26-Aug-2020\0\\
 #p B2PLYPD3/Def2QZVP\\butadiene\\0,1\C,0,-3.810017,0.233407,0.028538\C
 ,0,-2.714896,-0.511483,0.044177\C,0,-1.416533,0.053121,-0.000216\C,0,-
 0.270079,-0.648928,0.036792\H,0,-4.824395,-0.196125,-0.098447\H,0,-3.7
 31413,1.325524,0.020108\H,0,-2.826814,-1.556155,0.012071\H,0,-1.365155
 ,1.141056,-0.002066\H,0,-0.222368,-1.696526,0.127354\H,0,0.705257,-0.1
 50053,-0.051519\\Version=ES64L-G09RevD.01\State=1-A\HF=-155.6966561\MP
 2=-155.9224605\RMSD=5.623e-09\PG=C01 [X(C4H6)]\\@

 Normal termination of Gaussian 09 at Wed Aug 26 22:13:20 2020.
