 Gaussian 09, Revision D.01,
 Gaussian 09:  ES64L-G09RevD.01 24-Apr-2013

 --------------------
 #p B2PLYPD3/Def2QZVP
 --------------------

 ---------
 butadiene
 ---------
 Symbolic Z-matrix:
 Charge =  0 Multiplicity = 1

                         Standard orientation:
 ---------------------------------------------------------------------
 Center     Atomic      Atomic             Coordinates (Angstroms)
 Number     Number       Type             X           Y           Z
 ---------------------------------------------------------------------
      1          6           0       -1.842424    0.113910    0.012021
      2          6           0       -0.601889   -0.411474   -0.027733
      3          6           0        0.605074    0.394557   -0.020254
      4          6           0        1.839126   -0.112149    0.017603
      5          1           0       -2.739844   -0.516140    0.039593
      6          1           0       -2.030415    1.191863    0.069484
      7          1           0       -0.462091   -1.473173   -0.048716
      8          1           0        0.503241    1.483267   -0.028670
      9          1           0        2.038747   -1.161866    0.088509
     10          1           0        2.691041    0.566987   -0.010015
 ---------------------------------------------------------------------

 SCF Done:  E(RB2PLYPD3) =  -155.699984988     A.U. after   11 cycles
 E2(B2PLYPD3) =    -0.2260280654D+00 E(B2PLYPD3) =    -0.15592601305391D+03

 The electronic state is 1-A.
 Alpha  occ. eigenvalues --  -10.62673 -10.62516 -10.62045 -10.61401  -0.92889
 Alpha  occ. eigenvalues --   -0.84685  -0.70072  -0.64178  -0.54287  -0.54023
 Alpha  occ. eigenvalues --   -0.46461  -0.45596  -0.41235  -0.38047  -0.27543
 Alpha virt. eigenvalues --    0.01601   0.06967   0.07433   0.07996   0.09538
 Alpha virt. eigenvalues --    0.11660   0.12346   0.14763   0.15919   0.16095
 Alpha virt. eigenvalues --    0.18807   0.20548   0.21557   0.22656   0.23744

 Mulliken charges:
               1
     1  C   -0.171538
     2  C   -0.041308
     3  C   -0.023628
     4  C   -0.179157
     5  H    0.081990
     6  H    0.066571
     7  H    0.061218
     8  H    0.054659
     9  H    0.068672
    10  H    0.082522
 Sum of Mulliken charges =   0.00000

 Dipole moment (field-independent basis, Debye):
    X=             -0.0027    Y=             -0.0102    Z=              0.0730  Tot=              0.0737
 Quadrupole moment (field-independent basis, Debye-Ang):
   XX=            -23.5604   YY=            -23.0216   ZZ=            -29.3315
   XY=             -0.2190   XZ=             -0.1059   YZ=             -0.0316

 1\1\GINC-NODE26\SP\RB2PLYPD3-FC\def2QZVP\C4H6\BOITTIER\26-Aug-2020\0\\
 #p B2PLYPD3/Def2QZVP\\butadiene\\0,1\C,0,-3.843379,0.231137,0.033319\C
 ,0,-2.718082,-0.510296,0.010532\C,0,-1.385557,0.064716,-0.004947\C,0,-
 0.262925,-0.654884,0.049277\H,0,-4.839554,-0.225643,0.078867\H,0,-3.83
 369,1.32654,0.058291\H,0,-2.772082,-1.579947,0.02149\H,0,-1.289475,1.1
 53205,-0.046062\H,0,-0.255514,-1.72082,0.151782\H,0,0.69734,-0.14164,0
 .002169\\Version=ES64L-G09RevD.01\State=1-A\HF=-155.699985\MP2=-155.92
 60131\RMSD=4.691e-09\PG=C01 [X(C4H6)]\\@

 Normal termination of Gaussian 09 at Wed Aug 26 21:41:45 2020.
