 Gaussian 09, Revision D.01,
 Gaussian 09:  ES64L-G09RevD.01 24-Apr-2013

 --------------------
 #p B2PLYPD3/Def2QZVP
 --------------------

 ---------
 butadiene
 ---------
 Symbolic Z-matrix:
 Charge =  0 Multiplicity = 1

                         Standard orientation:
 ---------------------------------------------------------------------
 Center     Atomic      Atomic             Coordinates (Angstroms)
 Number     Number       Type             X           Y           Z
 ---------------------------------------------------------------------
      1          6           0       -1.843245   -0.111513    0.035052
      2          6           0       -0.626945    0.376753    0.010658
      3          6           0        0.600898   -0.381736   -0.052191
      4          6           0        1.876657    0.095698   -0.000995
      5          1           0       -2.665835    0.626330   -0.053302
      6          1           0       -2.054408   -1.221981    0.129569
      7          1           0       -0.506916    1.520110   -0.248375
      8          1           0        0.422520   -1.439207   -0.093925
      9          1           0        2.084458    1.167790    0.282256
     10          1           0        2.675993   -0.528257    0.028638
 ---------------------------------------------------------------------

 SCF Done:  E(RB2PLYPD3) =  -155.680978406     A.U. after   11 cycles
 E2(B2PLYPD3) =    -0.2270396806D+00 E(B2PLYPD3) =    -0.15590801808624D+03

 The electronic state is 1-A.
 Alpha  occ. eigenvalues --  -10.63003 -10.62915 -10.62290 -10.61801  -0.92950
 Alpha  occ. eigenvalues --   -0.84983  -0.70742  -0.62445  -0.54822  -0.53265
 Alpha  occ. eigenvalues --   -0.47027  -0.45220  -0.40094  -0.37931  -0.27842
 Alpha virt. eigenvalues --    0.01176   0.07008   0.07139   0.07765   0.09483
 Alpha virt. eigenvalues --    0.11482   0.12309   0.14791   0.15107   0.16277
 Alpha virt. eigenvalues --    0.18859   0.19741   0.21282   0.22753   0.23614

 Mulliken charges:
               1
     1  C   -0.179441
     2  C   -0.013652
     3  C   -0.045231
     4  C   -0.170503
     5  H    0.088400
     6  H    0.068651
     7  H    0.046181
     8  H    0.051297
     9  H    0.064071
    10  H    0.090228
 Sum of Mulliken charges =   0.00000

 Dipole moment (field-independent basis, Debye):
    X=             -0.0706    Y=             -0.1240    Z=              0.0457  Tot=              0.1498
 Quadrupole moment (field-independent basis, Debye-Ang):
   XX=            -23.5838   YY=            -23.3829   ZZ=            -29.2431
   XY=              0.0892   XZ=              0.6954   YZ=             -0.0882

 1\1\GINC-NODE30\SP\RB2PLYPD3-FC\def2QZVP\C4H6\BOITTIER\26-Aug-2020\0\\
 #p B2PLYPD3/Def2QZVP\\butadiene\\0,1\C,0,-3.84578,0.22647,-0.007389\C,
 0,-2.738188,-0.473508,0.033289\C,0,-1.392358,0.050857,0.058538\C,0,-0.
 225217,-0.652452,0.022996\H,0,-4.787606,-0.345042,0.115945\H,0,-3.8528
 38,1.351896,-0.148912\H,0,-2.824791,-1.607799,0.340949\H,0,-1.375209,1
 .123937,0.055296\H,0,-0.218915,-1.755326,-0.214537\H,0,0.673746,-0.186
 145,-0.036666\\Version=ES64L-G09RevD.01\State=1-A\HF=-155.6809784\MP2=
 -155.9080181\RMSD=7.759e-09\PG=C01 [X(C4H6)]\\@

 Normal termination of Gaussian 09 at Wed Aug 26 16:09:51 2020.
