 Gaussian 09, Revision D.01,
 Gaussian 09:  ES64L-G09RevD.01 24-Apr-2013

 --------------------
 #p B2PLYPD3/Def2QZVP
 --------------------

 ---------
 butadiene
 ---------
 Symbolic Z-matrix:
 Charge =  0 Multiplicity = 1

                         Standard orientation:
 ---------------------------------------------------------------------
 Center     Atomic      Atomic             Coordinates (Angstroms)
 Number     Number       Type             X           Y           Z
 ---------------------------------------------------------------------
      1          6           0        1.839703   -0.111939   -0.008682
      2          6           0        0.608574    0.420015    0.034711
      3          6           0       -0.605873   -0.400635   -0.002320
      4          6           0       -1.836814    0.110730   -0.020710
      5          1           0        2.757483    0.450508   -0.041303
      6          1           0        1.941784   -1.174374   -0.146911
      7          1           0        0.396723    1.498721    0.100665
      8          1           0       -0.448501   -1.461762    0.161809
      9          1           0       -1.988815    1.150977   -0.119633
     10          1           0       -2.692209   -0.573094    0.027380
 ---------------------------------------------------------------------

 SCF Done:  E(RB2PLYPD3) =  -155.697599340     A.U. after   11 cycles
 E2(B2PLYPD3) =    -0.2259579737D+00 E(B2PLYPD3) =    -0.15592355731393D+03

 The electronic state is 1-A.
 Alpha  occ. eigenvalues --  -10.62954 -10.62422 -10.61585 -10.61352  -0.92875
 Alpha  occ. eigenvalues --   -0.84842  -0.70112  -0.64131  -0.54529  -0.53817
 Alpha  occ. eigenvalues --   -0.46869  -0.45928  -0.40892  -0.37837  -0.27744
 Alpha virt. eigenvalues --    0.01747   0.07088   0.07381   0.08069   0.09257
 Alpha virt. eigenvalues --    0.11745   0.12515   0.14730   0.15503   0.16089
 Alpha virt. eigenvalues --    0.18739   0.20101   0.21717   0.23037   0.23801

 Mulliken charges:
               1
     1  C   -0.170727
     2  C   -0.038156
     3  C   -0.022552
     4  C   -0.187189
     5  H    0.086744
     6  H    0.063207
     7  H    0.052547
     8  H    0.058640
     9  H    0.071839
    10  H    0.085647
 Sum of Mulliken charges =   0.00000

 Dipole moment (field-independent basis, Debye):
    X=              0.0039    Y=              0.0063    Z=             -0.0090  Tot=              0.0117
 Quadrupole moment (field-independent basis, Debye-Ang):
   XX=            -23.5406   YY=            -23.1951   ZZ=            -29.2298
   XY=             -0.2656   XZ=             -0.3157   YZ=             -0.1001

 1\1\GINC-NODE05\SP\RB2PLYPD3-FC\def2QZVP\C4H6\BOITTIER\26-Aug-2020\0\\
 #p B2PLYPD3/Def2QZVP\\butadiene\\0,1\C,0,-3.840134,0.229864,0.00618\C,
 0,-2.725811,-0.515176,0.067301\C,0,-1.382738,0.070689,0.01596\C,0,-0.2
 64878,-0.655559,0.014829\H,0,-4.844665,-0.15758,-0.016975\H,0,-3.74797
 3,1.289576,-0.157565\H,0,-2.712982,-1.612512,0.159637\H,0,-1.345139,1.
 146397,0.154285\H,0,-0.303964,-1.7082,-0.058825\H,0,0.700304,-0.137107
 ,0.050316\\Version=ES64L-G09RevD.01\State=1-A\HF=-155.6975993\MP2=-155
 .9235573\RMSD=3.277e-09\PG=C01 [X(C4H6)]\\@

 Normal termination of Gaussian 09 at Wed Aug 26 11:54:59 2020.
