 Gaussian 09, Revision D.01,
 Gaussian 09:  ES64L-G09RevD.01 24-Apr-2013

 --------------------
 #p B2PLYPD3/Def2QZVP
 --------------------

 ---------
 butadiene
 ---------
 Symbolic Z-matrix:
 Charge =  0 Multiplicity = 1

                         Standard orientation:
 ---------------------------------------------------------------------
 Center     Atomic      Atomic             Coordinates (Angstroms)
 Number     Number       Type             X           Y           Z
 ---------------------------------------------------------------------
      1          6           0        1.818966   -0.128084    0.020162
      2          6           0        0.577150    0.466695   -0.071185
      3          6           0       -0.583450   -0.365519   -0.056983
      4          6           0       -1.843311    0.048522    0.050711
      5          1           0        2.811348    0.355499    0.056680
      6          1           0        2.014060   -1.211046    0.349181
      7          1           0        0.464257    1.517035   -0.100767
      8          1           0       -0.377318   -1.437999   -0.222705
      9          1           0       -1.941853    1.224117    0.256092
     10          1           0       -2.786626   -0.577296    0.005288
 ---------------------------------------------------------------------

 SCF Done:  E(RB2PLYPD3) =  -155.673656390     A.U. after   12 cycles
 E2(B2PLYPD3) =    -0.2287653779D+00 E(B2PLYPD3) =    -0.15590242176757D+03

 The electronic state is 1-A.
 Alpha  occ. eigenvalues --  -10.63442 -10.63325 -10.63154 -10.62536  -0.93183
 Alpha  occ. eigenvalues --   -0.83742  -0.69805  -0.63802  -0.54806  -0.52186
 Alpha  occ. eigenvalues --   -0.47281  -0.43200  -0.40673  -0.38047  -0.27231
 Alpha virt. eigenvalues --    0.00783   0.06913   0.06982   0.07834   0.09215
 Alpha virt. eigenvalues --    0.11417   0.12266   0.14176   0.15668   0.16431
 Alpha virt. eigenvalues --    0.18720   0.20202   0.20809   0.22484   0.22768

 Mulliken charges:
               1
     1  C   -0.161716
     2  C   -0.046347
     3  C   -0.013951
     4  C   -0.173475
     5  H    0.072640
     6  H    0.056533
     7  H    0.070884
     8  H    0.058307
     9  H    0.042012
    10  H    0.095113
 Sum of Mulliken charges =   0.00000

 Dipole moment (field-independent basis, Debye):
    X=              0.1099    Y=             -0.0287    Z=              0.1860  Tot=              0.2179
 Quadrupole moment (field-independent basis, Debye-Ang):
   XX=            -23.3826   YY=            -23.6362   ZZ=            -29.4124
   XY=             -0.0035   XZ=              0.4768   YZ=              0.0132

 1\1\GINC-NODE23\SP\RB2PLYPD3-FC\def2QZVP\C4H6\BOITTIER\26-Aug-2020\0\\
 #p B2PLYPD3/Def2QZVP\\butadiene\\0,1\C,0,-3.817235,0.255279,0.050299\C
 ,0,-2.709846,-0.564201,-0.029416\C,0,-1.413494,0.035132,-0.036282\C,0,
 -0.25324,-0.605837,0.078805\H,0,-4.882564,-0.032215,0.099577\H,0,-3.80
 3426,1.362662,0.354658\H,0,-2.796478,-1.617433,-0.035031\H,0,-1.415443
 ,1.123281,-0.226274\H,0,-0.3761,-1.77413,0.310995\H,0,0.790567,-0.1696
 54,0.017437\\Version=ES64L-G09RevD.01\State=1-A\HF=-155.6736564\MP2=-1
 55.9024218\RMSD=4.342e-09\PG=C01 [X(C4H6)]\\@

 Normal termination of Gaussian 09 at Wed Aug 26 15:26:02 2020.
