 Gaussian 09, Revision D.01,
 Gaussian 09:  ES64L-G09RevD.01 24-Apr-2013

 --------------------
 #p B2PLYPD3/Def2QZVP
 --------------------

 ---------
 butadiene
 ---------
 Symbolic Z-matrix:
 Charge =  0 Multiplicity = 1

                         Standard orientation:
 ---------------------------------------------------------------------
 Center     Atomic      Atomic             Coordinates (Angstroms)
 Number     Number       Type             X           Y           Z
 ---------------------------------------------------------------------
      1          6           0       -1.852321    0.120543   -0.038009
      2          6           0       -0.619677   -0.426998    0.011376
      3          6           0        0.598962    0.390849    0.047782
      4          6           0        1.856965   -0.110710   -0.016040
      5          1           0       -2.771972   -0.490051   -0.003035
      6          1           0       -2.001094    1.193977   -0.081143
      7          1           0       -0.463949   -1.453283    0.176743
      8          1           0        0.530924    1.480585    0.102718
      9          1           0        2.086067   -1.124638   -0.154335
     10          1           0        2.716452    0.551299   -0.071602
 ---------------------------------------------------------------------

 SCF Done:  E(RB2PLYPD3) =  -155.695491689     A.U. after   11 cycles
 E2(B2PLYPD3) =    -0.2264021069D+00 E(B2PLYPD3) =    -0.15592189379626D+03

 The electronic state is 1-A.
 Alpha  occ. eigenvalues --  -10.63013 -10.62770 -10.62187 -10.61375  -0.92490
 Alpha  occ. eigenvalues --   -0.84501  -0.70275  -0.64597  -0.54347  -0.53872
 Alpha  occ. eigenvalues --   -0.46762  -0.45628  -0.41382  -0.37521  -0.27480
 Alpha virt. eigenvalues --    0.01382   0.06991   0.07582   0.07978   0.09171
 Alpha virt. eigenvalues --    0.11593   0.12477   0.14696   0.15608   0.16333
 Alpha virt. eigenvalues --    0.18893   0.20283   0.21603   0.22655   0.23772

 Mulliken charges:
               1
     1  C   -0.170707
     2  C   -0.047905
     3  C   -0.032505
     4  C   -0.177047
     5  H    0.081846
     6  H    0.070417
     7  H    0.073572
     8  H    0.057590
     9  H    0.066866
    10  H    0.077875
 Sum of Mulliken charges =   0.00000

 Dipole moment (field-independent basis, Debye):
    X=             -0.0395    Y=             -0.0051    Z=              0.0026  Tot=              0.0399
 Quadrupole moment (field-independent basis, Debye-Ang):
   XX=            -23.3874   YY=            -23.1257   ZZ=            -29.3338
   XY=             -0.2690   XZ=             -0.4541   YZ=             -0.0795

 1\1\GINC-NODE37\SP\RB2PLYPD3-FC\def2QZVP\C4H6\BOITTIER\26-Aug-2020\0\\
 #p B2PLYPD3/Def2QZVP\\butadiene\\0,1\C,0,-3.85117,0.234407,-0.014402\C
 ,0,-2.735196,-0.521723,0.052828\C,0,-1.39028,0.066886,0.057495\C,0,-0.
 242088,-0.652555,0.009881\H,0,-4.864438,-0.201086,0.044243\H,0,-3.8070
 1,1.314963,-0.096272\H,0,-2.763139,-1.552816,0.255125\H,0,-1.262983,1.
 152579,0.072906\H,0,-0.198085,-1.695329,-0.091853\H,0,0.720955,-0.1565
 21,-0.071108\\Version=ES64L-G09RevD.01\State=1-A\HF=-155.6954917\MP2=-
 155.9218938\RMSD=3.403e-09\PG=C01 [X(C4H6)]\\@

 Normal termination of Gaussian 09 at Wed Aug 26 10:05:15 2020.
