 Gaussian 09, Revision D.01,
 Gaussian 09:  ES64L-G09RevD.01 24-Apr-2013

 --------------------
 #p B2PLYPD3/Def2QZVP
 --------------------

 ---------
 butadiene
 ---------
 Symbolic Z-matrix:
 Charge =  0 Multiplicity = 1

                         Standard orientation:
 ---------------------------------------------------------------------
 Center     Atomic      Atomic             Coordinates (Angstroms)
 Number     Number       Type             X           Y           Z
 ---------------------------------------------------------------------
      1          6           0        1.828627   -0.123578   -0.048190
      2          6           0        0.605749    0.414884    0.041340
      3          6           0       -0.598033   -0.357445    0.017558
      4          6           0       -1.860949    0.078092   -0.047625
      5          1           0        2.723250    0.421798   -0.083088
      6          1           0        2.105408   -1.138634   -0.068852
      7          1           0        0.542339    1.511450    0.301271
      8          1           0       -0.380620   -1.322548    0.189501
      9          1           0       -2.150103    1.089867   -0.232721
     10          1           0       -2.692636   -0.633650    0.115385
 ---------------------------------------------------------------------

 SCF Done:  E(RB2PLYPD3) =  -155.683371115     A.U. after   11 cycles
 E2(B2PLYPD3) =    -0.2256776326D+00 E(B2PLYPD3) =    -0.15590904874803D+03

 The electronic state is 1-A.
 Alpha  occ. eigenvalues --  -10.62988 -10.61740 -10.61484 -10.61076  -0.93390
 Alpha  occ. eigenvalues --   -0.84911  -0.71598  -0.64735  -0.55289  -0.53904
 Alpha  occ. eigenvalues --   -0.47546  -0.45728  -0.41201  -0.37300  -0.27573
 Alpha virt. eigenvalues --    0.01232   0.07070   0.07634   0.07927   0.09648
 Alpha virt. eigenvalues --    0.11483   0.12550   0.14875   0.15725   0.16297
 Alpha virt. eigenvalues --    0.19182   0.19728   0.21901   0.22795   0.23315

 Mulliken charges:
               1
     1  C   -0.169297
     2  C   -0.038577
     3  C   -0.034762
     4  C   -0.181128
     5  H    0.075669
     6  H    0.058532
     7  H    0.062679
     8  H    0.070551
     9  H    0.076848
    10  H    0.079485
 Sum of Mulliken charges =   0.00000

 Dipole moment (field-independent basis, Debye):
    X=              0.1518    Y=             -0.0570    Z=              0.2213  Tot=              0.2744
 Quadrupole moment (field-independent basis, Debye-Ang):
   XX=            -22.9032   YY=            -23.5608   ZZ=            -28.9372
   XY=             -0.6559   XZ=             -0.1315   YZ=             -0.1988

 1\1\GINC-NODE24\SP\RB2PLYPD3-FC\def2QZVP\C4H6\BOITTIER\26-Aug-2020\0\\
 #p B2PLYPD3/Def2QZVP\\butadiene\\0,1\C,0,-3.828539,0.246297,-0.025287\
 C,0,-2.726807,-0.507135,0.083857\C,0,-1.400482,0.026606,0.037698\C,0,-
 0.24089,-0.638129,-0.011011\H,0,-4.809126,-0.123954,-0.044444\H,0,-3.9
 11767,1.293942,-0.079016\H,0,-2.867421,-1.587508,0.378925\H,0,-1.43389
 2,1.020287,0.178192\H,0,-0.145725,-1.691409,-0.163015\H,0,0.709321,-0.
 088712,0.130736\\Version=ES64L-G09RevD.01\State=1-A\HF=-155.6833711\MP
 2=-155.9090487\RMSD=6.983e-09\PG=C01 [X(C4H6)]\\@

 Normal termination of Gaussian 09 at Wed Aug 26 15:50:44 2020.
