 Gaussian 09, Revision D.01,
 Gaussian 09:  ES64L-G09RevD.01 24-Apr-2013

 --------------------
 #p B2PLYPD3/Def2QZVP
 --------------------

 ---------
 butadiene
 ---------
 Symbolic Z-matrix:
 Charge =  0 Multiplicity = 1

                         Standard orientation:
 ---------------------------------------------------------------------
 Center     Atomic      Atomic             Coordinates (Angstroms)
 Number     Number       Type             X           Y           Z
 ---------------------------------------------------------------------
      1          6           0        1.819205   -0.128977    0.009226
      2          6           0        0.594192    0.424774   -0.060122
      3          6           0       -0.600274   -0.377124   -0.053635
      4          6           0       -1.836627    0.098462    0.041964
      5          1           0        2.699369    0.516164    0.201017
      6          1           0        2.015228   -1.203160    0.054206
      7          1           0        0.480572    1.509380   -0.019430
      8          1           0       -0.412249   -1.481635    0.029874
      9          1           0       -1.974860    1.154888    0.065556
     10          1           0       -2.667035   -0.598450    0.044183
 ---------------------------------------------------------------------

 SCF Done:  E(RB2PLYPD3) =  -155.695580295     A.U. after   11 cycles
 E2(B2PLYPD3) =    -0.2264251711D+00 E(B2PLYPD3) =    -0.15592200546622D+03

 The electronic state is 1-A.
 Alpha  occ. eigenvalues --  -10.62746 -10.62499 -10.62114 -10.61190  -0.93201
 Alpha  occ. eigenvalues --   -0.84788  -0.70012  -0.63707  -0.54473  -0.53750
 Alpha  occ. eigenvalues --   -0.46637  -0.45176  -0.41100  -0.38274  -0.27530
 Alpha virt. eigenvalues --    0.01565   0.06997   0.07231   0.07984   0.09529
 Alpha virt. eigenvalues --    0.11773   0.12314   0.14815   0.15569   0.16183
 Alpha virt. eigenvalues --    0.18693   0.19851   0.21622   0.23272   0.23834

 Mulliken charges:
               1
     1  C   -0.170467
     2  C   -0.034904
     3  C   -0.014811
     4  C   -0.184905
     5  H    0.076559
     6  H    0.067680
     7  H    0.055383
     8  H    0.045939
     9  H    0.068472
    10  H    0.091054
 Sum of Mulliken charges =   0.00000

 Dipole moment (field-independent basis, Debye):
    X=              0.0334    Y=              0.0090    Z=              0.2567  Tot=              0.2591
 Quadrupole moment (field-independent basis, Debye-Ang):
   XX=            -23.9334   YY=            -23.0071   ZZ=            -29.2831
   XY=             -0.2231   XZ=              0.4382   YZ=              0.0459

 1\1\GINC-NODE10\SP\RB2PLYPD3-FC\def2QZVP\C4H6\BOITTIER\26-Aug-2020\0\\
 #p B2PLYPD3/Def2QZVP\\butadiene\\0,1\C,0,-3.819168,0.246418,0.041028\C
 ,0,-2.716354,-0.523415,-0.016088\C,0,-1.395518,0.046632,-0.032543\C,0,
 -0.266211,-0.644292,0.073182\H,0,-4.801081,-0.221994,0.251067\H,0,-3.8
 15437,1.339121,0.058446\H,0,-2.802448,-1.609146,0.052554\H,0,-1.378136
 ,1.168653,0.022589\H,0,-0.323071,-1.707255,0.123954\H,0,0.677497,-0.11
 1015,0.055831\\Version=ES64L-G09RevD.01\State=1-A\HF=-155.6955803\MP2=
 -155.9220055\RMSD=6.712e-09\PG=C01 [X(C4H6)]\\@

 Normal termination of Gaussian 09 at Wed Aug 26 09:09:26 2020.
