 Gaussian 09, Revision D.01,
 Gaussian 09:  ES64L-G09RevD.01 24-Apr-2013

 --------------------
 #p B2PLYPD3/Def2QZVP
 --------------------

 ---------
 butadiene
 ---------
 Symbolic Z-matrix:
 Charge =  0 Multiplicity = 1

                         Standard orientation:
 ---------------------------------------------------------------------
 Center     Atomic      Atomic             Coordinates (Angstroms)
 Number     Number       Type             X           Y           Z
 ---------------------------------------------------------------------
      1          6           0        1.845042    0.110028   -0.006983
      2          6           0        0.610899   -0.388902    0.007936
      3          6           0       -0.609989    0.410574    0.011697
      4          6           0       -1.840009   -0.123899   -0.013227
      5          1           0        2.707282   -0.547772   -0.011287
      6          1           0        1.970581    1.169892    0.001815
      7          1           0        0.500644   -1.464327   -0.029617
      8          1           0       -0.503286    1.474889    0.024875
      9          1           0       -1.999531   -1.189990    0.066395
     10          1           0       -2.711344    0.510505   -0.048718
 ---------------------------------------------------------------------

 SCF Done:  E(RB2PLYPD3) =  -155.700728812     A.U. after   11 cycles
 E2(B2PLYPD3) =    -0.2255319617D+00 E(B2PLYPD3) =    -0.15592626077398D+03

 The electronic state is 1-A.
 Alpha  occ. eigenvalues --  -10.62537 -10.62315 -10.61563 -10.61228  -0.92926
 Alpha  occ. eigenvalues --   -0.85024  -0.70041  -0.64313  -0.54473  -0.54229
 Alpha  occ. eigenvalues --   -0.46601  -0.45786  -0.41397  -0.37997  -0.27679
 Alpha virt. eigenvalues --    0.01767   0.07006   0.07510   0.08053   0.09569
 Alpha virt. eigenvalues --    0.11730   0.12423   0.14707   0.15819   0.16194
 Alpha virt. eigenvalues --    0.18765   0.20423   0.21511   0.22958   0.24065

 Mulliken charges:
               1
     1  C   -0.180563
     2  C   -0.023586
     3  C   -0.039666
     4  C   -0.175570
     5  H    0.088519
     6  H    0.066424
     7  H    0.053126
     8  H    0.057510
     9  H    0.069542
    10  H    0.084263
 Sum of Mulliken charges =   0.00000

 Dipole moment (field-independent basis, Debye):
    X=             -0.0272    Y=              0.0029    Z=              0.0222  Tot=              0.0353
 Quadrupole moment (field-independent basis, Debye-Ang):
   XX=            -23.5783   YY=            -23.0135   ZZ=            -29.2538
   XY=             -0.0167   XZ=             -0.0490   YZ=             -0.0398

 1\1\GINC-NODE34\SP\RB2PLYPD3-FC\def2QZVP\C4H6\BOITTIER\26-Aug-2020\0\\
 #p B2PLYPD3/Def2QZVP\\butadiene\\0,1\C,0,-3.848439,0.217845,0.026479\C
 ,0,-2.721599,-0.491022,0.027191\C,0,-1.378955,0.080318,0.002221\C,0,-0
 .262284,-0.661674,0.043763\H,0,-4.813082,-0.277293,0.048404\H,0,-3.785
 275,1.28257,-0.012523\H,0,-2.80244,-1.567555,0.095359\H,0,-1.296483,1.
 145979,-0.041263\H,0,-0.293432,-1.741002,-0.005403\H,0,0.70734,-0.1900
 39,0.062292\\Version=ES64L-G09RevD.01\State=1-A\HF=-155.7007288\MP2=-1
 55.9262608\RMSD=4.873e-09\PG=C01 [X(C4H6)]\\@

 Normal termination of Gaussian 09 at Wed Aug 26 19:16:34 2020.
