 Gaussian 09, Revision D.01,
 Gaussian 09:  ES64L-G09RevD.01 24-Apr-2013

 --------------------
 #p B2PLYPD3/Def2QZVP
 --------------------

 ---------
 butadiene
 ---------
 Symbolic Z-matrix:
 Charge =  0 Multiplicity = 1

                         Standard orientation:
 ---------------------------------------------------------------------
 Center     Atomic      Atomic             Coordinates (Angstroms)
 Number     Number       Type             X           Y           Z
 ---------------------------------------------------------------------
      1          6           0        1.836171   -0.114435   -0.044704
      2          6           0        0.597626    0.423516    0.016523
      3          6           0       -0.585531   -0.386436    0.025733
      4          6           0       -1.837765    0.096934   -0.017829
      5          1           0        2.697825    0.495028    0.129696
      6          1           0        1.980801   -1.200613   -0.099585
      7          1           0        0.387660    1.469159    0.073087
      8          1           0       -0.460656   -1.411933    0.118518
      9          1           0       -2.043165    1.150383   -0.106466
     10          1           0       -2.625469   -0.619503    0.006413
 ---------------------------------------------------------------------

 SCF Done:  E(RB2PLYPD3) =  -155.695603858     A.U. after   11 cycles
 E2(B2PLYPD3) =    -0.2259869038D+00 E(B2PLYPD3) =    -0.15592159076215D+03

 The electronic state is 1-A.
 Alpha  occ. eigenvalues --  -10.62424 -10.61834 -10.61630 -10.61246  -0.93301
 Alpha  occ. eigenvalues --   -0.84644  -0.70617  -0.64833  -0.54480  -0.54111
 Alpha  occ. eigenvalues --   -0.46615  -0.46280  -0.41687  -0.37960  -0.27283
 Alpha virt. eigenvalues --    0.01306   0.07043   0.07484   0.08198   0.09563
 Alpha virt. eigenvalues --    0.11833   0.12347   0.14949   0.15693   0.16103
 Alpha virt. eigenvalues --    0.18697   0.20125   0.21635   0.22771   0.24322

 Mulliken charges:
               1
     1  C   -0.174759
     2  C   -0.040403
     3  C   -0.020984
     4  C   -0.188686
     5  H    0.085493
     6  H    0.066325
     7  H    0.059683
     8  H    0.058777
     9  H    0.069543
    10  H    0.085012
 Sum of Mulliken charges =   0.00000

 Dipole moment (field-independent basis, Debye):
    X=             -0.0106    Y=             -0.0245    Z=              0.1383  Tot=              0.1409
 Quadrupole moment (field-independent basis, Debye-Ang):
   XX=            -23.8836   YY=            -22.9491   ZZ=            -29.1933
   XY=             -0.2896   XZ=              0.4009   YZ=              0.0267

 1\1\GINC-NODE29\SP\RB2PLYPD3-FC\def2QZVP\C4H6\BOITTIER\26-Aug-2020\0\\
 #p B2PLYPD3/Def2QZVP\\butadiene\\0,1\C,0,-3.833024,0.241573,-0.0184\C,
 0,-2.716644,-0.516704,0.058057\C,0,-1.402777,0.057252,0.040873\C,0,-0.
 263458,-0.653162,0.010887\H,0,-4.792289,-0.190198,0.175742\H,0,-3.7722
 ,1.333459,-0.106706\H,0,-2.70569,-1.580975,0.146717\H,0,-1.332886,1.09
 0317,0.102018\H,0,-0.259452,-1.728626,-0.045337\H,0,0.644555,-0.096513
 ,0.012065\\Version=ES64L-G09RevD.01\State=1-A\HF=-155.6956039\MP2=-155
 .9215908\RMSD=6.043e-09\PG=C01 [X(C4H6)]\\@

 Normal termination of Gaussian 09 at Wed Aug 26 10:21:21 2020.
