 Gaussian 09, Revision D.01,
 Gaussian 09:  ES64L-G09RevD.01 24-Apr-2013

 --------------------
 #p B2PLYPD3/Def2QZVP
 --------------------

 ---------
 butadiene
 ---------
 Symbolic Z-matrix:
 Charge =  0 Multiplicity = 1

                         Standard orientation:
 ---------------------------------------------------------------------
 Center     Atomic      Atomic             Coordinates (Angstroms)
 Number     Number       Type             X           Y           Z
 ---------------------------------------------------------------------
      1          6           0        1.883598   -0.108643    0.044655
      2          6           0        0.633152    0.368900   -0.075947
      3          6           0       -0.627323   -0.391656   -0.034544
      4          6           0       -1.857763    0.110793    0.021203
      5          1           0        2.658147    0.609800   -0.006333
      6          1           0        2.081536   -1.145105    0.259973
      7          1           0        0.341434    1.481834   -0.195600
      8          1           0       -0.475367   -1.489133   -0.130695
      9          1           0       -1.976078    1.202701    0.391777
     10          1           0       -2.819658   -0.536467   -0.051316
 ---------------------------------------------------------------------

 SCF Done:  E(RB2PLYPD3) =  -155.679189039     A.U. after   12 cycles
 E2(B2PLYPD3) =    -0.2276782833D+00 E(B2PLYPD3) =    -0.15590686732274D+03

 The electronic state is 1-A.
 Alpha  occ. eigenvalues --  -10.63725 -10.63289 -10.62958 -10.61828  -0.92462
 Alpha  occ. eigenvalues --   -0.84851  -0.69898  -0.62404  -0.54048  -0.53233
 Alpha  occ. eigenvalues --   -0.47133  -0.45197  -0.39431  -0.37598  -0.27982
 Alpha virt. eigenvalues --    0.01171   0.06857   0.07169   0.07769   0.09397
 Alpha virt. eigenvalues --    0.11552   0.11959   0.14782   0.15529   0.15782
 Alpha virt. eigenvalues --    0.18765   0.20053   0.20497   0.22124   0.23270

 Mulliken charges:
               1
     1  C   -0.181168
     2  C   -0.033912
     3  C   -0.024804
     4  C   -0.173404
     5  H    0.096840
     6  H    0.079338
     7  H    0.042380
     8  H    0.048507
     9  H    0.060444
    10  H    0.085778
 Sum of Mulliken charges =   0.00000

 Dipole moment (field-independent basis, Debye):
    X=              0.0459    Y=             -0.0977    Z=              0.2084  Tot=              0.2347
 Quadrupole moment (field-independent basis, Debye-Ang):
   XX=            -23.5754   YY=            -23.6204   ZZ=            -29.2979
   XY=             -0.1487   XZ=              0.0112   YZ=              0.1099

 1\1\GINC-NODE30\SP\RB2PLYPD3-FC\def2QZVP\C4H6\BOITTIER\26-Aug-2020\0\\
 #p B2PLYPD3/Def2QZVP\\butadiene\\0,1\C,0,-3.882787,0.226684,0.064391\C
 ,0,-2.737977,-0.470528,-0.033145\C,0,-1.362043,0.054462,-0.020961\C,0,
 -0.240424,-0.656291,0.058699\H,0,-4.773116,-0.343838,0.041959\H,0,-3.8
 91918,1.289919,0.2354\H,0,-2.649673,-1.621639,-0.105139\H,0,-1.316708,
 1.156455,-0.163609\H,0,-0.316424,-1.735329,0.475216\H,0,0.820934,-0.19
 4283,-0.038842\\Version=ES64L-G09RevD.01\State=1-A\HF=-155.679189\MP2=
 -155.9068673\RMSD=3.304e-09\PG=C01 [X(C4H6)]\\@

 Normal termination of Gaussian 09 at Wed Aug 26 12:48:22 2020.
