 Gaussian 09, Revision D.01,
 Gaussian 09:  ES64L-G09RevD.01 24-Apr-2013

 --------------------
 #p B2PLYPD3/Def2QZVP
 --------------------

 ---------
 butadiene
 ---------
 Symbolic Z-matrix:
 Charge =  0 Multiplicity = 1

                         Standard orientation:
 ---------------------------------------------------------------------
 Center     Atomic      Atomic             Coordinates (Angstroms)
 Number     Number       Type             X           Y           Z
 ---------------------------------------------------------------------
      1          6           0        1.841856   -0.117863    0.022960
      2          6           0        0.603420    0.416660   -0.023333
      3          6           0       -0.607091   -0.385182   -0.034162
      4          6           0       -1.835887    0.103212    0.010040
      5          1           0        2.745199    0.461362    0.062139
      6          1           0        1.971534   -1.205641    0.017024
      7          1           0        0.496017    1.511073   -0.035138
      8          1           0       -0.519824   -1.477926   -0.051394
      9          1           0       -2.030149    1.165914    0.025657
     10          1           0       -2.676566   -0.555746    0.128690
 ---------------------------------------------------------------------

 SCF Done:  E(RB2PLYPD3) =  -155.699661961     A.U. after   11 cycles
 E2(B2PLYPD3) =    -0.2258874873D+00 E(B2PLYPD3) =    -0.15592554944863D+03

 The electronic state is 1-A.
 Alpha  occ. eigenvalues --  -10.63015 -10.62438 -10.61821 -10.61141  -0.92937
 Alpha  occ. eigenvalues --   -0.84926  -0.70102  -0.63820  -0.54635  -0.54028
 Alpha  occ. eigenvalues --   -0.46553  -0.45288  -0.41304  -0.38095  -0.27646
 Alpha virt. eigenvalues --    0.01698   0.07023   0.07378   0.07991   0.09595
 Alpha virt. eigenvalues --    0.11621   0.12483   0.14614   0.15918   0.16244
 Alpha virt. eigenvalues --    0.18806   0.20469   0.21611   0.22609   0.23903

 Mulliken charges:
               1
     1  C   -0.171875
     2  C   -0.039748
     3  C   -0.020698
     4  C   -0.174191
     5  H    0.087668
     6  H    0.062657
     7  H    0.055498
     8  H    0.052300
     9  H    0.064273
    10  H    0.084116
 Sum of Mulliken charges =   0.00000

 Dipole moment (field-independent basis, Debye):
    X=              0.0132    Y=              0.0026    Z=              0.0959  Tot=              0.0968
 Quadrupole moment (field-independent basis, Debye-Ang):
   XX=            -23.4456   YY=            -23.1024   ZZ=            -29.2834
   XY=             -0.0339   XZ=             -0.2116   YZ=             -0.0289

 1\1\GINC-NODE35\SP\RB2PLYPD3-FC\def2QZVP\C4H6\BOITTIER\26-Aug-2020\0\\
 #p B2PLYPD3/Def2QZVP\\butadiene\\0,1\C,0,-3.842825,0.23134,0.041053\C,
 0,-2.719577,-0.516397,0.013031\C,0,-1.385533,0.056273,-0.014923\C,0,-0
 .26342,-0.641967,0.046268\H,0,-4.834896,-0.176352,0.092495\H,0,-3.7765
 25,1.324265,0.00596\H,0,-2.809004,-1.61235,0.030491\H,0,-1.276632,1.14
 6223,-0.061297\H,0,-0.261687,-1.72148,0.090592\H,0,0.681429,-0.140483,
 0.150284\\Version=ES64L-G09RevD.01\State=1-A\HF=-155.699662\MP2=-155.9
 255494\RMSD=5.608e-09\PG=C01 [X(C4H6)]\\@

 Normal termination of Gaussian 09 at Wed Aug 26 10:33:58 2020.
