 Gaussian 09, Revision D.01,
 Gaussian 09:  ES64L-G09RevD.01 24-Apr-2013

 --------------------
 #p B2PLYPD3/Def2QZVP
 --------------------

 ---------
 butadiene
 ---------
 Symbolic Z-matrix:
 Charge =  0 Multiplicity = 1

                         Standard orientation:
 ---------------------------------------------------------------------
 Center     Atomic      Atomic             Coordinates (Angstroms)
 Number     Number       Type             X           Y           Z
 ---------------------------------------------------------------------
      1          6           0       -1.844048    0.139581    0.022078
      2          6           0       -0.641644   -0.448029   -0.035142
      3          6           0        0.591097    0.349659   -0.066280
      4          6           0        1.859714   -0.097170    0.044177
      5          1           0       -2.782427   -0.396715   -0.017940
      6          1           0       -1.887752    1.246626    0.066348
      7          1           0       -0.542869   -1.505162    0.183696
      8          1           0        0.610513    1.507155   -0.001052
      9          1           0        2.147617   -1.066697   -0.155289
     10          1           0        2.664207    0.550547    0.135240
 ---------------------------------------------------------------------

 SCF Done:  E(RB2PLYPD3) =  -155.681905074     A.U. after   11 cycles
 E2(B2PLYPD3) =    -0.2268141422D+00 E(B2PLYPD3) =    -0.15590871921635D+03

 The electronic state is 1-A.
 Alpha  occ. eigenvalues --  -10.63565 -10.63204 -10.62189 -10.60432  -0.92530
 Alpha  occ. eigenvalues --   -0.85093  -0.70408  -0.63659  -0.54954  -0.53964
 Alpha  occ. eigenvalues --   -0.46860  -0.44875  -0.41165  -0.37496  -0.27530
 Alpha virt. eigenvalues --    0.01258   0.07036   0.07459   0.07867   0.08991
 Alpha virt. eigenvalues --    0.11589   0.12611   0.14386   0.15368   0.16727
 Alpha virt. eigenvalues --    0.18713   0.19634   0.21424   0.23053   0.24545

 Mulliken charges:
               1
     1  C   -0.161685
     2  C   -0.048974
     3  C   -0.028208
     4  C   -0.173869
     5  H    0.089258
     6  H    0.066181
     7  H    0.073738
     8  H    0.041906
     9  H    0.066294
    10  H    0.075358
 Sum of Mulliken charges =   0.00000

 Dipole moment (field-independent basis, Debye):
    X=             -0.0692    Y=             -0.0471    Z=              0.1042  Tot=              0.1336
 Quadrupole moment (field-independent basis, Debye-Ang):
   XX=            -23.0763   YY=            -23.3876   ZZ=            -29.2466
   XY=              0.1097   XZ=             -0.1249   YZ=              0.1290

 1\1\GINC-NODE03\SP\RB2PLYPD3-FC\def2QZVP\C4H6\BOITTIER\26-Aug-2020\0\\
 #p B2PLYPD3/Def2QZVP\\butadiene\\0,1\C,0,-3.839162,0.244651,0.047899\C
 ,0,-2.755643,-0.541662,0.00281\C,0,-1.404384,0.031791,-0.043855\C,0,-0
 .23095,-0.623917,0.07591\H,0,-4.855785,-0.123278,0.018297\H,0,-3.69206
 7,1.343419,0.07004\H,0,-2.839099,-1.595532,0.242745\H,0,-1.186382,1.16
 9829,-0.001747\H,0,-0.11435,-1.632218,-0.104064\H,0,0.673058,-0.122252
 ,0.154279\\Version=ES64L-G09RevD.01\State=1-A\HF=-155.6819051\MP2=-155
 .9087192\RMSD=6.018e-09\PG=C01 [X(C4H6)]\\@

 Normal termination of Gaussian 09 at Wed Aug 26 11:39:26 2020.
