 Gaussian 09, Revision D.01,
 Gaussian 09:  ES64L-G09RevD.01 24-Apr-2013

 --------------------
 #p B2PLYPD3/Def2QZVP
 --------------------

 ---------
 butadiene
 ---------
 Symbolic Z-matrix:
 Charge =  0 Multiplicity = 1

                         Standard orientation:
 ---------------------------------------------------------------------
 Center     Atomic      Atomic             Coordinates (Angstroms)
 Number     Number       Type             X           Y           Z
 ---------------------------------------------------------------------
      1          6           0       -1.835076   -0.111451    0.011851
      2          6           0       -0.605540    0.420562   -0.011507
      3          6           0        0.604167   -0.400068   -0.033743
      4          6           0        1.842089    0.102697    0.006366
      5          1           0       -2.755935    0.469808    0.034876
      6          1           0       -1.984286   -1.204818    0.012904
      7          1           0       -0.480053    1.513246   -0.014733
      8          1           0        0.442661   -1.458218    0.029225
      9          1           0        2.051322    1.168406    0.041661
     10          1           0        2.692458   -0.558864    0.058268
 ---------------------------------------------------------------------

 SCF Done:  E(RB2PLYPD3) =  -155.699887651     A.U. after   11 cycles
 E2(B2PLYPD3) =    -0.2260082746D+00 E(B2PLYPD3) =    -0.15592589592594D+03

 The electronic state is 1-A.
 Alpha  occ. eigenvalues --  -10.62868 -10.62528 -10.61902 -10.61550  -0.92804
 Alpha  occ. eigenvalues --   -0.84702  -0.69962  -0.64079  -0.54593  -0.53608
 Alpha  occ. eigenvalues --   -0.46790  -0.45346  -0.41040  -0.38015  -0.27663
 Alpha virt. eigenvalues --    0.01750   0.07015   0.07334   0.08083   0.09396
 Alpha virt. eigenvalues --    0.11628   0.12438   0.14621   0.15787   0.16239
 Alpha virt. eigenvalues --    0.18813   0.20416   0.21692   0.22910   0.23660

 Mulliken charges:
               1
     1  C   -0.170858
     2  C   -0.032604
     3  C   -0.032538
     4  C   -0.175228
     5  H    0.084620
     6  H    0.059041
     7  H    0.055667
     8  H    0.060162
     9  H    0.068335
    10  H    0.083404
 Sum of Mulliken charges =   0.00000

 Dipole moment (field-independent basis, Debye):
    X=             -0.0149    Y=              0.0002    Z=              0.1172  Tot=              0.1181
 Quadrupole moment (field-independent basis, Debye-Ang):
   XX=            -23.4383   YY=            -23.1007   ZZ=            -29.3417
   XY=              0.2540   XZ=              0.1717   YZ=             -0.0493

 1\1\GINC-NODE33\SP\RB2PLYPD3-FC\def2QZVP\C4H6\BOITTIER\26-Aug-2020\0\\
 #p B2PLYPD3/Def2QZVP\\butadiene\\0,1\C,0,-3.836828,0.228986,0.004926\C
 ,0,-2.72441,-0.51674,0.046892\C,0,-1.385553,0.070423,0.042268\C,0,-0.2
 59921,-0.65019,0.019825\H,0,-4.848137,-0.175502,0.000891\H,0,-3.784753
 ,1.330607,-0.03296\H,0,-2.799675,-1.613302,0.086912\H,0,-1.352314,1.13
 7618,-0.056322\H,0,-0.248146,-1.736753,0.020491\H,0,0.696261,-0.156445
 ,-0.053766\\Version=ES64L-G09RevD.01\State=1-A\HF=-155.6998877\MP2=-15
 5.9258959\RMSD=3.265e-09\PG=C01 [X(C4H6)]\\@

 Normal termination of Gaussian 09 at Wed Aug 26 08:46:53 2020.
