 Gaussian 09, Revision D.01,
 Gaussian 09:  ES64L-G09RevD.01 24-Apr-2013

 --------------------
 #p B2PLYPD3/Def2QZVP
 --------------------

 ---------
 butadiene
 ---------
 Symbolic Z-matrix:
 Charge =  0 Multiplicity = 1

                         Standard orientation:
 ---------------------------------------------------------------------
 Center     Atomic      Atomic             Coordinates (Angstroms)
 Number     Number       Type             X           Y           Z
 ---------------------------------------------------------------------
      1          6           0        1.828567    0.114422   -0.019116
      2          6           0        0.604260   -0.404669    0.010686
      3          6           0       -0.593818    0.385305   -0.003178
      4          6           0       -1.829915   -0.107470   -0.007892
      5          1           0        2.692979   -0.513517    0.017709
      6          1           0        1.919670    1.201863   -0.000393
      7          1           0        0.473619   -1.486347    0.070292
      8          1           0       -0.441900    1.475700    0.048442
      9          1           0       -2.012384   -1.163207   -0.054872
     10          1           0       -2.686548    0.559980    0.035822
 ---------------------------------------------------------------------

 SCF Done:  E(RB2PLYPD3) =  -155.700263407     A.U. after   11 cycles
 E2(B2PLYPD3) =    -0.2256463711D+00 E(B2PLYPD3) =    -0.15592590977790D+03

 The electronic state is 1-A.
 Alpha  occ. eigenvalues --  -10.62388 -10.62220 -10.61379 -10.61364  -0.93378
 Alpha  occ. eigenvalues --   -0.85060  -0.70230  -0.63836  -0.54794  -0.53925
 Alpha  occ. eigenvalues --   -0.46608  -0.45641  -0.41192  -0.38360  -0.27672
 Alpha virt. eigenvalues --    0.01753   0.07044   0.07323   0.08050   0.09778
 Alpha virt. eigenvalues --    0.11770   0.12401   0.14774   0.15854   0.16008
 Alpha virt. eigenvalues --    0.18667   0.20502   0.21465   0.22803   0.24082

 Mulliken charges:
               1
     1  C   -0.177858
     2  C   -0.025477
     3  C   -0.020399
     4  C   -0.181987
     5  H    0.090620
     6  H    0.063904
     7  H    0.049418
     8  H    0.046859
     9  H    0.068777
    10  H    0.086144
 Sum of Mulliken charges =   0.00000

 Dipole moment (field-independent basis, Debye):
    X=              0.0052    Y=             -0.0356    Z=              0.1090  Tot=              0.1148
 Quadrupole moment (field-independent basis, Debye-Ang):
   XX=            -23.6573   YY=            -23.0875   ZZ=            -29.2133
   XY=              0.0287   XZ=              0.0703   YZ=              0.0639

 1\1\GINC-NODE30\SP\RB2PLYPD3-FC\def2QZVP\C4H6\BOITTIER\26-Aug-2020\0\\
 #p B2PLYPD3/Def2QZVP\\butadiene\\0,1\C,0,-3.82839,0.229988,0.03289\C,0
 ,-2.718328,-0.502774,0.023182\C,0,-1.397045,0.057379,0.014189\C,0,-0.2
 70507,-0.650522,0.038147\H,0,-4.792277,-0.232023,0.014469\H,0,-3.72128
 7,1.314761,-0.021658\H,0,-2.785773,-1.591595,-0.000645\H,0,-1.349333,1
 .154986,-0.073488\H,0,-0.281918,-1.719742,0.120129\H,0,0.6926,-0.15089
 6,-0.025241\\Version=ES64L-G09RevD.01\State=1-A\HF=-155.7002634\MP2=-1
 55.9259098\RMSD=2.650e-09\PG=C01 [X(C4H6)]\\@

 Normal termination of Gaussian 09 at Wed Aug 26 09:25:16 2020.
