 Gaussian 09, Revision D.01,
 Gaussian 09:  ES64L-G09RevD.01 24-Apr-2013

 --------------------
 #p B2PLYPD3/Def2QZVP
 --------------------

 ---------
 butadiene
 ---------
 Symbolic Z-matrix:
 Charge =  0 Multiplicity = 1

                         Standard orientation:
 ---------------------------------------------------------------------
 Center     Atomic      Atomic             Coordinates (Angstroms)
 Number     Number       Type             X           Y           Z
 ---------------------------------------------------------------------
      1          6           0       -1.828907    0.056038    0.017973
      2          6           0       -0.592811   -0.350863    0.021227
      3          6           0        0.614494    0.446658   -0.045733
      4          6           0        1.828399   -0.130836   -0.017851
      5          1           0       -2.812523   -0.473699   -0.103143
      6          1           0       -2.025483    1.108869    0.140924
      7          1           0       -0.481479   -1.393107   -0.163518
      8          1           0        0.494842    1.528485    0.001431
      9          1           0        1.918441   -1.317107    0.231188
     10          1           0        2.779156    0.420578    0.039423
 ---------------------------------------------------------------------

 SCF Done:  E(RB2PLYPD3) =  -155.678200385     A.U. after   11 cycles
 E2(B2PLYPD3) =    -0.2267776416D+00 E(B2PLYPD3) =    -0.15590497802695D+03

 The electronic state is 1-A.
 Alpha  occ. eigenvalues --  -10.63446 -10.63204 -10.61772 -10.61348  -0.93396
 Alpha  occ. eigenvalues --   -0.84954  -0.69526  -0.64014  -0.55133  -0.52827
 Alpha  occ. eigenvalues --   -0.47526  -0.43309  -0.40146  -0.38455  -0.28027
 Alpha virt. eigenvalues --    0.01594   0.06839   0.07203   0.07959   0.09372
 Alpha virt. eigenvalues --    0.11455   0.12556   0.14084   0.15476   0.16709
 Alpha virt. eigenvalues --    0.18787   0.19781   0.21872   0.22506   0.23273

 Mulliken charges:
               1
     1  C   -0.166838
     2  C   -0.012751
     3  C   -0.051594
     4  C   -0.155604
     5  H    0.082177
     6  H    0.044340
     7  H    0.060608
     8  H    0.061541
     9  H    0.052720
    10  H    0.085401
 Sum of Mulliken charges =   0.00000

 Dipole moment (field-independent basis, Debye):
    X=             -0.0299    Y=              0.1320    Z=              0.1055  Tot=              0.1716
 Quadrupole moment (field-independent basis, Debye-Ang):
   XX=            -23.0364   YY=            -23.7031   ZZ=            -29.1956
   XY=              0.0558   XZ=              0.7354   YZ=              0.1430

 1\1\GINC-NODE15\SP\RB2PLYPD3-FC\def2QZVP\C4H6\BOITTIER\26-Aug-2020\0\\
 #p B2PLYPD3/Def2QZVP\\butadiene\\0,1\C,0,-3.844672,0.167677,0.029648\C
 ,0,-2.701812,-0.45431,0.052343\C,0,-1.370672,0.111505,-0.025308\C,0,-0
 .280364,-0.673626,0.026079\H,0,-4.907095,-0.179808,-0.085682\H,0,-3.84
 9254,1.24151,0.124904\H,0,-2.779001,-1.504022,-0.105593\H,0,-1.294148,
 1.198087,-0.005954\H,0,-0.405657,-1.849959,0.305201\H,0,0.753819,-0.30
 0571,0.076802\\Version=ES64L-G09RevD.01\State=1-A\HF=-155.6782004\MP2=
 -155.904978\RMSD=8.736e-09\PG=C01 [X(C4H6)]\\@

 Normal termination of Gaussian 09 at Wed Aug 26 15:31:33 2020.
