 Gaussian 09, Revision D.01,
 Gaussian 09:  ES64L-G09RevD.01 24-Apr-2013

 --------------------
 #p B2PLYPD3/Def2QZVP
 --------------------

 ---------
 butadiene
 ---------
 Symbolic Z-matrix:
 Charge =  0 Multiplicity = 1

                         Standard orientation:
 ---------------------------------------------------------------------
 Center     Atomic      Atomic             Coordinates (Angstroms)
 Number     Number       Type             X           Y           Z
 ---------------------------------------------------------------------
      1          6           0       -1.813488   -0.117369    0.012238
      2          6           0       -0.586854    0.408819   -0.043287
      3          6           0        0.599039   -0.383720   -0.021242
      4          6           0        1.835185    0.092769    0.029845
      5          1           0       -2.694069    0.504358    0.021687
      6          1           0       -1.986710   -1.173708    0.187440
      7          1           0       -0.525932    1.491660   -0.066889
      8          1           0        0.384786   -1.456324   -0.107995
      9          1           0        1.976523    1.164774    0.149805
     10          1           0        2.642114   -0.533756   -0.049372
 ---------------------------------------------------------------------

 SCF Done:  E(RB2PLYPD3) =  -155.696646389     A.U. after   11 cycles
 E2(B2PLYPD3) =    -0.2254613247D+00 E(B2PLYPD3) =    -0.15592210771403D+03

 The electronic state is 1-A.
 Alpha  occ. eigenvalues --  -10.62213 -10.62145 -10.61404 -10.60784  -0.93545
 Alpha  occ. eigenvalues --   -0.85155  -0.70703  -0.63967  -0.55333  -0.53985
 Alpha  occ. eigenvalues --   -0.46812  -0.45584  -0.41343  -0.38398  -0.27554
 Alpha virt. eigenvalues --    0.01617   0.07116   0.07393   0.08100   0.09740
 Alpha virt. eigenvalues --    0.11763   0.12443   0.14946   0.15809   0.16215
 Alpha virt. eigenvalues --    0.18731   0.20412   0.21545   0.22789   0.23888

 Mulliken charges:
               1
     1  C   -0.174984
     2  C   -0.024591
     3  C   -0.024490
     4  C   -0.183998
     5  H    0.080882
     6  H    0.062162
     7  H    0.052431
     8  H    0.050606
     9  H    0.067761
    10  H    0.094220
 Sum of Mulliken charges =   0.00000

 Dipole moment (field-independent basis, Debye):
    X=             -0.0349    Y=              0.0155    Z=              0.0887  Tot=              0.0966
 Quadrupole moment (field-independent basis, Debye-Ang):
   XX=            -23.5734   YY=            -23.1547   ZZ=            -29.0714
   XY=              0.0759   XZ=             -0.3326   YZ=              0.0645

 1\1\GINC-NODE35\SP\RB2PLYPD3-FC\def2QZVP\C4H6\BOITTIER\26-Aug-2020\0\\
 #p B2PLYPD3/Def2QZVP\\butadiene\\0,1\C,0,-3.816717,0.234473,-0.000228\
 C,0,-2.708048,-0.50702,0.074793\C,0,-1.396406,0.052495,0.036246\C,0,-0
 .269316,-0.644854,0.003385\H,0,-4.796819,-0.214351,0.003489\H,0,-3.792
 403,1.299417,-0.20482\H,0,-2.847749,-1.581476,0.128086\H,0,-1.409203,1
 .148186,0.092894\H,0,-0.328102,-1.727433,-0.086783\H,0,0.639339,-0.175
 825,0.068966\\Version=ES64L-G09RevD.01\State=1-A\HF=-155.6966464\MP2=-
 155.9221077\RMSD=4.942e-09\PG=C01 [X(C4H6)]\\@

 Normal termination of Gaussian 09 at Wed Aug 26 08:20:22 2020.
