 Gaussian 09, Revision D.01,
 Gaussian 09:  ES64L-G09RevD.01 24-Apr-2013

 --------------------
 #p B2PLYPD3/Def2QZVP
 --------------------

 ---------
 butadiene
 ---------
 Symbolic Z-matrix:
 Charge =  0 Multiplicity = 1

                         Standard orientation:
 ---------------------------------------------------------------------
 Center     Atomic      Atomic             Coordinates (Angstroms)
 Number     Number       Type             X           Y           Z
 ---------------------------------------------------------------------
      1          6           0       -1.846106    0.082990    0.007503
      2          6           0       -0.592421   -0.383009   -0.003062
      3          6           0        0.583615    0.433629   -0.076351
      4          6           0        1.806086   -0.106923    0.056691
      5          1           0       -2.771518   -0.581607    0.001429
      6          1           0       -2.009688    1.115453    0.350478
      7          1           0       -0.236668   -1.454590   -0.278550
      8          1           0        0.470027    1.535507   -0.208372
      9          1           0        2.019902   -1.183188    0.215832
     10          1           0        2.820902    0.408306    0.010499
 ---------------------------------------------------------------------

 SCF Done:  E(RB2PLYPD3) =  -155.676573973     A.U. after   11 cycles
 E2(B2PLYPD3) =    -0.2283967996D+00 E(B2PLYPD3) =    -0.15590497077285D+03

 The electronic state is 1-A.
 Alpha  occ. eigenvalues --  -10.63449 -10.63185 -10.62769 -10.62532  -0.93281
 Alpha  occ. eigenvalues --   -0.84232  -0.69929  -0.63122  -0.54505  -0.52519
 Alpha  occ. eigenvalues --   -0.47076  -0.43807  -0.40066  -0.38034  -0.27692
 Alpha virt. eigenvalues --    0.01118   0.06982   0.07138   0.07582   0.09077
 Alpha virt. eigenvalues --    0.11434   0.12348   0.14444   0.15103   0.16494
 Alpha virt. eigenvalues --    0.18577   0.19463   0.21443   0.22235   0.23028

 Mulliken charges:
               1
     1  C   -0.181726
     2  C   -0.018313
     3  C   -0.030751
     4  C   -0.163863
     5  H    0.080961
     6  H    0.070038
     7  H    0.054005
     8  H    0.060521
     9  H    0.054683
    10  H    0.074445
 Sum of Mulliken charges =   0.00000

 Dipole moment (field-independent basis, Debye):
    X=              0.1652    Y=              0.0120    Z=              0.0525  Tot=              0.1738
 Quadrupole moment (field-independent basis, Debye-Ang):
   XX=            -23.2702   YY=            -23.8598   ZZ=            -29.2489
   XY=             -0.6362   XZ=             -0.2732   YZ=              0.2602

 1\1\GINC-NODE39\SP\RB2PLYPD3-FC\def2QZVP\C4H6\BOITTIER\26-Aug-2020\0\\
 #p B2PLYPD3/Def2QZVP\\butadiene\\0,1\C,0,-3.843843,0.214245,0.033435\C
 ,0,-2.701642,-0.481708,0.029057\C,0,-1.392163,0.095162,-0.059353\C,0,-
 0.294142,-0.665721,0.08114\H,0,-4.878721,-0.262306,0.039635\H,0,-3.806
 686,1.264379,0.359333\H,0,-2.557269,-1.605686,-0.228955\H,0,-1.294832,
 1.19626,-0.209607\H,0,-0.288085,-1.760293,0.257955\H,0,0.799889,-0.353
 635,0.025061\\Version=ES64L-G09RevD.01\State=1-A\HF=-155.676574\MP2=-1
 55.9049708\RMSD=6.995e-09\PG=C01 [X(C4H6)]\\@

 Normal termination of Gaussian 09 at Wed Aug 26 14:08:16 2020.
