 Gaussian 09, Revision D.01,
 Gaussian 09:  ES64L-G09RevD.01 24-Apr-2013

 --------------------
 #p B2PLYPD3/Def2QZVP
 --------------------

 ---------
 butadiene
 ---------
 Symbolic Z-matrix:
 Charge =  0 Multiplicity = 1

                         Standard orientation:
 ---------------------------------------------------------------------
 Center     Atomic      Atomic             Coordinates (Angstroms)
 Number     Number       Type             X           Y           Z
 ---------------------------------------------------------------------
      1          6           0       -1.828392   -0.123711    0.064613
      2          6           0       -0.582271    0.477449   -0.075047
      3          6           0        0.572451   -0.353293   -0.111288
      4          6           0        1.854934    0.046122    0.011199
      5          1           0       -2.803060    0.382335    0.086608
      6          1           0       -2.012055   -1.262477    0.096774
      7          1           0       -0.390076    1.519140    0.079159
      8          1           0        0.349103   -1.461545   -0.059370
      9          1           0        1.994523    1.114381    0.100100
     10          1           0        2.761233   -0.571233    0.359868
 ---------------------------------------------------------------------

 SCF Done:  E(RB2PLYPD3) =  -155.674277775     A.U. after   12 cycles
 E2(B2PLYPD3) =    -0.2294294675D+00 E(B2PLYPD3) =    -0.15590370724296D+03

 The electronic state is 1-A.
 Alpha  occ. eigenvalues --  -10.63859 -10.63734 -10.63082 -10.62306  -0.93089
 Alpha  occ. eigenvalues --   -0.83570  -0.70306  -0.63898  -0.54547  -0.52442
 Alpha  occ. eigenvalues --   -0.46927  -0.43880  -0.40973  -0.38122  -0.26919
 Alpha virt. eigenvalues --    0.00297   0.06847   0.07073   0.07962   0.08977
 Alpha virt. eigenvalues --    0.11486   0.12604   0.14228   0.15548   0.16541
 Alpha virt. eigenvalues --    0.18843   0.19428   0.21965   0.22241   0.23526

 Mulliken charges:
               1
     1  C   -0.163206
     2  C   -0.049723
     3  C   -0.002841
     4  C   -0.168673
     5  H    0.080644
     6  H    0.058950
     7  H    0.067616
     8  H    0.047053
     9  H    0.048144
    10  H    0.082036
 Sum of Mulliken charges =   0.00000

 Dipole moment (field-independent basis, Debye):
    X=             -0.2216    Y=              0.0292    Z=              0.4825  Tot=              0.5317
 Quadrupole moment (field-independent basis, Debye-Ang):
   XX=            -23.4757   YY=            -23.6069   ZZ=            -29.4673
   XY=              0.4996   XZ=              0.8236   YZ=             -0.0639

 1\1\GINC-NODE17\SP\RB2PLYPD3-FC\def2QZVP\C4H6\BOITTIER\26-Aug-2020\0\\
 #p B2PLYPD3/Def2QZVP\\butadiene\\0,1\C,0,-3.823881,0.259552,-0.049531\
 C,0,-2.714753,-0.563892,0.110131\C,0,-1.421591,0.029856,0.105191\C,0,-
 0.241393,-0.613641,-0.005909\H,0,-4.877804,-0.049918,-0.045185\H,0,-3.
 785778,1.41005,-0.129882\H,0,-2.728228,-1.628572,0.000067\H,0,-1.42854
 6,1.157257,0.006601\H,0,-0.310756,-1.691541,-0.049341\H,0,0.762064,-0.
 197226,-0.385051\\Version=ES64L-G09RevD.01\State=1-A\HF=-155.6742778\M
 P2=-155.9037072\RMSD=5.031e-09\PG=C01 [X(C4H6)]\\@

 Normal termination of Gaussian 09 at Wed Aug 26 15:21:34 2020.
