 Gaussian 09, Revision D.01,
 Gaussian 09:  ES64L-G09RevD.01 24-Apr-2013

 --------------------
 #p B2PLYPD3/Def2QZVP
 --------------------

 ---------
 butadiene
 ---------
 Symbolic Z-matrix:
 Charge =  0 Multiplicity = 1

                         Standard orientation:
 ---------------------------------------------------------------------
 Center     Atomic      Atomic             Coordinates (Angstroms)
 Number     Number       Type             X           Y           Z
 ---------------------------------------------------------------------
      1          6           0       -1.845237   -0.104035    0.036272
      2          6           0       -0.610038    0.349655   -0.051070
      3          6           0        0.629018   -0.408194   -0.030862
      4          6           0        1.841503    0.130649    0.026541
      5          1           0       -2.647734    0.616713    0.067887
      6          1           0       -2.050705   -1.124646    0.015637
      7          1           0       -0.520213    1.460989   -0.068747
      8          1           0        0.476787   -1.464323   -0.005742
      9          1           0        1.948706    1.180626    0.091432
     10          1           0        2.701683   -0.477810    0.014247
 ---------------------------------------------------------------------

 SCF Done:  E(RB2PLYPD3) =  -155.697215947     A.U. after   11 cycles
 E2(B2PLYPD3) =    -0.2247947168D+00 E(B2PLYPD3) =    -0.15592201066430D+03

 The electronic state is 1-A.
 Alpha  occ. eigenvalues --  -10.62279 -10.62219 -10.61007 -10.60704  -0.93211
 Alpha  occ. eigenvalues --   -0.85641  -0.70695  -0.64002  -0.54978  -0.54555
 Alpha  occ. eigenvalues --   -0.47103  -0.46162  -0.40701  -0.38212  -0.27973
 Alpha virt. eigenvalues --    0.01845   0.06972   0.07573   0.08077   0.09984
 Alpha virt. eigenvalues --    0.11768   0.12414   0.14927   0.15793   0.16139
 Alpha virt. eigenvalues --    0.18813   0.20441   0.21674   0.22506   0.24390

 Mulliken charges:
               1
     1  C   -0.184873
     2  C   -0.008553
     3  C   -0.040624
     4  C   -0.173679
     5  H    0.086774
     6  H    0.068138
     7  H    0.036957
     8  H    0.054109
     9  H    0.071378
    10  H    0.090373
 Sum of Mulliken charges =   0.00000

 Dipole moment (field-independent basis, Debye):
    X=              0.0463    Y=             -0.0356    Z=              0.0524  Tot=              0.0784
 Quadrupole moment (field-independent basis, Debye-Ang):
   XX=            -23.4519   YY=            -23.1217   ZZ=            -29.0701
   XY=              0.0499   XZ=              0.0188   YZ=              0.0850

 1\1\GINC-NODE28\SP\RB2PLYPD3-FC\def2QZVP\C4H6\BOITTIER\26-Aug-2020\0\\
 #p B2PLYPD3/Def2QZVP\\butadiene\\0,1\C,0,-3.853102,0.207551,-0.018224\
 C,0,-2.716497,-0.453851,0.081057\C,0,-1.363707,0.074064,0.045435\C,0,-
 0.264788,-0.670415,0.0019\H,0,-4.769735,-0.361652,-0.034647\H,0,-3.876
 171,1.248584,-0.020947\H,0,-2.8231,-1.563012,0.123973\H,0,-1.328251,1.
 13968,-0.003762\H,0,-0.343728,-1.724096,-0.039093\H,0,0.688871,-0.2222
 89,0.001625\\Version=ES64L-G09RevD.01\State=1-A\HF=-155.6972159\MP2=-1
 55.9220107\RMSD=5.631e-09\PG=C01 [X(C4H6)]\\@

 Normal termination of Gaussian 09 at Wed Aug 26 11:11:00 2020.
