 Gaussian 09, Revision D.01,
 Gaussian 09:  ES64L-G09RevD.01 24-Apr-2013

 --------------------
 #p B2PLYPD3/Def2QZVP
 --------------------

 ---------
 butadiene
 ---------
 Symbolic Z-matrix:
 Charge =  0 Multiplicity = 1

                         Standard orientation:
 ---------------------------------------------------------------------
 Center     Atomic      Atomic             Coordinates (Angstroms)
 Number     Number       Type             X           Y           Z
 ---------------------------------------------------------------------
      1          6           0        1.825275   -0.100048   -0.037528
      2          6           0        0.588770    0.380133    0.047973
      3          6           0       -0.616485   -0.419615    0.123939
      4          6           0       -1.801357    0.131266   -0.084234
      5          1           0        2.669417    0.551247   -0.083266
      6          1           0        1.962472   -1.185124   -0.169190
      7          1           0        0.486417    1.469694    0.087608
      8          1           0       -0.496217   -1.455198   -0.006019
      9          1           0       -1.983169    1.243099   -0.066223
     10          1           0       -2.616141   -0.574132   -0.063805
 ---------------------------------------------------------------------

 SCF Done:  E(RB2PLYPD3) =  -155.691019495     A.U. after   11 cycles
 E2(B2PLYPD3) =    -0.2259472706D+00 E(B2PLYPD3) =    -0.15591696676532D+03

 The electronic state is 1-A.
 Alpha  occ. eigenvalues --  -10.62109 -10.61944 -10.61810 -10.61096  -0.93438
 Alpha  occ. eigenvalues --   -0.85186  -0.69706  -0.64049  -0.54340  -0.54055
 Alpha  occ. eigenvalues --   -0.46738  -0.44940  -0.41197  -0.38254  -0.27804
 Alpha virt. eigenvalues --    0.01875   0.07052   0.07331   0.08052   0.09366
 Alpha virt. eigenvalues --    0.11797   0.12251   0.14723   0.15448   0.16349
 Alpha virt. eigenvalues --    0.18573   0.19480   0.21669   0.22748   0.24425

 Mulliken charges:
               1
     1  C   -0.185012
     2  C   -0.018276
     3  C   -0.044576
     4  C   -0.159873
     5  H    0.087426
     6  H    0.058086
     7  H    0.046989
     8  H    0.065991
     9  H    0.072832
    10  H    0.076413
 Sum of Mulliken charges =   0.00000

 Dipole moment (field-independent basis, Debye):
    X=             -0.1145    Y=              0.0116    Z=             -0.1583  Tot=              0.1957
 Quadrupole moment (field-independent basis, Debye-Ang):
   XX=            -24.1094   YY=            -22.8865   ZZ=            -29.1628
   XY=              0.0442   XZ=             -0.1745   YZ=              0.2474

 1\1\GINC-NODE18\SP\RB2PLYPD3-FC\def2QZVP\C4H6\BOITTIER\26-Aug-2020\0\\
 #p B2PLYPD3/Def2QZVP\\butadiene\\0,1\C,0,-3.830793,0.209188,-0.030256\
 C,0,-2.700612,-0.481478,0.081553\C,0,-1.370813,0.090826,0.127468\C,0,-
 0.305235,-0.67294,-0.051225\H,0,-4.778546,-0.280902,-0.050948\H,0,-3.7
 70916,1.294378,-0.21005\H,0,-2.795912,-1.568852,0.169458\H,0,-1.303186
 ,1.124408,-0.048377\H,0,-0.326463,-1.797453,0.016396\H,0,0.623285,-0.1
 25513,-0.058319\\Version=ES64L-G09RevD.01\State=1-A\HF=-155.6910195\MP
 2=-155.9169668\RMSD=7.265e-09\PG=C01 [X(C4H6)]\\@

 Normal termination of Gaussian 09 at Wed Aug 26 13:27:22 2020.
