 Gaussian 09, Revision D.01,
 Gaussian 09:  ES64L-G09RevD.01 24-Apr-2013

 --------------------
 #p B2PLYPD3/Def2QZVP
 --------------------

 ---------
 butadiene
 ---------
 Symbolic Z-matrix:
 Charge =  0 Multiplicity = 1

                         Standard orientation:
 ---------------------------------------------------------------------
 Center     Atomic      Atomic             Coordinates (Angstroms)
 Number     Number       Type             X           Y           Z
 ---------------------------------------------------------------------
      1          6           0        1.823548    0.071560   -0.055792
      2          6           0        0.591629   -0.371577    0.038684
      3          6           0       -0.614550    0.460673    0.108895
      4          6           0       -1.823161   -0.128964   -0.092999
      5          1           0        2.662889   -0.585587   -0.122998
      6          1           0        1.994028    1.214066   -0.079099
      7          1           0        0.443608   -1.439452    0.198992
      8          1           0       -0.374829    1.486456    0.100553
      9          1           0       -1.795052   -1.261184    0.039901
     10          1           0       -2.795436    0.395548   -0.130081
 ---------------------------------------------------------------------

 SCF Done:  E(RB2PLYPD3) =  -155.684444633     A.U. after   12 cycles
 E2(B2PLYPD3) =    -0.2271318009D+00 E(B2PLYPD3) =    -0.15591157643398D+03

 The electronic state is 1-A.
 Alpha  occ. eigenvalues --  -10.63082 -10.62918 -10.62096 -10.61593  -0.93107
 Alpha  occ. eigenvalues --   -0.84598  -0.69535  -0.64003  -0.54713  -0.52707
 Alpha  occ. eigenvalues --   -0.47273  -0.44446  -0.40976  -0.37744  -0.27811
 Alpha virt. eigenvalues --    0.01709   0.06994   0.07123   0.08081   0.09186
 Alpha virt. eigenvalues --    0.11593   0.12519   0.14178   0.15359   0.16509
 Alpha virt. eigenvalues --    0.18478   0.19510   0.21448   0.22174   0.24815

 Mulliken charges:
               1
     1  C   -0.186487
     2  C   -0.006158
     3  C   -0.050033
     4  C   -0.156647
     5  H    0.092017
     6  H    0.049980
     7  H    0.048160
     8  H    0.063215
     9  H    0.059973
    10  H    0.085979
 Sum of Mulliken charges =   0.00000

 Dipole moment (field-independent basis, Debye):
    X=             -0.0464    Y=              0.0084    Z=              0.1041  Tot=              0.1143
 Quadrupole moment (field-independent basis, Debye-Ang):
   XX=            -23.7128   YY=            -23.3235   ZZ=            -29.3355
   XY=             -0.1286   XZ=             -0.0554   YZ=             -0.2532

 1\1\GINC-NODE04\SP\RB2PLYPD3-FC\def2QZVP\C4H6\BOITTIER\26-Aug-2020\0\\
 #p B2PLYPD3/Def2QZVP\\butadiene\\0,1\C,0,-3.835162,0.186971,0.07741\C,
 0,-2.705184,-0.475535,-0.007187\C,0,-1.367562,0.120825,-0.094142\C,0,-
 0.286266,-0.675324,0.120612\H,0,-4.780153,-0.30432,0.15789\H,0,-3.7940
 9,1.341631,0.076793\H,0,-2.755166,-1.555556,-0.145109\H,0,-1.415929,1.
 173086,-0.10732\H,0,-0.521074,-1.785865,0.011346\H,0,0.765552,-0.33653
 6,0.14723\\Version=ES64L-G09RevD.01\State=1-A\HF=-155.6844446\MP2=-155
 .9115764\RMSD=3.035e-09\PG=C01 [X(C4H6)]\\@

 Normal termination of Gaussian 09 at Wed Aug 26 15:30:28 2020.
