 Gaussian 09, Revision D.01,
 Gaussian 09:  ES64L-G09RevD.01 24-Apr-2013

 --------------------
 #p B2PLYPD3/Def2QZVP
 --------------------

 ---------
 butadiene
 ---------
 Symbolic Z-matrix:
 Charge =  0 Multiplicity = 1

                         Standard orientation:
 ---------------------------------------------------------------------
 Center     Atomic      Atomic             Coordinates (Angstroms)
 Number     Number       Type             X           Y           Z
 ---------------------------------------------------------------------
      1          6           0       -1.833156    0.103411    0.004028
      2          6           0       -0.603154   -0.386865   -0.028573
      3          6           0        0.606384    0.418954   -0.009409
      4          6           0        1.826039   -0.131097    0.016113
      5          1           0       -2.692935   -0.537979    0.009046
      6          1           0       -2.007102    1.148986    0.117188
      7          1           0       -0.437047   -1.465671   -0.012933
      8          1           0        0.527862    1.505577   -0.056702
      9          1           0        1.942312   -1.194910    0.071227
     10          1           0        2.690225    0.517581   -0.020780
 ---------------------------------------------------------------------

 SCF Done:  E(RB2PLYPD3) =  -155.700361494     A.U. after   11 cycles
 E2(B2PLYPD3) =    -0.2254336431D+00 E(B2PLYPD3) =    -0.15592579513665D+03

 The electronic state is 1-A.
 Alpha  occ. eigenvalues --  -10.62475 -10.62359 -10.61358 -10.60983  -0.93106
 Alpha  occ. eigenvalues --   -0.85105  -0.70061  -0.64106  -0.54604  -0.54219
 Alpha  occ. eigenvalues --   -0.46382  -0.45965  -0.41293  -0.38139  -0.27697
 Alpha virt. eigenvalues --    0.01889   0.07049   0.07407   0.08057   0.09563
 Alpha virt. eigenvalues --    0.11771   0.12428   0.14828   0.15783   0.16166
 Alpha virt. eigenvalues --    0.18716   0.20441   0.21591   0.22954   0.24004

 Mulliken charges:
               1
     1  C   -0.176279
     2  C   -0.027754
     3  C   -0.029442
     4  C   -0.180696
     5  H    0.084969
     6  H    0.067302
     7  H    0.052002
     8  H    0.054735
     9  H    0.069234
    10  H    0.085929
 Sum of Mulliken charges =   0.00000

 Dipole moment (field-independent basis, Debye):
    X=              0.0150    Y=              0.0137    Z=              0.0797  Tot=              0.0822
 Quadrupole moment (field-independent basis, Debye-Ang):
   XX=            -23.6850   YY=            -22.9864   ZZ=            -29.1994
   XY=             -0.0631   XZ=             -0.2389   YZ=             -0.0335

 1\1\GINC-NODE10\SP\RB2PLYPD3-FC\def2QZVP\C4H6\BOITTIER\26-Aug-2020\0\\
 #p B2PLYPD3/Def2QZVP\\butadiene\\0,1\C,0,-3.837101,0.213881,0.02742\C,
 0,-2.714563,-0.488952,0.010914\C,0,-1.38054,0.08812,0.003079\C,0,-0.27
 8495,-0.669749,0.046652\H,0,-4.797495,-0.26316,0.053899\H,0,-3.820964,
 1.276841,0.105803\H,0,-2.743558,-1.578985,0.062366\H,0,-1.264167,1.169
 166,-0.080284\H,0,-0.353606,-1.734849,0.137066\H,0,0.687341,-0.187369,
 -0.011927\\Version=ES64L-G09RevD.01\State=1-A\HF=-155.7003615\MP2=-155
 .9257951\RMSD=5.399e-09\PG=C01 [X(C4H6)]\\@

 Normal termination of Gaussian 09 at Wed Aug 26 21:52:38 2020.
