 Gaussian 09, Revision D.01,
 Gaussian 09:  ES64L-G09RevD.01 24-Apr-2013

 --------------------
 #p B2PLYPD3/Def2QZVP
 --------------------

 ---------
 butadiene
 ---------
 Symbolic Z-matrix:
 Charge =  0 Multiplicity = 1

                         Standard orientation:
 ---------------------------------------------------------------------
 Center     Atomic      Atomic             Coordinates (Angstroms)
 Number     Number       Type             X           Y           Z
 ---------------------------------------------------------------------
      1          6           0       -1.805537   -0.136869    0.037477
      2          6           0       -0.604208    0.456365   -0.015164
      3          6           0        0.596590   -0.350204   -0.036530
      4          6           0        1.813981    0.077977   -0.010122
      5          1           0       -2.831762    0.325863   -0.157797
      6          1           0       -1.922815   -1.218843    0.258581
      7          1           0       -0.508011    1.515290   -0.107972
      8          1           0        0.598449   -1.429575   -0.167105
      9          1           0        2.080447    1.142508    0.278094
     10          1           0        2.578736   -0.618861    0.042233
 ---------------------------------------------------------------------

 SCF Done:  E(RB2PLYPD3) =  -155.681757683     A.U. after   11 cycles
 E2(B2PLYPD3) =    -0.2258167131D+00 E(B2PLYPD3) =    -0.15590757439641D+03

 The electronic state is 1-A.
 Alpha  occ. eigenvalues --  -10.62854 -10.62692 -10.61639 -10.60390  -0.93640
 Alpha  occ. eigenvalues --   -0.85455  -0.69640  -0.63778  -0.55135  -0.53832
 Alpha  occ. eigenvalues --   -0.47157  -0.43827  -0.40801  -0.38331  -0.27973
 Alpha virt. eigenvalues --    0.01817   0.07039   0.07487   0.07817   0.09408
 Alpha virt. eigenvalues --    0.11479   0.12430   0.14737   0.15719   0.16683
 Alpha virt. eigenvalues --    0.18822   0.19192   0.21796   0.22450   0.24335

 Mulliken charges:
               1
     1  C   -0.160132
     2  C   -0.052689
     3  C   -0.017089
     4  C   -0.160698
     5  H    0.074495
     6  H    0.063546
     7  H    0.075602
     8  H    0.052831
     9  H    0.049227
    10  H    0.074906
 Sum of Mulliken charges =   0.00000

 Dipole moment (field-independent basis, Debye):
    X=             -0.1046    Y=             -0.1016    Z=              0.1003  Tot=              0.1770
 Quadrupole moment (field-independent basis, Debye-Ang):
   XX=            -23.6802   YY=            -23.3046   ZZ=            -28.9574
   XY=             -0.0322   XZ=              0.6766   YZ=             -0.0710

 1\1\GINC-NODE36\SP\RB2PLYPD3-FC\def2QZVP\C4H6\BOITTIER\26-Aug-2020\0\\
 #p B2PLYPD3/Def2QZVP\\butadiene\\0,1\C,0,-3.803424,0.245864,-0.011411\
 C,0,-2.72707,-0.550913,0.055655\C,0,-1.401248,0.027893,0.045498\C,0,-0
 .280368,-0.611952,0.028071\H,0,-4.893849,-0.019254,0.203246\H,0,-3.727
 544,1.323827,-0.267433\H,0,-2.820851,-1.606485,0.182783\H,0,-1.205107,
 1.093064,0.140549\H,0,-0.211443,-1.715547,-0.226145\H,0,0.596104,-0.06
 5304,-0.050338\\Version=ES64L-G09RevD.01\State=1-A\HF=-155.6817577\MP2
 =-155.9075744\RMSD=9.212e-09\PG=C01 [X(C4H6)]\\@

 Normal termination of Gaussian 09 at Wed Aug 26 14:11:14 2020.
