 Gaussian 09, Revision D.01,
 Gaussian 09:  ES64L-G09RevD.01 24-Apr-2013

 --------------------
 #p B2PLYPD3/Def2QZVP
 --------------------

 ---------
 butadiene
 ---------
 Symbolic Z-matrix:
 Charge =  0 Multiplicity = 1

                         Standard orientation:
 ---------------------------------------------------------------------
 Center     Atomic      Atomic             Coordinates (Angstroms)
 Number     Number       Type             X           Y           Z
 ---------------------------------------------------------------------
      1          6           0       -1.838396   -0.138274   -0.062437
      2          6           0       -0.623135    0.428486    0.058830
      3          6           0        0.611390   -0.398899    0.130069
      4          6           0        1.843097    0.097975   -0.101412
      5          1           0       -2.653801    0.531942   -0.108818
      6          1           0       -1.961918   -1.193835   -0.092291
      7          1           0       -0.582079    1.512077    0.113001
      8          1           0        0.414401   -1.377125    0.035723
      9          1           0        2.149836    1.150297   -0.035591
     10          1           0        2.675826   -0.559084   -0.062329
 ---------------------------------------------------------------------

 SCF Done:  E(RB2PLYPD3) =  -155.686198848     A.U. after   11 cycles
 E2(B2PLYPD3) =    -0.2260773600D+00 E(B2PLYPD3) =    -0.15591227620788D+03

 The electronic state is 1-A.
 Alpha  occ. eigenvalues --  -10.62669 -10.62265 -10.61698 -10.61031  -0.92615
 Alpha  occ. eigenvalues --   -0.84902  -0.70396  -0.64934  -0.54672  -0.53984
 Alpha  occ. eigenvalues --   -0.46985  -0.45969  -0.41127  -0.37489  -0.27690
 Alpha virt. eigenvalues --    0.01544   0.07008   0.07626   0.08142   0.08976
 Alpha virt. eigenvalues --    0.11687   0.12470   0.14887   0.15523   0.16467
 Alpha virt. eigenvalues --    0.18775   0.19610   0.22001   0.23341   0.23957

 Mulliken charges:
               1
     1  C   -0.187057
     2  C   -0.026425
     3  C   -0.063271
     4  C   -0.155819
     5  H    0.085767
     6  H    0.070096
     7  H    0.057890
     8  H    0.079513
     9  H    0.067326
    10  H    0.071982
 Sum of Mulliken charges =   0.00000

 Dipole moment (field-independent basis, Debye):
    X=              0.0180    Y=              0.0068    Z=              0.0005  Tot=              0.0192
 Quadrupole moment (field-independent basis, Debye-Ang):
   XX=            -23.6642   YY=            -22.8952   ZZ=            -29.2420
   XY=              0.2845   XZ=              0.1621   YZ=              0.1642

 1\1\GINC-NODE09\SP\RB2PLYPD3-FC\def2QZVP\C4H6\BOITTIER\26-Aug-2020\0\\
 #p B2PLYPD3/Def2QZVP\\butadiene\\0,1\C,0,-3.835204,0.24971,0.087654\C,
 0,-2.741441,-0.526894,-0.027885\C,0,-1.378645,0.06499,-0.106324\C,0,-0
 .255714,-0.642569,0.130228\H,0,-4.757522,-0.262953,0.139939\H,0,-3.767
 389,1.310539,0.107666\H,0,-2.895444,-1.600732,-0.071984\H,0,-1.39689,1
 .06351,-0.021133\H,0,-0.142749,-1.7334,0.074291\H,0,0.681296,-0.145889
 ,0.08537\\Version=ES64L-G09RevD.01\State=1-A\HF=-155.6861988\MP2=-155.
 9122762\RMSD=4.826e-09\PG=C01 [X(C4H6)]\\@

 Normal termination of Gaussian 09 at Wed Aug 26 12:43:12 2020.
