 Gaussian 09, Revision D.01,
 Gaussian 09:  ES64L-G09RevD.01 24-Apr-2013

 --------------------
 #p B2PLYPD3/Def2QZVP
 --------------------

 ---------
 butadiene
 ---------
 Symbolic Z-matrix:
 Charge =  0 Multiplicity = 1

                         Standard orientation:
 ---------------------------------------------------------------------
 Center     Atomic      Atomic             Coordinates (Angstroms)
 Number     Number       Type             X           Y           Z
 ---------------------------------------------------------------------
      1          6           0       -1.853428   -0.127218   -0.031099
      2          6           0       -0.621126    0.428088    0.024932
      3          6           0        0.607516   -0.380044    0.031635
      4          6           0        1.855467    0.090309   -0.056905
      5          1           0       -2.713892    0.485362   -0.029252
      6          1           0       -2.026794   -1.207731   -0.076372
      7          1           0       -0.501191    1.519885    0.151780
      8          1           0        0.501853   -1.465625    0.141759
      9          1           0        2.082950    1.106695   -0.052982
     10          1           0        2.726501   -0.505395    0.053688
 ---------------------------------------------------------------------

 SCF Done:  E(RB2PLYPD3) =  -155.695670072     A.U. after   11 cycles
 E2(B2PLYPD3) =    -0.2259710562D+00 E(B2PLYPD3) =    -0.15592164112832D+03

 The electronic state is 1-A.
 Alpha  occ. eigenvalues --  -10.63375 -10.62831 -10.61839 -10.60741  -0.92449
 Alpha  occ. eigenvalues --   -0.84892  -0.70624  -0.64010  -0.54874  -0.53821
 Alpha  occ. eigenvalues --   -0.46965  -0.45668  -0.41166  -0.37481  -0.27711
 Alpha virt. eigenvalues --    0.01502   0.07057   0.07439   0.07995   0.09433
 Alpha virt. eigenvalues --    0.11523   0.12584   0.14735   0.15790   0.16408
 Alpha virt. eigenvalues --    0.18986   0.20204   0.21976   0.22725   0.23467

 Mulliken charges:
               1
     1  C   -0.172656
     2  C   -0.045478
     3  C   -0.029288
     4  C   -0.166518
     5  H    0.087584
     6  H    0.070567
     7  H    0.061478
     8  H    0.056479
     9  H    0.059215
    10  H    0.078614
 Sum of Mulliken charges =   0.00000

 Dipole moment (field-independent basis, Debye):
    X=             -0.0468    Y=              0.0301    Z=              0.2081  Tot=              0.2154
 Quadrupole moment (field-independent basis, Debye-Ang):
   XX=            -23.1365   YY=            -23.1918   ZZ=            -29.2764
   XY=              0.3166   XZ=              0.3064   YZ=              0.0160

 1\1\GINC-NODE32\SP\RB2PLYPD3-FC\def2QZVP\C4H6\BOITTIER\26-Aug-2020\0\\
 #p B2PLYPD3/Def2QZVP\\butadiene\\0,1\C,0,-3.850907,0.243014,0.049393\C
 ,0,-2.738055,-0.524925,0.005778\C,0,-1.384746,0.050003,-0.02057\C,0,-0
 .240622,-0.633846,0.078341\H,0,-4.807048,-0.20563,0.062402\H,0,-3.8280
 33,1.337862,0.069345\H,0,-2.815902,-1.623193,-0.095433\H,0,-1.295089,1
 .134145,-0.156126\H,0,-0.198589,-1.674348,0.098191\H,0,0.722369,-0.206
 282,-0.046685\\Version=ES64L-G09RevD.01\State=1-A\HF=-155.6956701\MP2=
 -155.9216411\RMSD=7.704e-09\PG=C01 [X(C4H6)]\\@

 Normal termination of Gaussian 09 at Wed Aug 26 09:07:26 2020.
