 Gaussian 09, Revision D.01,
 Gaussian 09:  ES64L-G09RevD.01 24-Apr-2013

 --------------------
 #p B2PLYPD3/Def2QZVP
 --------------------

 ---------
 butadiene
 ---------
 Symbolic Z-matrix:
 Charge =  0 Multiplicity = 1

                         Standard orientation:
 ---------------------------------------------------------------------
 Center     Atomic      Atomic             Coordinates (Angstroms)
 Number     Number       Type             X           Y           Z
 ---------------------------------------------------------------------
      1          6           0        1.845231    0.123036   -0.009148
      2          6           0        0.624127   -0.417605   -0.008005
      3          6           0       -0.611662    0.387073    0.012797
      4          6           0       -1.849423   -0.113558   -0.021253
      5          1           0        2.737679   -0.495715    0.035635
      6          1           0        1.942141    1.212670   -0.042606
      7          1           0        0.506435   -1.469839    0.066928
      8          1           0       -0.493023    1.460849    0.066054
      9          1           0       -2.049054   -1.144894    0.001092
     10          1           0       -2.693810    0.563258    0.026552
 ---------------------------------------------------------------------

 SCF Done:  E(RB2PLYPD3) =  -155.699696152     A.U. after   11 cycles
 E2(B2PLYPD3) =    -0.2254713631D+00 E(B2PLYPD3) =    -0.15592516751491D+03

 The electronic state is 1-A.
 Alpha  occ. eigenvalues --  -10.62586 -10.62413 -10.61739 -10.61118  -0.92721
 Alpha  occ. eigenvalues --   -0.85048  -0.69929  -0.64421  -0.54585  -0.53958
 Alpha  occ. eigenvalues --   -0.46678  -0.45967  -0.41174  -0.37788  -0.27831
 Alpha virt. eigenvalues --    0.01864   0.06988   0.07531   0.08067   0.09478
 Alpha virt. eigenvalues --    0.11714   0.12410   0.14696   0.15843   0.16092
 Alpha virt. eigenvalues --    0.18815   0.20432   0.21489   0.22857   0.24119

 Mulliken charges:
               1
     1  C   -0.174003
     2  C   -0.037840
     3  C   -0.031474
     4  C   -0.177729
     5  H    0.087816
     6  H    0.065968
     7  H    0.060589
     8  H    0.054417
     9  H    0.070159
    10  H    0.082098
 Sum of Mulliken charges =   0.00000

 Dipole moment (field-independent basis, Debye):
    X=              0.0179    Y=             -0.0363    Z=              0.1445  Tot=              0.1500
 Quadrupole moment (field-independent basis, Debye-Ang):
   XX=            -23.5588   YY=            -23.0141   ZZ=            -29.2633
   XY=              0.0666   XZ=             -0.0390   YZ=             -0.0711

 1\1\GINC-NODE34\SP\RB2PLYPD3-FC\def2QZVP\C4H6\BOITTIER\26-Aug-2020\0\\
 #p B2PLYPD3/Def2QZVP\\butadiene\\0,1\C,0,-3.845728,0.231636,0.025336\C
 ,0,-2.738282,-0.514534,0.038838\C,0,-1.380666,0.060339,-0.00009\C,0,-0
 .2497,-0.64852,0.047639\H,0,-4.832937,-0.222011,-0.005421\H,0,-3.75007
 2,1.321873,0.032106\H,0,-2.807052,-1.572608,-0.010281\H,0,-1.30945,1.1
 36678,-0.079649\H,0,-0.233974,-1.699114,0.050681\H,0,0.700081,-0.13154
 2,-0.015638\\Version=ES64L-G09RevD.01\State=1-A\HF=-155.6996962\MP2=-1
 55.9251675\RMSD=2.781e-09\PG=C01 [X(C4H6)]\\@

 Normal termination of Gaussian 09 at Wed Aug 26 16:36:12 2020.
