 Gaussian 09, Revision D.01,
 Gaussian 09:  ES64L-G09RevD.01 24-Apr-2013

 --------------------
 #p B2PLYPD3/Def2QZVP
 --------------------

 ---------
 butadiene
 ---------
 Symbolic Z-matrix:
 Charge =  0 Multiplicity = 1

                         Standard orientation:
 ---------------------------------------------------------------------
 Center     Atomic      Atomic             Coordinates (Angstroms)
 Number     Number       Type             X           Y           Z
 ---------------------------------------------------------------------
      1          6           0       -1.836720    0.089019    0.024009
      2          6           0       -0.603479   -0.401525   -0.035531
      3          6           0        0.599441    0.449134   -0.015466
      4          6           0        1.823714   -0.126054    0.005834
      5          1           0       -2.699523   -0.546477   -0.022696
      6          1           0       -1.955114    1.169158    0.131288
      7          1           0       -0.425552   -1.450777   -0.049807
      8          1           0        0.453343    1.532421   -0.092344
      9          1           0        2.013200   -1.244870    0.130983
     10          1           0        2.715909    0.477106    0.029498
 ---------------------------------------------------------------------

 SCF Done:  E(RB2PLYPD3) =  -155.695382751     A.U. after   11 cycles
 E2(B2PLYPD3) =    -0.2263474035D+00 E(B2PLYPD3) =    -0.15592173015438D+03

 The electronic state is 1-A.
 Alpha  occ. eigenvalues --  -10.63206 -10.62374 -10.62177 -10.61239  -0.92715
 Alpha  occ. eigenvalues --   -0.84538  -0.69595  -0.64144  -0.54597  -0.53271
 Alpha  occ. eigenvalues --   -0.46779  -0.45213  -0.41109  -0.37824  -0.27609
 Alpha virt. eigenvalues --    0.01856   0.07040   0.07194   0.08126   0.09135
 Alpha virt. eigenvalues --    0.11700   0.12334   0.14579   0.15692   0.16223
 Alpha virt. eigenvalues --    0.18713   0.20147   0.21619   0.23086   0.23700

 Mulliken charges:
               1
     1  C   -0.179137
     2  C   -0.023834
     3  C   -0.045170
     4  C   -0.171186
     5  H    0.089182
     6  H    0.062281
     7  H    0.060342
     8  H    0.062379
     9  H    0.063926
    10  H    0.081216
 Sum of Mulliken charges =   0.00000

 Dipole moment (field-independent basis, Debye):
    X=              0.0435    Y=             -0.0079    Z=              0.0807  Tot=              0.0920
 Quadrupole moment (field-independent basis, Debye-Ang):
   XX=            -23.7645   YY=            -22.9550   ZZ=            -29.3634
   XY=             -0.1958   XZ=              0.1416   YZ=             -0.0444

 1\1\GINC-NODE27\SP\RB2PLYPD3-FC\def2QZVP\C4H6\BOITTIER\26-Aug-2020\0\\
 #p B2PLYPD3/Def2QZVP\\butadiene\\0,1\C,0,-3.839694,0.20948,0.041686\C,
 0,-2.717663,-0.500909,0.003524\C,0,-1.378974,0.114647,-0.002834\C,0,-0
 .28102,-0.674376,0.042772\H,0,-4.804643,-0.258087,0.014854\H,0,-3.7574
 38,1.296114,0.110142\H,0,-2.735412,-1.564826,0.027103\H,0,-1.324,1.202
 92,-0.118617\H,0,-0.2997,-1.803802,0.208195\H,0,0.706807,-0.244788,0.0
 47819\\Version=ES64L-G09RevD.01\State=1-A\HF=-155.6953828\MP2=-155.921
 7302\RMSD=6.360e-09\PG=C01 [X(C4H6)]\\@

 Normal termination of Gaussian 09 at Wed Aug 26 10:35:27 2020.
