 Gaussian 09, Revision D.01,
 Gaussian 09:  ES64L-G09RevD.01 24-Apr-2013

 --------------------
 #p B2PLYPD3/Def2QZVP
 --------------------

 ---------
 butadiene
 ---------
 Symbolic Z-matrix:
 Charge =  0 Multiplicity = 1

                         Standard orientation:
 ---------------------------------------------------------------------
 Center     Atomic      Atomic             Coordinates (Angstroms)
 Number     Number       Type             X           Y           Z
 ---------------------------------------------------------------------
      1          6           0        1.830731    0.108494    0.049173
      2          6           0        0.593008   -0.390726   -0.042967
      3          6           0       -0.593003    0.422098   -0.051805
      4          6           0       -1.813692   -0.121828    0.034467
      5          1           0        2.660450   -0.588598    0.026007
      6          1           0        2.043364    1.162258    0.019230
      7          1           0        0.454244   -1.457370   -0.025439
      8          1           0       -0.540284    1.487866   -0.067256
      9          1           0       -1.956965   -1.162263   -0.017498
     10          1           0       -2.763070    0.449883    0.131744
 ---------------------------------------------------------------------

 SCF Done:  E(RB2PLYPD3) =  -155.697346893     A.U. after   11 cycles
 E2(B2PLYPD3) =    -0.2257818610D+00 E(B2PLYPD3) =    -0.15592312875422D+03

 The electronic state is 1-A.
 Alpha  occ. eigenvalues --  -10.62369 -10.62254 -10.61455 -10.61333  -0.93311
 Alpha  occ. eigenvalues --   -0.84808  -0.70119  -0.64726  -0.54625  -0.54150
 Alpha  occ. eigenvalues --   -0.46202  -0.45652  -0.41678  -0.38226  -0.27418
 Alpha virt. eigenvalues --    0.01672   0.07008   0.07531   0.08005   0.09488
 Alpha virt. eigenvalues --    0.11703   0.12517   0.14783   0.15870   0.16369
 Alpha virt. eigenvalues --    0.18775   0.20154   0.21722   0.23084   0.23945

 Mulliken charges:
               1
     1  C   -0.177093
     2  C   -0.034784
     3  C   -0.029605
     4  C   -0.172590
     5  H    0.080309
     6  H    0.071538
     7  H    0.060049
     8  H    0.062433
     9  H    0.063761
    10  H    0.075983
 Sum of Mulliken charges =   0.00000

 Dipole moment (field-independent basis, Debye):
    X=             -0.0649    Y=             -0.0130    Z=             -0.0169  Tot=              0.0683
 Quadrupole moment (field-independent basis, Debye-Ang):
   XX=            -23.6375   YY=            -22.9931   ZZ=            -29.2152
   XY=              0.1860   XZ=             -0.2397   YZ=              0.0498

 1\1\GINC-NODE26\SP\RB2PLYPD3-FC\def2QZVP\C4H6\BOITTIER\26-Aug-2020\0\\
 #p B2PLYPD3/Def2QZVP\\butadiene\\0,1\C,0,-3.831766,0.219029,-0.028413\
 C,0,-2.704088,-0.492843,0.077658\C,0,-1.390766,0.092286,0.063725\C,0,-
 0.288819,-0.665375,-0.007295\H,0,-4.773596,-0.315799,0.014268\H,0,-3.8
 50461,1.294286,-0.027983\H,0,-2.760309,-1.567077,0.089999\H,0,-1.25008
 5,1.150057,0.049331\H,0,-0.335521,-1.712742,0.073779\H,0,0.747685,-0.2
 77474,-0.120548\\Version=ES64L-G09RevD.01\State=1-A\HF=-155.6973469\MP
 2=-155.9231288\RMSD=4.135e-09\PG=C01 [X(C4H6)]\\@

 Normal termination of Gaussian 09 at Wed Aug 26 10:24:16 2020.
