 Gaussian 09, Revision D.01,
 Gaussian 09:  ES64L-G09RevD.01 24-Apr-2013

 --------------------
 #p B2PLYPD3/Def2QZVP
 --------------------

 ---------
 butadiene
 ---------
 Symbolic Z-matrix:
 Charge =  0 Multiplicity = 1

                         Standard orientation:
 ---------------------------------------------------------------------
 Center     Atomic      Atomic             Coordinates (Angstroms)
 Number     Number       Type             X           Y           Z
 ---------------------------------------------------------------------
      1          6           0        1.850076   -0.104449   -0.013029
      2          6           0        0.606276    0.385246    0.021016
      3          6           0       -0.615228   -0.411085   -0.005659
      4          6           0       -1.847281    0.113990   -0.000493
      5          1           0        2.699822    0.544414   -0.010625
      6          1           0        2.004488   -1.176933   -0.057838
      7          1           0        0.495308    1.469509    0.063899
      8          1           0       -0.459760   -1.448655    0.089298
      9          1           0       -1.958158    1.203548   -0.085116
     10          1           0       -2.744753   -0.494095   -0.010630
 ---------------------------------------------------------------------

 SCF Done:  E(RB2PLYPD3) =  -155.699603563     A.U. after   11 cycles
 E2(B2PLYPD3) =    -0.2257730867D+00 E(B2PLYPD3) =    -0.15592537664964D+03

 The electronic state is 1-A.
 Alpha  occ. eigenvalues --  -10.62520 -10.62371 -10.61893 -10.61397  -0.92918
 Alpha  occ. eigenvalues --   -0.84915  -0.70181  -0.64234  -0.54636  -0.53921
 Alpha  occ. eigenvalues --   -0.46941  -0.45525  -0.41225  -0.37961  -0.27720
 Alpha virt. eigenvalues --    0.01642   0.07023   0.07481   0.08090   0.09547
 Alpha virt. eigenvalues --    0.11680   0.12459   0.14614   0.15713   0.16188
 Alpha virt. eigenvalues --    0.18771   0.20292   0.21544   0.22854   0.23955

 Mulliken charges:
               1
     1  C   -0.181450
     2  C   -0.023768
     3  C   -0.038357
     4  C   -0.172847
     5  H    0.090056
     6  H    0.063300
     7  H    0.049095
     8  H    0.061078
     9  H    0.065084
    10  H    0.087810
 Sum of Mulliken charges =   0.00000

 Dipole moment (field-independent basis, Debye):
    X=             -0.0157    Y=             -0.0158    Z=             -0.0047  Tot=              0.0227
 Quadrupole moment (field-independent basis, Debye-Ang):
   XX=            -23.4292   YY=            -23.1671   ZZ=            -29.2694
   XY=              0.0185   XZ=              0.0200   YZ=             -0.0840

 1\1\GINC-NODE38\SP\RB2PLYPD3-FC\def2QZVP\C4H6\BOITTIER\26-Aug-2020\0\\
 #p B2PLYPD3/Def2QZVP\\butadiene\\0,1\C,0,-3.855217,0.215284,0.007117\C
 ,0,-2.718384,-0.487136,0.054172\C,0,-1.374696,0.078149,0.010767\C,0,-0
 .255801,-0.657648,0.029752\H,0,-4.8069,-0.27168,0.023356\H,0,-3.816343
 ,1.296806,-0.06268\H,0,-2.80211,-1.572555,0.122256\H,0,-1.34269,1.1287
 25,0.081504\H,0,-0.340913,-1.751191,-0.029513\H,0,0.735563,-0.219475,0
 .006789\\Version=ES64L-G09RevD.01\State=1-A\HF=-155.6996036\MP2=-155.9
 253766\RMSD=4.182e-09\PG=C01 [X(C4H6)]\\@

 Normal termination of Gaussian 09 at Wed Aug 26 20:35:39 2020.
