 Gaussian 09, Revision D.01,
 Gaussian 09:  ES64L-G09RevD.01 24-Apr-2013

 --------------------
 #p B2PLYPD3/Def2QZVP
 --------------------

 ---------
 butadiene
 ---------
 Symbolic Z-matrix:
 Charge =  0 Multiplicity = 1

                         Standard orientation:
 ---------------------------------------------------------------------
 Center     Atomic      Atomic             Coordinates (Angstroms)
 Number     Number       Type             X           Y           Z
 ---------------------------------------------------------------------
      1          6           0        1.837432    0.103753   -0.019014
      2          6           0        0.592222   -0.391400    0.001370
      3          6           0       -0.596227    0.409640   -0.000291
      4          6           0       -1.826035   -0.113084   -0.002341
      5          1           0        2.691095   -0.557824    0.078440
      6          1           0        2.024151    1.140882   -0.027839
      7          1           0        0.428635   -1.451372    0.031621
      8          1           0       -0.481245    1.508786    0.062712
      9          1           0       -1.979434   -1.175315   -0.031497
     10          1           0       -2.727558    0.481389    0.008214
 ---------------------------------------------------------------------

 SCF Done:  E(RB2PLYPD3) =  -155.699873877     A.U. after   11 cycles
 E2(B2PLYPD3) =    -0.2257364984D+00 E(B2PLYPD3) =    -0.15592561037548D+03

 The electronic state is 1-A.
 Alpha  occ. eigenvalues --  -10.62580 -10.62285 -10.61426 -10.61257  -0.93293
 Alpha  occ. eigenvalues --   -0.84839  -0.70545  -0.64252  -0.54673  -0.54179
 Alpha  occ. eigenvalues --   -0.46592  -0.45769  -0.41361  -0.38298  -0.27477
 Alpha virt. eigenvalues --    0.01544   0.07033   0.07430   0.08060   0.09661
 Alpha virt. eigenvalues --    0.11717   0.12529   0.14848   0.15833   0.16209
 Alpha virt. eigenvalues --    0.18766   0.20342   0.21955   0.22916   0.23729

 Mulliken charges:
               1
     1  C   -0.178719
     2  C   -0.029156
     3  C   -0.024319
     4  C   -0.176237
     5  H    0.083566
     6  H    0.069843
     7  H    0.056427
     8  H    0.051582
     9  H    0.062332
    10  H    0.084682
 Sum of Mulliken charges =   0.00000

 Dipole moment (field-independent basis, Debye):
    X=             -0.0474    Y=             -0.0046    Z=              0.1093  Tot=              0.1193
 Quadrupole moment (field-independent basis, Debye-Ang):
   XX=            -23.4509   YY=            -23.1267   ZZ=            -29.2167
   XY=              0.2475   XZ=              0.2044   YZ=             -0.0067

 1\1\GINC-NODE10\SP\RB2PLYPD3-FC\def2QZVP\C4H6\BOITTIER\26-Aug-2020\0\\
 #p B2PLYPD3/Def2QZVP\\butadiene\\0,1\C,0,-3.838799,0.222953,0.031648\C
 ,0,-2.705365,-0.492216,0.030835\C,0,-1.390327,0.077339,0.011853\C,0,-0
 .277031,-0.661405,0.034262\H,0,-4.799393,-0.273831,-0.048271\H,0,-3.83
 2425,1.276504,0.007816\H,0,-2.738712,-1.56464,0.033878\H,0,-1.302235,1
 .176469,-0.085441\H,0,-0.320673,-1.732345,0.096717\H,0,0.71808,-0.2426
 67,0.00846\\Version=ES64L-G09RevD.01\State=1-A\HF=-155.6998739\MP2=-15
 5.9256104\RMSD=4.264e-09\PG=C01 [X(C4H6)]\\@

 Normal termination of Gaussian 09 at Wed Aug 26 18:38:42 2020.
