 Gaussian 09, Revision D.01,
 Gaussian 09:  ES64L-G09RevD.01 24-Apr-2013

 --------------------
 #p B2PLYPD3/Def2QZVP
 --------------------

 ---------
 butadiene
 ---------
 Symbolic Z-matrix:
 Charge =  0 Multiplicity = 1

                         Standard orientation:
 ---------------------------------------------------------------------
 Center     Atomic      Atomic             Coordinates (Angstroms)
 Number     Number       Type             X           Y           Z
 ---------------------------------------------------------------------
      1          6           0       -1.857858    0.090563   -0.044147
      2          6           0       -0.617662   -0.360898    0.012770
      3          6           0        0.605641    0.451704    0.039727
      4          6           0        1.874927   -0.139265   -0.011812
      5          1           0       -2.554961   -0.715886   -0.091870
      6          1           0       -2.148933    1.105352    0.120086
      7          1           0       -0.507139   -1.419878    0.130177
      8          1           0        0.424881    1.550354   -0.006751
      9          1           0        2.013342   -1.211711    0.007047
     10          1           0        2.742526    0.439142   -0.137914
 ---------------------------------------------------------------------

 SCF Done:  E(RB2PLYPD3) =  -155.686481192     A.U. after   11 cycles
 E2(B2PLYPD3) =    -0.2270958468D+00 E(B2PLYPD3) =    -0.15591357703899D+03

 The electronic state is 1-A.
 Alpha  occ. eigenvalues --  -10.64067 -10.62400 -10.62112 -10.60848  -0.92440
 Alpha  occ. eigenvalues --   -0.84504  -0.70640  -0.63869  -0.54326  -0.53889
 Alpha  occ. eigenvalues --   -0.46758  -0.46024  -0.41454  -0.37234  -0.27221
 Alpha virt. eigenvalues --    0.01043   0.06977   0.07410   0.08108   0.09127
 Alpha virt. eigenvalues --    0.11594   0.12347   0.14921   0.15401   0.16331
 Alpha virt. eigenvalues --    0.18851   0.20059   0.21635   0.22730   0.24444

 Mulliken charges:
               1
     1  C   -0.182458
     2  C   -0.011665
     3  C   -0.056408
     4  C   -0.176707
     5  H    0.077460
     6  H    0.076577
     7  H    0.052850
     8  H    0.058387
     9  H    0.072473
    10  H    0.089491
 Sum of Mulliken charges =   0.00000

 Dipole moment (field-independent basis, Debye):
    X=              0.0340    Y=             -0.0338    Z=              0.0693  Tot=              0.0843
 Quadrupole moment (field-independent basis, Debye-Ang):
   XX=            -23.8237   YY=            -22.8758   ZZ=            -29.3968
   XY=             -0.3967   XZ=             -0.5845   YZ=             -0.0446

 1\1\GINC-NODE22\SP\RB2PLYPD3-FC\def2QZVP\C4H6\BOITTIER\26-Aug-2020\0\\
 #p B2PLYPD3/Def2QZVP\\butadiene\\0,1\C,0,-3.864031,0.208388,-0.016463\
 C,0,-2.726585,-0.460149,0.05\C,0,-1.375415,0.115922,0.050801\C,0,-0.23
 5649,-0.698001,0.012723\H,0,-4.696882,-0.458258,-0.039554\H,0,-3.96385
 4,1.263364,0.119749\H,0,-2.810172,-1.517898,0.197031\H,0,-1.353103,1.2
 2742,-0.02627\H,0,-0.295028,-1.776771,0.061555\H,0,0.721899,-0.291354,
 -0.13193\\Version=ES64L-G09RevD.01\State=1-A\HF=-155.6864812\MP2=-155.
 913577\RMSD=8.933e-09\PG=C01 [X(C4H6)]\\@

 Normal termination of Gaussian 09 at Wed Aug 26 11:24:25 2020.
