 Gaussian 09, Revision D.01,
 Gaussian 09:  ES64L-G09RevD.01 24-Apr-2013

 --------------------
 #p B2PLYPD3/Def2QZVP
 --------------------

 ---------
 butadiene
 ---------
 Symbolic Z-matrix:
 Charge =  0 Multiplicity = 1

                         Standard orientation:
 ---------------------------------------------------------------------
 Center     Atomic      Atomic             Coordinates (Angstroms)
 Number     Number       Type             X           Y           Z
 ---------------------------------------------------------------------
      1          6           0        1.840937    0.103690   -0.015933
      2          6           0        0.610204   -0.389668    0.015106
      3          6           0       -0.603505    0.409046    0.005843
      4          6           0       -1.839756   -0.124509   -0.006583
      5          1           0        2.692706   -0.538252   -0.030326
      6          1           0        2.005709    1.174489   -0.041619
      7          1           0        0.495798   -1.466096    0.122678
      8          1           0       -0.504420    1.501694    0.063652
      9          1           0       -2.021377   -1.202446   -0.114494
     10          1           0       -2.715704    0.539250    0.009512
 ---------------------------------------------------------------------

 SCF Done:  E(RB2PLYPD3) =  -155.699589761     A.U. after   11 cycles
 E2(B2PLYPD3) =    -0.2259429380D+00 E(B2PLYPD3) =    -0.15592553269896D+03

 The electronic state is 1-A.
 Alpha  occ. eigenvalues --  -10.62877 -10.62354 -10.62041 -10.61180  -0.92910
 Alpha  occ. eigenvalues --   -0.84884  -0.69967  -0.63797  -0.54458  -0.53957
 Alpha  occ. eigenvalues --   -0.46450  -0.45492  -0.41233  -0.37993  -0.27678
 Alpha virt. eigenvalues --    0.01708   0.07026   0.07378   0.07955   0.09551
 Alpha virt. eigenvalues --    0.11670   0.12331   0.14696   0.15768   0.16137
 Alpha virt. eigenvalues --    0.18773   0.20354   0.21491   0.22707   0.23878

 Mulliken charges:
               1
     1  C   -0.177047
     2  C   -0.025999
     3  C   -0.037216
     4  C   -0.175972
     5  H    0.087697
     6  H    0.064489
     7  H    0.055556
     8  H    0.055591
     9  H    0.070280
    10  H    0.082621
 Sum of Mulliken charges =   0.00000

 Dipole moment (field-independent basis, Debye):
    X=              0.0129    Y=             -0.0041    Z=              0.0138  Tot=              0.0193
 Quadrupole moment (field-independent basis, Debye-Ang):
   XX=            -23.5959   YY=            -23.0397   ZZ=            -29.2967
   XY=              0.0572   XZ=              0.0639   YZ=              0.0593

 1\1\GINC-NODE40\SP\RB2PLYPD3-FC\def2QZVP\C4H6\BOITTIER\26-Aug-2020\0\\
 #p B2PLYPD3/Def2QZVP\\butadiene\\0,1\C,0,-3.844223,0.215755,0.032113\C
 ,0,-2.721217,-0.489781,0.020042\C,0,-1.384579,0.079722,0.006431\C,0,-0
 .26316,-0.664928,0.039115\H,0,-4.796699,-0.263309,0.06518\H,0,-3.81545
 3,1.299039,0.022759\H,0,-2.800824,-1.572266,-0.052389\H,0,-1.287562,1.
 170094,-0.08692\H,0,-0.276172,-1.753927,0.182267\H,0,0.716991,-0.16877
 2,0.003701\\Version=ES64L-G09RevD.01\State=1-A\HF=-155.6995898\MP2=-15
 5.9255327\RMSD=5.895e-09\PG=C01 [X(C4H6)]\\@

 Normal termination of Gaussian 09 at Wed Aug 26 18:50:35 2020.
