 Gaussian 09, Revision D.01,
 Gaussian 09:  ES64L-G09RevD.01 24-Apr-2013

 --------------------
 #p B2PLYPD3/Def2QZVP
 --------------------

 ---------
 butadiene
 ---------
 Symbolic Z-matrix:
 Charge =  0 Multiplicity = 1

                         Standard orientation:
 ---------------------------------------------------------------------
 Center     Atomic      Atomic             Coordinates (Angstroms)
 Number     Number       Type             X           Y           Z
 ---------------------------------------------------------------------
      1          6           0        1.841564   -0.120796    0.047789
      2          6           0        0.605238    0.412100   -0.047736
      3          6           0       -0.608161   -0.393491   -0.037784
      4          6           0       -1.855185    0.107682    0.034327
      5          1           0        2.727356    0.468689   -0.009054
      6          1           0        2.030780   -1.160749    0.042265
      7          1           0        0.544193    1.530610   -0.083565
      8          1           0       -0.440807   -1.445893   -0.014251
      9          1           0       -2.043566    1.142269    0.146287
     10          1           0       -2.718687   -0.567895   -0.061258
 ---------------------------------------------------------------------

 SCF Done:  E(RB2PLYPD3) =  -155.696045377     A.U. after   11 cycles
 E2(B2PLYPD3) =    -0.2262049062D+00 E(B2PLYPD3) =    -0.15592225028303D+03

 The electronic state is 1-A.
 Alpha  occ. eigenvalues --  -10.63175 -10.62632 -10.61661 -10.61271  -0.92690
 Alpha  occ. eigenvalues --   -0.84714  -0.70523  -0.64245  -0.54384  -0.54145
 Alpha  occ. eigenvalues --   -0.46594  -0.45851  -0.41379  -0.37734  -0.27449
 Alpha virt. eigenvalues --    0.01333   0.06989   0.07515   0.07990   0.09432
 Alpha virt. eigenvalues --    0.11658   0.12477   0.14775   0.15857   0.16152
 Alpha virt. eigenvalues --    0.18968   0.20450   0.21534   0.22934   0.23641

 Mulliken charges:
               1
     1  C   -0.171807
     2  C   -0.031476
     3  C   -0.037834
     4  C   -0.177148
     5  H    0.080570
     6  H    0.062313
     7  H    0.052838
     8  H    0.064293
     9  H    0.074284
    10  H    0.083965
 Sum of Mulliken charges =   0.00000

 Dipole moment (field-independent basis, Debye):
    X=              0.0522    Y=             -0.0212    Z=             -0.0351  Tot=              0.0664
 Quadrupole moment (field-independent basis, Debye-Ang):
   XX=            -23.3706   YY=            -23.1093   ZZ=            -29.3106
   XY=             -0.2766   XZ=             -0.1086   YZ=              0.0935

 1\1\GINC-NODE07\SP\RB2PLYPD3-FC\def2QZVP\C4H6\BOITTIER\26-Aug-2020\0\\
 #p B2PLYPD3/Def2QZVP\\butadiene\\0,1\C,0,-3.844056,0.235225,0.063342\C
 ,0,-2.723238,-0.512895,-0.01208\C,0,-1.385296,0.062599,-0.023478\C,0,-
 0.247833,-0.651058,0.067708\H,0,-4.821147,-0.187796,0.022151\H,0,-3.84
 4229,1.291576,0.025152\H,0,-2.863329,-1.624852,-0.013171\H,0,-1.361656
 ,1.12818,-0.032945\H,0,-0.247239,-1.698693,0.212113\H,0,0.722321,-0.14
 4099,-0.04618\\Version=ES64L-G09RevD.01\State=1-A\HF=-155.6960454\MP2=
 -155.9222503\RMSD=4.892e-09\PG=C01 [X(C4H6)]\\@

 Normal termination of Gaussian 09 at Wed Aug 26 08:57:33 2020.
