 Gaussian 09, Revision D.01,
 Gaussian 09:  ES64L-G09RevD.01 24-Apr-2013

 --------------------
 #p B2PLYPD3/Def2QZVP
 --------------------

 ---------
 butadiene
 ---------
 Symbolic Z-matrix:
 Charge =  0 Multiplicity = 1

                         Standard orientation:
 ---------------------------------------------------------------------
 Center     Atomic      Atomic             Coordinates (Angstroms)
 Number     Number       Type             X           Y           Z
 ---------------------------------------------------------------------
      1          6           0        1.848374    0.097295    0.008144
      2          6           0        0.602664   -0.380915   -0.023589
      3          6           0       -0.596357    0.422217   -0.009032
      4          6           0       -1.825161   -0.134390    0.033017
      5          1           0        2.664613   -0.551614    0.115173
      6          1           0        2.049652    1.123745   -0.055640
      7          1           0        0.415698   -1.468155   -0.040397
      8          1           0       -0.553151    1.509617   -0.001869
      9          1           0       -2.036271   -1.154718   -0.057316
     10          1           0       -2.717666    0.515887   -0.011196
 ---------------------------------------------------------------------

 SCF Done:  E(RB2PLYPD3) =  -155.695798310     A.U. after   11 cycles
 E2(B2PLYPD3) =    -0.2258207460D+00 E(B2PLYPD3) =    -0.15592161905557D+03

 The electronic state is 1-A.
 Alpha  occ. eigenvalues --  -10.62736 -10.62625 -10.61504 -10.60741  -0.93023
 Alpha  occ. eigenvalues --   -0.84924  -0.70674  -0.64310  -0.54811  -0.54265
 Alpha  occ. eigenvalues --   -0.46654  -0.45684  -0.41488  -0.38047  -0.27418
 Alpha virt. eigenvalues --    0.01465   0.07008   0.07491   0.08030   0.09519
 Alpha virt. eigenvalues --    0.11708   0.12499   0.14993   0.15876   0.16246
 Alpha virt. eigenvalues --    0.18770   0.20180   0.22054   0.23099   0.23724

 Mulliken charges:
               1
     1  C   -0.180898
     2  C   -0.027537
     3  C   -0.032318
     4  C   -0.172318
     5  H    0.087822
     6  H    0.071398
     7  H    0.053448
     8  H    0.058960
     9  H    0.069413
    10  H    0.072030
 Sum of Mulliken charges =   0.00000

 Dipole moment (field-independent basis, Debye):
    X=             -0.0144    Y=              0.0054    Z=             -0.0792  Tot=              0.0807
 Quadrupole moment (field-independent basis, Debye-Ang):
   XX=            -23.5226   YY=            -23.0203   ZZ=            -29.2163
   XY=              0.3153   XZ=              0.3960   YZ=             -0.0489

 1\1\GINC-NODE32\SP\RB2PLYPD3-FC\def2QZVP\C4H6\BOITTIER\26-Aug-2020\0\\
 #p B2PLYPD3/Def2QZVP\\butadiene\\0,1\C,0,-3.849136,0.214721,0.006195\C
 ,0,-2.71073,-0.480234,0.056738\C,0,-1.386002,0.091648,0.026243\C,0,-0.
 278447,-0.679333,0.005064\H,0,-4.769494,-0.278235,-0.087185\H,0,-3.861
 02,1.262006,0.041325\H,0,-2.723923,-1.58248,0.103741\H,0,-1.231399,1.1
 68268,-0.010438\H,0,-0.255753,-1.718162,0.123875\H,0,0.717149,-0.20057
 ,0.035979\\Version=ES64L-G09RevD.01\State=1-A\HF=-155.6957983\MP2=-155
 .9216191\RMSD=6.138e-09\PG=C01 [X(C4H6)]\\@

 Normal termination of Gaussian 09 at Wed Aug 26 10:57:07 2020.
