 Gaussian 09, Revision D.01,
 Gaussian 09:  ES64L-G09RevD.01 24-Apr-2013

 --------------------
 #p B2PLYPD3/Def2QZVP
 --------------------

 ---------
 butadiene
 ---------
 Symbolic Z-matrix:
 Charge =  0 Multiplicity = 1

                         Standard orientation:
 ---------------------------------------------------------------------
 Center     Atomic      Atomic             Coordinates (Angstroms)
 Number     Number       Type             X           Y           Z
 ---------------------------------------------------------------------
      1          6           0       -1.834518   -0.128866    0.013006
      2          6           0       -0.615804    0.410094   -0.028305
      3          6           0        0.603874   -0.377998   -0.007204
      4          6           0        1.844691    0.097650    0.023676
      5          1           0       -2.685733    0.519316   -0.015278
      6          1           0       -2.015403   -1.176236    0.088545
      7          1           0       -0.534002    1.480246   -0.014622
      8          1           0        0.505411   -1.462575   -0.065588
      9          1           0        2.037074    1.162506    0.051592
     10          1           0        2.703191   -0.528537   -0.051684
 ---------------------------------------------------------------------

 SCF Done:  E(RB2PLYPD3) =  -155.700483729     A.U. after   11 cycles
 E2(B2PLYPD3) =    -0.2252000583D+00 E(B2PLYPD3) =    -0.15592568378753D+03

 The electronic state is 1-A.
 Alpha  occ. eigenvalues --  -10.62424 -10.62356 -10.61213 -10.61120  -0.93038
 Alpha  occ. eigenvalues --   -0.85222  -0.70362  -0.64185  -0.54709  -0.54424
 Alpha  occ. eigenvalues --   -0.46844  -0.45603  -0.41199  -0.38119  -0.27760
 Alpha virt. eigenvalues --    0.01774   0.07027   0.07541   0.08036   0.09729
 Alpha virt. eigenvalues --    0.11671   0.12450   0.14828   0.15841   0.16289
 Alpha virt. eigenvalues --    0.18882   0.20488   0.21717   0.22570   0.23945

 Mulliken charges:
               1
     1  C   -0.172858
     2  C   -0.037535
     3  C   -0.026611
     4  C   -0.175562
     5  H    0.082607
     6  H    0.071687
     7  H    0.059157
     8  H    0.052438
     9  H    0.060541
    10  H    0.086136
 Sum of Mulliken charges =   0.00000

 Dipole moment (field-independent basis, Debye):
    X=             -0.0439    Y=              0.0056    Z=             -0.0255  Tot=              0.0510
 Quadrupole moment (field-independent basis, Debye-Ang):
   XX=            -23.3958   YY=            -23.0731   ZZ=            -29.1678
   XY=              0.0813   XZ=             -0.2465   YZ=              0.0454

 1\1\GINC-NODE08\SP\RB2PLYPD3-FC\def2QZVP\C4H6\BOITTIER\26-Aug-2020\0\\
 #p B2PLYPD3/Def2QZVP\\butadiene\\0,1\C,0,-3.83423,0.236994,0.002463\C,
 0,-2.730521,-0.508452,0.062328\C,0,-1.390323,0.049749,0.02451\C,0,-0.2
 53714,-0.639271,0.010602\H,0,-4.786969,-0.248788,0.04502\H,0,-3.826377
 ,1.297434,-0.101535\H,0,-2.840044,-1.576104,0.077398\H,0,-1.294576,1.1
 35747,0.053683\H,0,-0.253492,-1.721726,0.011687\H,0,0.702424,-0.173643
 ,0.072262\\Version=ES64L-G09RevD.01\State=1-A\HF=-155.7004837\MP2=-155
 .9256838\RMSD=5.265e-09\PG=C01 [X(C4H6)]\\@

 Normal termination of Gaussian 09 at Wed Aug 26 22:11:00 2020.
