 Gaussian 09, Revision D.01,
 Gaussian 09:  ES64L-G09RevD.01 24-Apr-2013

 --------------------
 #p B2PLYPD3/Def2QZVP
 --------------------

 ---------
 butadiene
 ---------
 Symbolic Z-matrix:
 Charge =  0 Multiplicity = 1

                         Standard orientation:
 ---------------------------------------------------------------------
 Center     Atomic      Atomic             Coordinates (Angstroms)
 Number     Number       Type             X           Y           Z
 ---------------------------------------------------------------------
      1          6           0        1.828537   -0.111249    0.009486
      2          6           0        0.609775    0.404123   -0.016030
      3          6           0       -0.597370   -0.390674    0.002938
      4          6           0       -1.836467    0.101284    0.004873
      5          1           0        2.712604    0.476750   -0.005389
      6          1           0        1.955454   -1.185071    0.062565
      7          1           0        0.499089    1.500191   -0.051821
      8          1           0       -0.455304   -1.463390   -0.068262
      9          1           0       -2.007446    1.165847    0.078628
     10          1           0       -2.731252   -0.515234   -0.023325
 ---------------------------------------------------------------------

 SCF Done:  E(RB2PLYPD3) =  -155.700898157     A.U. after   11 cycles
 E2(B2PLYPD3) =    -0.2253951544D+00 E(B2PLYPD3) =    -0.15592629331144D+03

 The electronic state is 1-A.
 Alpha  occ. eigenvalues --  -10.62474 -10.62412 -10.61507 -10.61133  -0.93232
 Alpha  occ. eigenvalues --   -0.85108  -0.70280  -0.63969  -0.54999  -0.53913
 Alpha  occ. eigenvalues --   -0.47014  -0.45258  -0.41041  -0.38327  -0.27790
 Alpha virt. eigenvalues --    0.01821   0.07059   0.07404   0.08051   0.09709
 Alpha virt. eigenvalues --    0.11662   0.12561   0.14680   0.15818   0.16281
 Alpha virt. eigenvalues --    0.18789   0.20421   0.21768   0.22833   0.23699

 Mulliken charges:
               1
     1  C   -0.173096
     2  C   -0.025424
     3  C   -0.029213
     4  C   -0.175237
     5  H    0.088593
     6  H    0.060746
     7  H    0.050216
     8  H    0.054261
     9  H    0.063721
    10  H    0.085434
 Sum of Mulliken charges =   0.00000

 Dipole moment (field-independent basis, Debye):
    X=              0.0294    Y=              0.0078    Z=             -0.0106  Tot=              0.0322
 Quadrupole moment (field-independent basis, Debye-Ang):
   XX=            -23.2675   YY=            -23.2445   ZZ=            -29.1831
   XY=             -0.0797   XZ=              0.0363   YZ=              0.0620

 1\1\GINC-NODE04\SP\RB2PLYPD3-FC\def2QZVP\C4H6\BOITTIER\26-Aug-2020\0\\
 #p B2PLYPD3/Def2QZVP\\butadiene\\0,1\C,0,-3.830096,0.22403,0.026852\C,
 0,-2.7241,-0.502863,0.020564\C,0,-1.39356,0.061847,0.015194\C,0,-0.263
 23,-0.644782,0.035598\H,0,-4.805602,-0.195394,0.029999\H,0,-3.761466,1
 .304314,0.044014\H,0,-2.812625,-1.601525,0.021391\H,0,-1.340563,1.1396
 72,-0.091844\H,0,-0.286307,-1.719712,0.144968\H,0,0.727767,-0.20067,-0
 .011527\\Version=ES64L-G09RevD.01\State=1-A\HF=-155.7008982\MP2=-155.9
 262933\RMSD=3.203e-09\PG=C01 [X(C4H6)]\\@

 Normal termination of Gaussian 09 at Wed Aug 26 20:16:45 2020.
