 Gaussian 09, Revision D.01,
 Gaussian 09:  ES64L-G09RevD.01 24-Apr-2013

 --------------------
 #p B2PLYPD3/Def2QZVP
 --------------------

 ---------
 butadiene
 ---------
 Symbolic Z-matrix:
 Charge =  0 Multiplicity = 1

                         Standard orientation:
 ---------------------------------------------------------------------
 Center     Atomic      Atomic             Coordinates (Angstroms)
 Number     Number       Type             X           Y           Z
 ---------------------------------------------------------------------
      1          6           0       -1.845663    0.100943    0.015714
      2          6           0       -0.607906   -0.382731   -0.027692
      3          6           0        0.605033    0.401335   -0.020275
      4          6           0        1.840903   -0.115888    0.032271
      5          1           0       -2.741764   -0.531699    0.025031
      6          1           0       -1.975223    1.180068    0.052000
      7          1           0       -0.473467   -1.475121   -0.046179
      8          1           0        0.497475    1.488127   -0.025653
      9          1           0        2.011093   -1.176715    0.046242
     10          1           0        2.727683    0.493392   -0.051546
 ---------------------------------------------------------------------

 SCF Done:  E(RB2PLYPD3) =  -155.700022500     A.U. after   11 cycles
 E2(B2PLYPD3) =    -0.2259090958D+00 E(B2PLYPD3) =    -0.15592593159594D+03

 The electronic state is 1-A.
 Alpha  occ. eigenvalues --  -10.62730 -10.62529 -10.61696 -10.61558  -0.93064
 Alpha  occ. eigenvalues --   -0.84942  -0.70256  -0.63846  -0.54633  -0.53905
 Alpha  occ. eigenvalues --   -0.46867  -0.45301  -0.40994  -0.38231  -0.27705
 Alpha virt. eigenvalues --    0.01557   0.06989   0.07417   0.07975   0.09761
 Alpha virt. eigenvalues --    0.11648   0.12492   0.14636   0.15874   0.16159
 Alpha virt. eigenvalues --    0.18848   0.20380   0.21663   0.22642   0.23689

 Mulliken charges:
               1
     1  C   -0.174624
     2  C   -0.023281
     3  C   -0.031947
     4  C   -0.172005
     5  H    0.089963
     6  H    0.062052
     7  H    0.048692
     8  H    0.052403
     9  H    0.064088
    10  H    0.084659
 Sum of Mulliken charges =   0.00000

 Dipole moment (field-independent basis, Debye):
    X=              0.0201    Y=             -0.0117    Z=             -0.0320  Tot=              0.0395
 Quadrupole moment (field-independent basis, Debye-Ang):
   XX=            -23.2978   YY=            -23.2519   ZZ=            -29.2822
   XY=             -0.0451   XZ=             -0.2473   YZ=             -0.0225

 1\1\GINC-NODE38\SP\RB2PLYPD3-FC\def2QZVP\C4H6\BOITTIER\26-Aug-2020\0\\
 #p B2PLYPD3/Def2QZVP\\butadiene\\0,1\C,0,-3.849382,0.213408,0.037399\C
 ,0,-2.717891,-0.484275,0.008512\C,0,-1.38462,0.070837,-0.00801\C,0,-0.
 260433,-0.656645,0.060029\H,0,-4.843815,-0.248765,0.066014\H,0,-3.7843
 58,1.298937,0.040966\H,0,-2.78038,-1.583189,0.023138\H,0,-1.29681,1.15
 8742,-0.046323\H,0,-0.281939,-1.729923,0.106135\H,0,0.720252,-0.218008
 ,-0.042343\\Version=ES64L-G09RevD.01\State=1-A\HF=-155.7000225\MP2=-15
 5.9259316\RMSD=5.539e-09\PG=C01 [X(C4H6)]\\@

 Normal termination of Gaussian 09 at Wed Aug 26 21:55:40 2020.
