 Gaussian 09, Revision D.01,
 Gaussian 09:  ES64L-G09RevD.01 24-Apr-2013

 --------------------
 #p B2PLYPD3/Def2QZVP
 --------------------

 ---------
 butadiene
 ---------
 Symbolic Z-matrix:
 Charge =  0 Multiplicity = 1

                         Standard orientation:
 ---------------------------------------------------------------------
 Center     Atomic      Atomic             Coordinates (Angstroms)
 Number     Number       Type             X           Y           Z
 ---------------------------------------------------------------------
      1          6           0       -1.848817   -0.112827    0.016156
      2          6           0       -0.607726    0.414581   -0.020685
      3          6           0        0.602928   -0.373585   -0.034689
      4          6           0        1.864183    0.097126   -0.005057
      5          1           0       -2.811648    0.455972    0.018248
      6          1           0       -1.993354   -1.186927    0.030916
      7          1           0       -0.502347    1.504717    0.062663
      8          1           0        0.417646   -1.463339   -0.008222
      9          1           0        2.134005    1.145608    0.004635
     10          1           0        2.692293   -0.607802    0.157413
 ---------------------------------------------------------------------

 SCF Done:  E(RB2PLYPD3) =  -155.695690348     A.U. after   11 cycles
 E2(B2PLYPD3) =    -0.2269046007D+00 E(B2PLYPD3) =    -0.15592259494843D+03

 The electronic state is 1-A.
 Alpha  occ. eigenvalues --  -10.63085 -10.62989 -10.62331 -10.62027  -0.92765
 Alpha  occ. eigenvalues --   -0.84467  -0.70317  -0.63780  -0.54351  -0.53565
 Alpha  occ. eigenvalues --   -0.46683  -0.45203  -0.40832  -0.38042  -0.27490
 Alpha virt. eigenvalues --    0.01158   0.06914   0.07377   0.07918   0.09565
 Alpha virt. eigenvalues --    0.11515   0.12419   0.14623   0.15751   0.16283
 Alpha virt. eigenvalues --    0.18932   0.20012   0.22032   0.22433   0.23478

 Mulliken charges:
               1
     1  C   -0.168671
     2  C   -0.030443
     3  C   -0.029656
     4  C   -0.174679
     5  H    0.083355
     6  H    0.058941
     7  H    0.056052
     8  H    0.052388
     9  H    0.070646
    10  H    0.082070
 Sum of Mulliken charges =   0.00000

 Dipole moment (field-independent basis, Debye):
    X=             -0.0635    Y=              0.0083    Z=              0.1994  Tot=              0.2094
 Quadrupole moment (field-independent basis, Debye-Ang):
   XX=            -23.2308   YY=            -23.3328   ZZ=            -29.4142
   XY=              0.3730   XZ=              0.3373   YZ=             -0.0587

 1\1\GINC-NODE30\SP\RB2PLYPD3-FC\def2QZVP\C4H6\BOITTIER\26-Aug-2020\0\\
 #p B2PLYPD3/Def2QZVP\\butadiene\\0,1\C,0,-3.850525,0.233708,0.000806\C
 ,0,-2.725615,-0.508961,0.054105\C,0,-1.391908,0.046152,0.041486\C,0,-0
 .237312,-0.646592,0.026477\H,0,-4.900624,-0.15045,0.01798\H,0,-3.79772
 3,1.315154,-0.049052\H,0,-2.820482,-1.602204,0.006458\H,0,-1.376406,1.
 150011,-0.020559\H,0,-0.162425,-1.726409,0.050975\H,0,0.703941,-0.1094
 47,-0.159545\\Version=ES64L-G09RevD.01\State=1-A\HF=-155.6956903\MP2=-
 155.9225949\RMSD=3.289e-09\PG=C01 [X(C4H6)]\\@

 Normal termination of Gaussian 09 at Wed Aug 26 09:19:33 2020.
