 Gaussian 09, Revision D.01,
 Gaussian 09:  ES64L-G09RevD.01 24-Apr-2013

 --------------------
 #p B2PLYPD3/Def2QZVP
 --------------------

 ---------
 butadiene
 ---------
 Symbolic Z-matrix:
 Charge =  0 Multiplicity = 1

                         Standard orientation:
 ---------------------------------------------------------------------
 Center     Atomic      Atomic             Coordinates (Angstroms)
 Number     Number       Type             X           Y           Z
 ---------------------------------------------------------------------
      1          6           0       -1.827371    0.132172   -0.035606
      2          6           0       -0.605886   -0.435192    0.021013
      3          6           0        0.593201    0.382550    0.012462
      4          6           0        1.829444   -0.089117   -0.027530
      5          1           0       -2.717439   -0.523708   -0.008658
      6          1           0       -1.991854    1.193396   -0.001697
      7          1           0       -0.443550   -1.509100    0.159260
      8          1           0        0.457910    1.505309    0.073198
      9          1           0        2.061574   -1.132742   -0.115001
     10          1           0        2.697034    0.524369    0.070866
 ---------------------------------------------------------------------

 SCF Done:  E(RB2PLYPD3) =  -155.695959132     A.U. after   11 cycles
 E2(B2PLYPD3) =    -0.2261393907D+00 E(B2PLYPD3) =    -0.15592209852298D+03

 The electronic state is 1-A.
 Alpha  occ. eigenvalues --  -10.62973 -10.62702 -10.62002 -10.60923  -0.92949
 Alpha  occ. eigenvalues --   -0.84784  -0.70161  -0.63732  -0.54539  -0.53803
 Alpha  occ. eigenvalues --   -0.46980  -0.45196  -0.40869  -0.37973  -0.27624
 Alpha virt. eigenvalues --    0.01692   0.07046   0.07244   0.07972   0.09447
 Alpha virt. eigenvalues --    0.11644   0.12436   0.14789   0.15632   0.16276
 Alpha virt. eigenvalues --    0.18751   0.20185   0.21962   0.22635   0.23656

 Mulliken charges:
               1
     1  C   -0.172797
     2  C   -0.043264
     3  C   -0.016149
     4  C   -0.177538
     5  H    0.079638
     6  H    0.076040
     7  H    0.063884
     8  H    0.046981
     9  H    0.059669
    10  H    0.083535
 Sum of Mulliken charges =   0.00000

 Dipole moment (field-independent basis, Debye):
    X=             -0.0027    Y=             -0.0225    Z=              0.1813  Tot=              0.1827
 Quadrupole moment (field-independent basis, Debye-Ang):
   XX=            -23.5490   YY=            -23.0966   ZZ=            -29.2774
   XY=             -0.3988   XZ=             -0.0333   YZ=              0.0635

 1\1\GINC-NODE36\SP\RB2PLYPD3-FC\def2QZVP\C4H6\BOITTIER\26-Aug-2020\0\\
 #p B2PLYPD3/Def2QZVP\\butadiene\\0,1\C,0,-3.82268,0.249661,-0.012815\C
 ,0,-2.725713,-0.530253,0.061562\C,0,-1.397063,0.053138,0.031115\C,0,-0
 .26843,-0.638189,0.0062\H,0,-4.817801,-0.23083,0.031776\H,0,-3.789658,
 1.323579,-0.009507\H,0,-2.762481,-1.611356,0.230699\H,0,-1.323954,1.18
 293,0.059515\H,0,-0.23194,-1.708739,-0.051067\H,0,0.697324,-0.191677,0
 .088086\\Version=ES64L-G09RevD.01\State=1-A\HF=-155.6959591\MP2=-155.9
 220985\RMSD=8.170e-09\PG=C01 [X(C4H6)]\\@

 Normal termination of Gaussian 09 at Wed Aug 26 10:30:46 2020.
