 Gaussian 09, Revision D.01,
 Gaussian 09:  ES64L-G09RevD.01 24-Apr-2013

 --------------------
 #p B2PLYPD3/Def2QZVP
 --------------------

 ---------
 butadiene
 ---------
 Symbolic Z-matrix:
 Charge =  0 Multiplicity = 1

                         Standard orientation:
 ---------------------------------------------------------------------
 Center     Atomic      Atomic             Coordinates (Angstroms)
 Number     Number       Type             X           Y           Z
 ---------------------------------------------------------------------
      1          6           0        1.852746   -0.123439    0.031842
      2          6           0        0.613206    0.423953   -0.024716
      3          6           0       -0.603399   -0.381109   -0.029490
      4          6           0       -1.850180    0.091458    0.003855
      5          1           0        2.763224    0.474234   -0.030369
      6          1           0        1.964903   -1.216881   -0.055561
      7          1           0        0.481816    1.510174    0.096973
      8          1           0       -0.538184   -1.466633    0.055444
      9          1           0       -2.055903    1.130439   -0.048744
     10          1           0       -2.690098   -0.496513    0.093311
 ---------------------------------------------------------------------

 SCF Done:  E(RB2PLYPD3) =  -155.694658671     A.U. after   11 cycles
 E2(B2PLYPD3) =    -0.2262178852D+00 E(B2PLYPD3) =    -0.15592087655625D+03

 The electronic state is 1-A.
 Alpha  occ. eigenvalues --  -10.63322 -10.62600 -10.62272 -10.60614  -0.92702
 Alpha  occ. eigenvalues --   -0.84876  -0.70478  -0.64004  -0.54898  -0.53934
 Alpha  occ. eigenvalues --   -0.46790  -0.45227  -0.41368  -0.37851  -0.27598
 Alpha virt. eigenvalues --    0.01390   0.07074   0.07462   0.08012   0.09338
 Alpha virt. eigenvalues --    0.11612   0.12632   0.14613   0.15622   0.16450
 Alpha virt. eigenvalues --    0.18897   0.19898   0.21829   0.22955   0.23963

 Mulliken charges:
               1
     1  C   -0.167762
     2  C   -0.046130
     3  C   -0.020770
     4  C   -0.175639
     5  H    0.085990
     6  H    0.065251
     7  H    0.062155
     8  H    0.052204
     9  H    0.058489
    10  H    0.086213
 Sum of Mulliken charges =   0.00000

 Dipole moment (field-independent basis, Debye):
    X=             -0.0406    Y=              0.0153    Z=              0.0584  Tot=              0.0728
 Quadrupole moment (field-independent basis, Debye-Ang):
   XX=            -23.1833   YY=            -23.2476   ZZ=            -29.2875
   XY=             -0.0477   XZ=             -0.3892   YZ=             -0.0069

 1\1\GINC-NODE40\SP\RB2PLYPD3-FC\def2QZVP\C4H6\BOITTIER\26-Aug-2020\0\\
 #p B2PLYPD3/Def2QZVP\\butadiene\\0,1\C,0,-3.851438,0.237695,0.046668\C
 ,0,-2.729138,-0.522947,0.012564\C,0,-1.38869,0.052315,-0.010887\C,0,-0
 .245881,-0.633263,0.042635\H,0,-4.85379,-0.190097,-0.001681\H,0,-3.767
 287,1.330445,-0.074369\H,0,-2.793051,-1.610964,0.167742\H,0,-1.259624,
 1.134211,0.040793\H,0,-0.228374,-1.693385,0.022525\H,0,0.685332,-0.201
 625,0.118178\\Version=ES64L-G09RevD.01\State=1-A\HF=-155.6946587\MP2=-
 155.9208766\RMSD=7.779e-09\PG=C01 [X(C4H6)]\\@

 Normal termination of Gaussian 09 at Wed Aug 26 09:28:05 2020.
