 Gaussian 09, Revision D.01,
 Gaussian 09:  ES64L-G09RevD.01 24-Apr-2013

 --------------------
 #p B2PLYPD3/Def2QZVP
 --------------------

 ---------
 butadiene
 ---------
 Symbolic Z-matrix:
 Charge =  0 Multiplicity = 1

                         Standard orientation:
 ---------------------------------------------------------------------
 Center     Atomic      Atomic             Coordinates (Angstroms)
 Number     Number       Type             X           Y           Z
 ---------------------------------------------------------------------
      1          6           0        1.874812   -0.095390    0.017847
      2          6           0        0.610204    0.346141   -0.038096
      3          6           0       -0.639149   -0.385390   -0.119026
      4          6           0       -1.843076    0.124054    0.071544
      5          1           0        2.725563    0.573606    0.313670
      6          1           0        2.018120   -1.181430    0.081668
      7          1           0        0.439986    1.420206   -0.175387
      8          1           0       -0.618221   -1.429519   -0.087955
      9          1           0       -1.986771    1.278995   -0.018673
     10          1           0       -2.595429   -0.598346    0.293057
 ---------------------------------------------------------------------

 SCF Done:  E(RB2PLYPD3) =  -155.679638928     A.U. after   11 cycles
 E2(B2PLYPD3) =    -0.2269134669D+00 E(B2PLYPD3) =    -0.15590655239450D+03

 The electronic state is 1-A.
 Alpha  occ. eigenvalues --  -10.62838 -10.62359 -10.62182 -10.61822  -0.93264
 Alpha  occ. eigenvalues --   -0.85304  -0.69970  -0.63590  -0.54741  -0.53087
 Alpha  occ. eigenvalues --   -0.46755  -0.45163  -0.41155  -0.37513  -0.27885
 Alpha virt. eigenvalues --    0.01323   0.06884   0.07398   0.07845   0.09547
 Alpha virt. eigenvalues --    0.11622   0.12170   0.14397   0.15325   0.16057
 Alpha virt. eigenvalues --    0.18550   0.19536   0.21192   0.22678   0.23739

 Mulliken charges:
               1
     1  C   -0.175903
     2  C   -0.025321
     3  C   -0.035129
     4  C   -0.168204
     5  H    0.086762
     6  H    0.060363
     7  H    0.050509
     8  H    0.050553
     9  H    0.068437
    10  H    0.087933
 Sum of Mulliken charges =   0.00000

 Dipole moment (field-independent basis, Debye):
    X=             -0.1638    Y=             -0.0784    Z=              0.2787  Tot=              0.3327
 Quadrupole moment (field-independent basis, Debye-Ang):
   XX=            -24.1289   YY=            -23.2660   ZZ=            -29.0869
   XY=              0.3004   XZ=              0.2339   YZ=             -0.2805

 1\1\GINC-NODE21\SP\RB2PLYPD3-FC\def2QZVP\C4H6\BOITTIER\26-Aug-2020\0\\
 #p B2PLYPD3/Def2QZVP\\butadiene\\0,1\C,0,-3.882005,0.20408,0.052344\C,
 0,-2.713663,-0.451227,-0.001148\C,0,-1.356431,0.050983,-0.09212\C,0,-0
 .258762,-0.65813,0.10172\H,0,-4.835058,-0.303691,0.356815\H,0,-3.83402
 8,1.299085,0.104825\H,0,-2.733323,-1.539871,-0.127271\H,0,-1.195347,1.
 083098,-0.072159\H,0,-0.318436,-1.821319,0.023579\H,0,0.608553,-0.0753
 8,0.314161\\Version=ES64L-G09RevD.01\State=1-A\HF=-155.6796389\MP2=-15
 5.9065524\RMSD=5.883e-09\PG=C01 [X(C4H6)]\\@

 Normal termination of Gaussian 09 at Wed Aug 26 13:45:20 2020.
