 Gaussian 09, Revision D.01,
 Gaussian 09:  ES64L-G09RevD.01 24-Apr-2013

 --------------------
 #p B2PLYPD3/Def2QZVP
 --------------------

 ---------
 butadiene
 ---------
 Symbolic Z-matrix:
 Charge =  0 Multiplicity = 1

                         Standard orientation:
 ---------------------------------------------------------------------
 Center     Atomic      Atomic             Coordinates (Angstroms)
 Number     Number       Type             X           Y           Z
 ---------------------------------------------------------------------
      1          6           0        1.827092   -0.118502   -0.012226
      2          6           0        0.603878    0.416976   -0.004759
      3          6           0       -0.602380   -0.386303    0.016959
      4          6           0       -1.831133    0.095323   -0.025478
      5          1           0        2.723587    0.475694    0.023844
      6          1           0        1.994577   -1.198253   -0.045264
      7          1           0        0.496528    1.491401    0.094125
      8          1           0       -0.482887   -1.470124    0.066349
      9          1           0       -1.992054    1.189814   -0.025457
     10          1           0       -2.724488   -0.533500    0.039426
 ---------------------------------------------------------------------

 SCF Done:  E(RB2PLYPD3) =  -155.699900648     A.U. after   11 cycles
 E2(B2PLYPD3) =    -0.2256321340D+00 E(B2PLYPD3) =    -0.15592553278202D+03

 The electronic state is 1-A.
 Alpha  occ. eigenvalues --  -10.62593 -10.62284 -10.61613 -10.61564  -0.93167
 Alpha  occ. eigenvalues --   -0.85002  -0.69908  -0.63924  -0.54703  -0.53813
 Alpha  occ. eigenvalues --   -0.46881  -0.44964  -0.41037  -0.38236  -0.27836
 Alpha virt. eigenvalues --    0.01885   0.07043   0.07348   0.07995   0.09638
 Alpha virt. eigenvalues --    0.11637   0.12462   0.14596   0.15754   0.16332
 Alpha virt. eigenvalues --    0.18790   0.20250   0.21756   0.22687   0.23767

 Mulliken charges:
               1
     1  C   -0.172043
     2  C   -0.034402
     3  C   -0.026267
     4  C   -0.169660
     5  H    0.083567
     6  H    0.064035
     7  H    0.058817
     8  H    0.052942
     9  H    0.057846
    10  H    0.085165
 Sum of Mulliken charges =   0.00000

 Dipole moment (field-independent basis, Debye):
    X=              0.0502    Y=             -0.0126    Z=              0.1486  Tot=              0.1573
 Quadrupole moment (field-independent basis, Debye-Ang):
   XX=            -23.4060   YY=            -23.1777   ZZ=            -29.2377
   XY=             -0.0721   XZ=             -0.0628   YZ=              0.0664

 1\1\GINC-NODE01\SP\RB2PLYPD3-FC\def2QZVP\C4H6\BOITTIER\26-Aug-2020\0\\
 #p B2PLYPD3/Def2QZVP\\butadiene\\0,1\C,0,-3.828203,0.230394,0.007348\C
 ,0,-2.721206,-0.515768,0.036418\C,0,-1.390084,0.057722,0.033137\C,0,-0
 .268147,-0.638224,0.010474\H,0,-4.816792,-0.191261,0.061868\H,0,-3.798
 911,1.320857,-0.063624\H,0,-2.808441,-1.587898,0.172864\H,0,-1.312534,
 1.146411,0.044518\H,0,-0.306674,-1.743141,0.048946\H,0,0.723969,-0.178
 465,0.055655\\Version=ES64L-G09RevD.01\State=1-A\HF=-155.6999006\MP2=-
 155.9255328\RMSD=5.876e-09\PG=C01 [X(C4H6)]\\@

 Normal termination of Gaussian 09 at Wed Aug 26 21:46:24 2020.
