 Gaussian 09, Revision D.01,
 Gaussian 09:  ES64L-G09RevD.01 24-Apr-2013

 --------------------
 #p B2PLYPD3/Def2QZVP
 --------------------

 ---------
 butadiene
 ---------
 Symbolic Z-matrix:
 Charge =  0 Multiplicity = 1

                         Standard orientation:
 ---------------------------------------------------------------------
 Center     Atomic      Atomic             Coordinates (Angstroms)
 Number     Number       Type             X           Y           Z
 ---------------------------------------------------------------------
      1          6           0        1.876060   -0.119392    0.053689
      2          6           0        0.645795    0.417508   -0.054079
      3          6           0       -0.619628   -0.382550   -0.083462
      4          6           0       -1.871728    0.107094    0.015874
      5          1           0        2.766506    0.507041   -0.021042
      6          1           0        1.897632   -1.250737    0.252175
      7          1           0        0.452764    1.492173   -0.116930
      8          1           0       -0.377074   -1.372759   -0.113624
      9          1           0       -2.190841    1.142411    0.324594
     10          1           0       -2.731983   -0.654090    0.082691
 ---------------------------------------------------------------------

 SCF Done:  E(RB2PLYPD3) =  -155.679069805     A.U. after   11 cycles
 E2(B2PLYPD3) =    -0.2275826478D+00 E(B2PLYPD3) =    -0.15590665245295D+03

 The electronic state is 1-A.
 Alpha  occ. eigenvalues --  -10.63177 -10.63049 -10.62779 -10.62697  -0.92276
 Alpha  occ. eigenvalues --   -0.84349  -0.69683  -0.64072  -0.54461  -0.52089
 Alpha  occ. eigenvalues --   -0.47960  -0.44853  -0.39885  -0.37315  -0.27898
 Alpha virt. eigenvalues --    0.01225   0.06781   0.07153   0.08106   0.09167
 Alpha virt. eigenvalues --    0.11535   0.12057   0.14627   0.15493   0.15885
 Alpha virt. eigenvalues --    0.18636   0.20447   0.20799   0.22207   0.23562

 Mulliken charges:
               1
     1  C   -0.181084
     2  C   -0.033681
     3  C   -0.047186
     4  C   -0.161727
     5  H    0.099088
     6  H    0.060783
     7  H    0.055514
     8  H    0.067191
     9  H    0.072791
    10  H    0.068310
 Sum of Mulliken charges =   0.00000

 Dipole moment (field-independent basis, Debye):
    X=              0.0384    Y=              0.0224    Z=              0.2848  Tot=              0.2882
 Quadrupole moment (field-independent basis, Debye-Ang):
   XX=            -23.7846   YY=            -23.3683   ZZ=            -29.3954
   XY=             -0.2140   XZ=             -0.6413   YZ=             -0.0116

 1\1\GINC-NODE21\SP\RB2PLYPD3-FC\def2QZVP\C4H6\BOITTIER\26-Aug-2020\0\\
 #p B2PLYPD3/Def2QZVP\\butadiene\\0,1\C,0,-3.873356,0.238691,0.069296\C
 ,0,-2.757766,-0.510371,-0.018989\C,0,-1.370164,0.051335,-0.054999\C,0,
 -0.225431,-0.650832,0.063001\H,0,-4.860714,-0.220969,0.000499\H,0,-3.6
 94156,1.359725,0.245288\H,0,-2.758651,-1.6033,-0.059256\H,0,-1.432694,
 1.068046,-0.106418\H,0,-0.096585,-1.719767,0.394358\H,0,0.756203,-0.05
 3393,0.121012\\Version=ES64L-G09RevD.01\State=1-A\HF=-155.6790698\MP2=
 -155.9066525\RMSD=5.268e-09\PG=C01 [X(C4H6)]\\@

 Normal termination of Gaussian 09 at Wed Aug 26 13:50:32 2020.
