 Gaussian 09, Revision D.01,
 Gaussian 09:  ES64L-G09RevD.01 24-Apr-2013

 --------------------
 #p B2PLYPD3/Def2QZVP
 --------------------

 ---------
 butadiene
 ---------
 Symbolic Z-matrix:
 Charge =  0 Multiplicity = 1

                         Standard orientation:
 ---------------------------------------------------------------------
 Center     Atomic      Atomic             Coordinates (Angstroms)
 Number     Number       Type             X           Y           Z
 ---------------------------------------------------------------------
      1          6           0       -1.832144    0.093146   -0.029042
      2          6           0       -0.594524   -0.387523    0.053431
      3          6           0        0.582193    0.425665    0.014390
      4          6           0        1.826313   -0.109771   -0.016467
      5          1           0       -2.630033   -0.555164   -0.029243
      6          1           0       -2.070700    1.138184   -0.036370
      7          1           0       -0.421418   -1.433836   -0.020388
      8          1           0        0.492392    1.478158    0.029106
      9          1           0        1.935832   -1.202257   -0.048598
     10          1           0        2.802904    0.445810   -0.028382
 ---------------------------------------------------------------------

 SCF Done:  E(RB2PLYPD3) =  -155.694526214     A.U. after   11 cycles
 E2(B2PLYPD3) =    -0.2258970883D+00 E(B2PLYPD3) =    -0.15592042330194D+03

 The electronic state is 1-A.
 Alpha  occ. eigenvalues --  -10.62384 -10.62269 -10.62048 -10.60714  -0.93410
 Alpha  occ. eigenvalues --   -0.84709  -0.70511  -0.64812  -0.54954  -0.54063
 Alpha  occ. eigenvalues --   -0.46635  -0.45416  -0.41672  -0.38296  -0.27345
 Alpha virt. eigenvalues --    0.01470   0.07030   0.07513   0.08149   0.09520
 Alpha virt. eigenvalues --    0.11625   0.12605   0.14729   0.15731   0.16480
 Alpha virt. eigenvalues --    0.18754   0.20199   0.22094   0.22808   0.23826

 Mulliken charges:
               1
     1  C   -0.176655
     2  C   -0.029683
     3  C   -0.032125
     4  C   -0.172712
     5  H    0.084231
     6  H    0.067948
     7  H    0.060361
     8  H    0.061973
     9  H    0.055186
    10  H    0.081478
 Sum of Mulliken charges =   0.00000

 Dipole moment (field-independent basis, Debye):
    X=             -0.0284    Y=              0.0130    Z=             -0.0717  Tot=              0.0783
 Quadrupole moment (field-independent basis, Debye-Ang):
   XX=            -23.3251   YY=            -23.1669   ZZ=            -29.2148
   XY=             -0.2139   XZ=              0.0353   YZ=              0.1005

 1\1\GINC-NODE01\SP\RB2PLYPD3-FC\def2QZVP\C4H6\BOITTIER\26-Aug-2020\0\\
 #p B2PLYPD3/Def2QZVP\\butadiene\\0,1\C,0,-3.83363,0.213438,-0.01189\C,
 0,-2.70648,-0.48671,0.082308\C,0,-1.399434,0.093203,0.029471\C,0,-0.27
 6261,-0.664184,0.01145\H,0,-4.737914,-0.275521,-0.000827\H,0,-3.874243
 ,1.28424,-0.040199\H,0,-2.730566,-1.548221,0.029389\H,0,-1.29245,1.144
 174,0.023332\H,0,-0.371318,-1.758446,0.001\H,0,0.786405,-0.299708,-0.0
 09573\\Version=ES64L-G09RevD.01\State=1-A\HF=-155.6945262\MP2=-155.920
 4233\RMSD=6.549e-09\PG=C01 [X(C4H6)]\\@

 Normal termination of Gaussian 09 at Wed Aug 26 09:31:26 2020.
