 Gaussian 09, Revision D.01,
 Gaussian 09:  ES64L-G09RevD.01 24-Apr-2013

 --------------------
 #p B2PLYPD3/Def2QZVP
 --------------------

 ---------
 butadiene
 ---------
 Symbolic Z-matrix:
 Charge =  0 Multiplicity = 1

                         Standard orientation:
 ---------------------------------------------------------------------
 Center     Atomic      Atomic             Coordinates (Angstroms)
 Number     Number       Type             X           Y           Z
 ---------------------------------------------------------------------
      1          6           0       -1.846703    0.082151    0.069745
      2          6           0       -0.584992   -0.367360   -0.057370
      3          6           0        0.591177    0.434169   -0.100497
      4          6           0        1.809922   -0.105663    0.027309
      5          1           0       -2.604848   -0.550671    0.154822
      6          1           0       -1.999315    1.143793    0.079902
      7          1           0       -0.406137   -1.451896   -0.198034
      8          1           0        0.538000    1.539387   -0.114204
      9          1           0        1.782559   -1.251279    0.087769
     10          1           0        2.873311    0.310885    0.354619
 ---------------------------------------------------------------------

 SCF Done:  E(RB2PLYPD3) =  -155.673766856     A.U. after   12 cycles
 E2(B2PLYPD3) =    -0.2276214644D+00 E(B2PLYPD3) =    -0.15590138832010D+03

 The electronic state is 1-A.
 Alpha  occ. eigenvalues --  -10.63451 -10.62987 -10.62836 -10.60553  -0.93534
 Alpha  occ. eigenvalues --   -0.84833  -0.70126  -0.63653  -0.55248  -0.53365
 Alpha  occ. eigenvalues --   -0.47113  -0.44163  -0.41045  -0.38098  -0.27410
 Alpha virt. eigenvalues --    0.01251   0.06923   0.07270   0.07805   0.09433
 Alpha virt. eigenvalues --    0.11337   0.12854   0.13991   0.15696   0.16527
 Alpha virt. eigenvalues --    0.18595   0.20305   0.21511   0.22576   0.23110

 Mulliken charges:
               1
     1  C   -0.192578
     2  C   -0.021037
     3  C   -0.026838
     4  C   -0.152919
     5  H    0.097322
     6  H    0.069177
     7  H    0.049858
     8  H    0.054425
     9  H    0.035243
    10  H    0.087346
 Sum of Mulliken charges =   0.00000

 Dipole moment (field-independent basis, Debye):
    X=              0.0290    Y=              0.0204    Z=              0.2334  Tot=              0.2361
 Quadrupole moment (field-independent basis, Debye-Ang):
   XX=            -23.4606   YY=            -23.5600   ZZ=            -29.1789
   XY=              0.1272   XZ=              0.7185   YZ=              0.1168

 1\1\GINC-NODE29\SP\RB2PLYPD3-FC\def2QZVP\C4H6\BOITTIER\26-Aug-2020\0\\
 #p B2PLYPD3/Def2QZVP\\butadiene\\0,1\C,0,-3.850731,0.198915,0.083517\C
 ,0,-2.691502,-0.47644,-0.017557\C,0,-1.389255,0.096214,-0.080022\C,0,-
 0.289,-0.650793,0.07654\H,0,-4.711317,-0.282277,0.185167\H,0,-3.807979
 ,1.270275,0.054578\H,0,-2.712445,-1.579827,-0.118015\H,0,-1.240777,1.1
 9148,-0.133584\H,0,-0.524075,-1.769435,0.177632\H,0,0.831954,-0.422469
 ,0.397119\\Version=ES64L-G09RevD.01\State=1-A\HF=-155.6737669\MP2=-155
 .9013883\RMSD=5.576e-09\PG=C01 [X(C4H6)]\\@

 Normal termination of Gaussian 09 at Wed Aug 26 15:58:20 2020.
