 Gaussian 09, Revision D.01,
 Gaussian 09:  ES64L-G09RevD.01 24-Apr-2013

 --------------------
 #p B2PLYPD3/Def2QZVP
 --------------------

 ---------
 butadiene
 ---------
 Symbolic Z-matrix:
 Charge =  0 Multiplicity = 1

                         Standard orientation:
 ---------------------------------------------------------------------
 Center     Atomic      Atomic             Coordinates (Angstroms)
 Number     Number       Type             X           Y           Z
 ---------------------------------------------------------------------
      1          6           0        1.841535   -0.105961    0.018740
      2          6           0        0.605226    0.381745   -0.020569
      3          6           0       -0.611078   -0.401606   -0.027323
      4          6           0       -1.837951    0.116783    0.003290
      5          1           0        2.712951    0.543185    0.030442
      6          1           0        2.049939   -1.151588    0.001591
      7          1           0        0.457079    1.470302    0.007872
      8          1           0       -0.513333   -1.477878    0.006108
      9          1           0       -1.983169    1.200599    0.018214
     10          1           0       -2.709860   -0.530382    0.090949
 ---------------------------------------------------------------------

 SCF Done:  E(RB2PLYPD3) =  -155.700705095     A.U. after   11 cycles
 E2(B2PLYPD3) =    -0.2255827593D+00 E(B2PLYPD3) =    -0.15592628785447D+03

 The electronic state is 1-A.
 Alpha  occ. eigenvalues --  -10.62562 -10.62343 -10.61691 -10.61342  -0.93109
 Alpha  occ. eigenvalues --   -0.85056  -0.70205  -0.63951  -0.54688  -0.53936
 Alpha  occ. eigenvalues --   -0.46727  -0.45532  -0.40952  -0.38278  -0.27777
 Alpha virt. eigenvalues --    0.01725   0.06979   0.07434   0.08000   0.09767
 Alpha virt. eigenvalues --    0.11685   0.12403   0.14761   0.15865   0.16099
 Alpha virt. eigenvalues --    0.18825   0.20425   0.21621   0.22761   0.23797

 Mulliken charges:
               1
     1  C   -0.175381
     2  C   -0.027088
     3  C   -0.028839
     4  C   -0.174317
     5  H    0.083910
     6  H    0.067196
     7  H    0.050194
     8  H    0.053651
     9  H    0.064539
    10  H    0.086135
 Sum of Mulliken charges =   0.00000

 Dipole moment (field-independent basis, Debye):
    X=              0.0034    Y=             -0.0357    Z=              0.1064  Tot=              0.1123
 Quadrupole moment (field-independent basis, Debye-Ang):
   XX=            -23.4443   YY=            -23.1437   ZZ=            -29.2377
   XY=             -0.1235   XZ=             -0.2332   YZ=             -0.0212

 1\1\GINC-NODE14\SP\RB2PLYPD3-FC\def2QZVP\C4H6\BOITTIER\26-Aug-2020\0\\
 #p B2PLYPD3/Def2QZVP\\butadiene\\0,1\C,0,-3.845518,0.218308,0.036946\C
 ,0,-2.716455,-0.483585,0.016356\C,0,-1.379663,0.069061,-0.009142\C,0,-
 0.265247,-0.659252,0.041028\H,0,-4.81897,-0.263892,0.064659\H,0,-3.863
 562,1.283377,-0.011678\H,0,-2.765355,-1.579763,0.077317\H,0,-1.283261,
 1.145972,-0.007719\H,0,-0.316205,-1.750643,0.088329\H,0,0.708514,-0.17
 6152,0.112693\\Version=ES64L-G09RevD.01\State=1-A\HF=-155.7007051\MP2=
 -155.9262879\RMSD=3.041e-09\PG=C01 [X(C4H6)]\\@

 Normal termination of Gaussian 09 at Wed Aug 26 21:23:33 2020.
