 Gaussian 09, Revision D.01,
 Gaussian 09:  ES64L-G09RevD.01 24-Apr-2013

 --------------------
 #p B2PLYPD3/Def2QZVP
 --------------------

 ---------
 butadiene
 ---------
 Symbolic Z-matrix:
 Charge =  0 Multiplicity = 1

                         Standard orientation:
 ---------------------------------------------------------------------
 Center     Atomic      Atomic             Coordinates (Angstroms)
 Number     Number       Type             X           Y           Z
 ---------------------------------------------------------------------
      1          6           0        1.848697    0.105109    0.006785
      2          6           0        0.610779   -0.381278   -0.024619
      3          6           0       -0.610649    0.401742   -0.003999
      4          6           0       -1.839370   -0.111605    0.011567
      5          1           0        2.720594   -0.558351    0.048351
      6          1           0        2.020069    1.171991   -0.005149
      7          1           0        0.475262   -1.452007    0.030118
      8          1           0       -0.516053    1.477835   -0.008042
      9          1           0       -1.992193   -1.195962   -0.028272
     10          1           0       -2.764419    0.472686    0.024587
 ---------------------------------------------------------------------

 SCF Done:  E(RB2PLYPD3) =  -155.700426340     A.U. after   11 cycles
 E2(B2PLYPD3) =    -0.2256427282D+00 E(B2PLYPD3) =    -0.15592606906802D+03

 The electronic state is 1-A.
 Alpha  occ. eigenvalues --  -10.62503 -10.62404 -10.61804 -10.61633  -0.93062
 Alpha  occ. eigenvalues --   -0.85012  -0.70062  -0.64097  -0.54593  -0.53923
 Alpha  occ. eigenvalues --   -0.46956  -0.45180  -0.40903  -0.38247  -0.27831
 Alpha virt. eigenvalues --    0.01719   0.06969   0.07475   0.07995   0.09741
 Alpha virt. eigenvalues --    0.11622   0.12459   0.14587   0.15791   0.16273
 Alpha virt. eigenvalues --    0.18866   0.20424   0.21584   0.22718   0.23708

 Mulliken charges:
               1
     1  C   -0.175957
     2  C   -0.028019
     3  C   -0.031987
     4  C   -0.168891
     5  H    0.086613
     6  H    0.066949
     7  H    0.054248
     8  H    0.053809
     9  H    0.058413
    10  H    0.084822
 Sum of Mulliken charges =   0.00000

 Dipole moment (field-independent basis, Debye):
    X=             -0.0296    Y=              0.0062    Z=              0.0335  Tot=              0.0452
 Quadrupole moment (field-independent basis, Debye-Ang):
   XX=            -23.2528   YY=            -23.2595   ZZ=            -29.2608
   XY=              0.0486   XZ=              0.1545   YZ=             -0.0483

 1\1\GINC-NODE22\SP\RB2PLYPD3-FC\def2QZVP\C4H6\BOITTIER\26-Aug-2020\0\\
 #p B2PLYPD3/Def2QZVP\\butadiene\\0,1\C,0,-3.852074,0.2146,0.008764\C,0
 ,-2.720016,-0.482685,0.056068\C,0,-1.379097,0.07049,0.019105\C,0,-0.26
 0951,-0.652884,0.020113\H,0,-4.827901,-0.284531,-0.018465\H,0,-3.83145
 8,1.294914,-0.006874\H,0,-2.776673,-1.561515,0.028911\H,0,-1.281302,1.
 146047,-0.004433\H,0,-0.302836,-1.745781,0.087896\H,0,0.753051,-0.2424
 59,-0.005064\\Version=ES64L-G09RevD.01\State=1-A\HF=-155.7004263\MP2=-
 155.9260691\RMSD=2.808e-09\PG=C01 [X(C4H6)]\\@

 Normal termination of Gaussian 09 at Wed Aug 26 19:05:03 2020.
