 Gaussian 09, Revision D.01,
 Gaussian 09:  ES64L-G09RevD.01 24-Apr-2013

 --------------------
 #p B2PLYPD3/Def2QZVP
 --------------------

 ---------
 butadiene
 ---------
 Symbolic Z-matrix:
 Charge =  0 Multiplicity = 1

                         Standard orientation:
 ---------------------------------------------------------------------
 Center     Atomic      Atomic             Coordinates (Angstroms)
 Number     Number       Type             X           Y           Z
 ---------------------------------------------------------------------
      1          6           0        1.827559    0.077147    0.040453
      2          6           0        0.610411   -0.356838   -0.053683
      3          6           0       -0.630007    0.447094   -0.109202
      4          6           0       -1.838349   -0.148307    0.047260
      5          1           0        2.766529   -0.493930    0.193293
      6          1           0        2.045879    1.148875    0.116831
      7          1           0        0.548991   -1.500990   -0.164621
      8          1           0       -0.574116    1.536879   -0.038384
      9          1           0       -1.925493   -1.220911    0.102917
     10          1           0       -2.679478    0.415497    0.240995
 ---------------------------------------------------------------------

 SCF Done:  E(RB2PLYPD3) =  -155.686757543     A.U. after   11 cycles
 E2(B2PLYPD3) =    -0.2260604160D+00 E(B2PLYPD3) =    -0.15591281795943D+03

 The electronic state is 1-A.
 Alpha  occ. eigenvalues --  -10.63471 -10.62920 -10.61440 -10.61149  -0.92723
 Alpha  occ. eigenvalues --   -0.85354  -0.69926  -0.63465  -0.55283  -0.53407
 Alpha  occ. eigenvalues --   -0.46853  -0.45197  -0.40124  -0.37952  -0.28055
 Alpha virt. eigenvalues --    0.01930   0.07009   0.07325   0.07895   0.09388
 Alpha virt. eigenvalues --    0.11425   0.12664   0.14307   0.15587   0.16776
 Alpha virt. eigenvalues --    0.18884   0.19871   0.21801   0.22896   0.23437

 Mulliken charges:
               1
     1  C   -0.159587
     2  C   -0.019976
     3  C   -0.053604
     4  C   -0.161818
     5  H    0.080508
     6  H    0.046826
     7  H    0.047084
     8  H    0.064725
     9  H    0.069406
    10  H    0.086437
 Sum of Mulliken charges =   0.00000

 Dipole moment (field-independent basis, Debye):
    X=             -0.0681    Y=              0.0472    Z=              0.3136  Tot=              0.3243
 Quadrupole moment (field-independent basis, Debye-Ang):
   XX=            -23.2662   YY=            -23.3233   ZZ=            -29.1491
   XY=             -0.0256   XZ=             -0.2587   YZ=              0.1883

 1\1\GINC-NODE25\SP\RB2PLYPD3-FC\def2QZVP\C4H6\BOITTIER\26-Aug-2020\0\\
 #p B2PLYPD3/Def2QZVP\\butadiene\\0,1\C,0,-3.843411,0.173727,-0.027825\
 C,0,-2.718938,-0.460496,0.081611\C,0,-1.358175,0.11868,0.111675\C,0,-0
 .271435,-0.681102,-0.024039\H,0,-4.86755,-0.231411,-0.162571\H,0,-3.87
 3938,1.263982,-0.13967\H,0,-2.855284,-1.593845,0.230248\H,0,-1.225568,
 1.198861,0.004932\H,0,-0.370906,-1.753887,-0.044242\H,0,0.653399,-0.27
 754,-0.235524\\Version=ES64L-G09RevD.01\State=1-A\HF=-155.6867575\MP2=
 -155.912818\RMSD=7.741e-09\PG=C01 [X(C4H6)]\\@

 Normal termination of Gaussian 09 at Wed Aug 26 14:57:34 2020.
