 Gaussian 09, Revision D.01,
 Gaussian 09:  ES64L-G09RevD.01 24-Apr-2013

 --------------------
 #p B2PLYPD3/Def2QZVP
 --------------------

 ---------
 butadiene
 ---------
 Symbolic Z-matrix:
 Charge =  0 Multiplicity = 1

                         Standard orientation:
 ---------------------------------------------------------------------
 Center     Atomic      Atomic             Coordinates (Angstroms)
 Number     Number       Type             X           Y           Z
 ---------------------------------------------------------------------
      1          6           0       -1.849824   -0.120216    0.027555
      2          6           0       -0.602133    0.420090   -0.024164
      3          6           0        0.605340   -0.372177   -0.042362
      4          6           0        1.859386    0.080503    0.006776
      5          1           0       -2.746857    0.465810    0.107138
      6          1           0       -2.087252   -1.199043   -0.003291
      7          1           0       -0.479066    1.513961   -0.079934
      8          1           0        0.458289   -1.421957   -0.053852
      9          1           0        2.033336    1.172340    0.058753
     10          1           0        2.744933   -0.580315    0.164355
 ---------------------------------------------------------------------

 SCF Done:  E(RB2PLYPD3) =  -155.694704661     A.U. after   11 cycles
 E2(B2PLYPD3) =    -0.2267440734D+00 E(B2PLYPD3) =    -0.15592144873450D+03

 The electronic state is 1-A.
 Alpha  occ. eigenvalues --  -10.63386 -10.62325 -10.62257 -10.62101  -0.92858
 Alpha  occ. eigenvalues --   -0.84460  -0.70365  -0.64033  -0.54683  -0.53278
 Alpha  occ. eigenvalues --   -0.46959  -0.44941  -0.41108  -0.37960  -0.27484
 Alpha virt. eigenvalues --    0.01193   0.06928   0.07379   0.08006   0.09556
 Alpha virt. eigenvalues --    0.11519   0.12440   0.14542   0.15895   0.16105
 Alpha virt. eigenvalues --    0.19000   0.20592   0.21510   0.22601   0.23270

 Mulliken charges:
               1
     1  C   -0.171261
     2  C   -0.040783
     3  C   -0.023669
     4  C   -0.169819
     5  H    0.082437
     6  H    0.063900
     7  H    0.057365
     8  H    0.059157
     9  H    0.057429
    10  H    0.085245
 Sum of Mulliken charges =   0.00000

 Dipole moment (field-independent basis, Debye):
    X=             -0.1010    Y=             -0.0390    Z=              0.1306  Tot=              0.1696
 Quadrupole moment (field-independent basis, Debye-Ang):
   XX=            -23.2404   YY=            -23.3117   ZZ=            -29.3711
   XY=              0.2316   XZ=              0.3369   YZ=             -0.0301

 1\1\GINC-NODE11\SP\RB2PLYPD3-FC\def2QZVP\C4H6\BOITTIER\26-Aug-2020\0\\
 #p B2PLYPD3/Def2QZVP\\butadiene\\0,1\C,0,-3.850349,0.240313,-0.008952\
 C,0,-2.721777,-0.516543,0.060578\C,0,-1.389972,0.042203,0.050216\C,0,-
 0.239891,-0.633151,0.015893\H,0,-4.839755,-0.174527,-0.067366\H,0,-3.8
 86828,1.344767,-0.015522\H,0,-2.799864,-1.611953,0.154325\H,0,-1.34302
 7,1.10096,0.025243\H,0,-0.268347,-1.739524,0.001848\H,0,0.75017,-0.150
 812,-0.165307\\Version=ES64L-G09RevD.01\State=1-A\HF=-155.6947047\MP2=
 -155.9214487\RMSD=6.138e-09\PG=C01 [X(C4H6)]\\@

 Normal termination of Gaussian 09 at Wed Aug 26 08:41:31 2020.
