 Gaussian 09, Revision D.01,
 Gaussian 09:  ES64L-G09RevD.01 24-Apr-2013

 --------------------
 #p B2PLYPD3/Def2QZVP
 --------------------

 ---------
 butadiene
 ---------
 Symbolic Z-matrix:
 Charge =  0 Multiplicity = 1

                         Standard orientation:
 ---------------------------------------------------------------------
 Center     Atomic      Atomic             Coordinates (Angstroms)
 Number     Number       Type             X           Y           Z
 ---------------------------------------------------------------------
      1          6           0       -1.826591   -0.124736   -0.050207
      2          6           0       -0.610827    0.423546    0.039746
      3          6           0        0.588583   -0.381594    0.006798
      4          6           0        1.851812    0.091340   -0.024781
      5          1           0       -2.724157    0.491055    0.029958
      6          1           0       -1.895976   -1.232230   -0.056308
      7          1           0       -0.499144    1.501028    0.142387
      8          1           0        0.420967   -1.424744    0.154884
      9          1           0        2.003981    1.150610   -0.142462
     10          1           0        2.676468   -0.537052    0.042207
 ---------------------------------------------------------------------

 SCF Done:  E(RB2PLYPD3) =  -155.696673599     A.U. after   11 cycles
 E2(B2PLYPD3) =    -0.2261008692D+00 E(B2PLYPD3) =    -0.15592277446858D+03

 The electronic state is 1-A.
 Alpha  occ. eigenvalues --  -10.62487 -10.62318 -10.61962 -10.61129  -0.93116
 Alpha  occ. eigenvalues --   -0.84790  -0.70321  -0.64152  -0.54700  -0.53973
 Alpha  occ. eigenvalues --   -0.46736  -0.45620  -0.41636  -0.37824  -0.27532
 Alpha virt. eigenvalues --    0.01504   0.07110   0.07405   0.08061   0.09487
 Alpha virt. eigenvalues --    0.11725   0.12479   0.14663   0.15737   0.16126
 Alpha virt. eigenvalues --    0.18707   0.20183   0.21401   0.22753   0.24162

 Mulliken charges:
               1
     1  C   -0.169648
     2  C   -0.035635
     3  C   -0.023644
     4  C   -0.190293
     5  H    0.086899
     6  H    0.062362
     7  H    0.055278
     8  H    0.055435
     9  H    0.067099
    10  H    0.092147
 Sum of Mulliken charges =   0.00000

 Dipole moment (field-independent basis, Debye):
    X=             -0.0257    Y=              0.0216    Z=              0.1885  Tot=              0.1915
 Quadrupole moment (field-independent basis, Debye-Ang):
   XX=            -23.6339   YY=            -23.1328   ZZ=            -29.2299
   XY=             -0.0409   XZ=             -0.1327   YZ=             -0.1416

 1\1\GINC-NODE08\SP\RB2PLYPD3-FC\def2QZVP\C4H6\BOITTIER\26-Aug-2020\0\\
 #p B2PLYPD3/Def2QZVP\\butadiene\\0,1\C,0,-3.825925,0.239741,0.059875\C
 ,0,-2.729396,-0.521835,-0.00657\C,0,-1.404237,0.054179,0.002536\C,0,-0
 .247079,-0.637655,0.055089\H,0,-4.820146,-0.2063,-0.001952\H,0,-3.6941
 85,1.341087,0.02709\H,0,-2.814385,-1.604692,-0.071162\H,0,-1.381163,1.
 104624,-0.182446\H,0,-0.288342,-1.70222,0.210192\H,0,0.677294,-0.17120
 9,-0.030846\\Version=ES64L-G09RevD.01\State=1-A\HF=-155.6966736\MP2=-1
 55.9227745\RMSD=5.162e-09\PG=C01 [X(C4H6)]\\@

 Normal termination of Gaussian 09 at Wed Aug 26 09:41:50 2020.
