 Gaussian 09, Revision D.01,
 Gaussian 09:  ES64L-G09RevD.01 24-Apr-2013

 --------------------
 #p B2PLYPD3/Def2QZVP
 --------------------

 ---------
 butadiene
 ---------
 Symbolic Z-matrix:
 Charge =  0 Multiplicity = 1

                         Standard orientation:
 ---------------------------------------------------------------------
 Center     Atomic      Atomic             Coordinates (Angstroms)
 Number     Number       Type             X           Y           Z
 ---------------------------------------------------------------------
      1          6           0        1.826093   -0.126136    0.028816
      2          6           0        0.596326    0.421707   -0.043055
      3          6           0       -0.607962   -0.385156   -0.055690
      4          6           0       -1.815328    0.099904    0.015924
      5          1           0        2.662562    0.482814    0.049545
      6          1           0        1.978428   -1.176511    0.073443
      7          1           0        0.479953    1.494099    0.025920
      8          1           0       -0.490863   -1.479641   -0.024499
      9          1           0       -1.977378    1.178065    0.052884
     10          1           0       -2.647478   -0.560746    0.146740
 ---------------------------------------------------------------------

 SCF Done:  E(RB2PLYPD3) =  -155.697374534     A.U. after   11 cycles
 E2(B2PLYPD3) =    -0.2250702038D+00 E(B2PLYPD3) =    -0.15592244473779D+03

 The electronic state is 1-A.
 Alpha  occ. eigenvalues --  -10.62564 -10.61932 -10.60897 -10.60796  -0.93321
 Alpha  occ. eigenvalues --   -0.85338  -0.70338  -0.63979  -0.54839  -0.54449
 Alpha  occ. eigenvalues --   -0.46543  -0.45937  -0.41266  -0.38299  -0.27741
 Alpha virt. eigenvalues --    0.01999   0.07094   0.07364   0.08133   0.09642
 Alpha virt. eigenvalues --    0.11788   0.12478   0.14861   0.15793   0.16281
 Alpha virt. eigenvalues --    0.18709   0.20128   0.21914   0.23092   0.24116

 Mulliken charges:
               1
     1  C   -0.178880
     2  C   -0.041115
     3  C   -0.014276
     4  C   -0.174035
     5  H    0.086674
     6  H    0.069448
     7  H    0.056956
     8  H    0.048545
     9  H    0.061813
    10  H    0.084872
 Sum of Mulliken charges =   0.00000

 Dipole moment (field-independent basis, Debye):
    X=              0.0273    Y=             -0.0070    Z=              0.2318  Tot=              0.2335
 Quadrupole moment (field-independent basis, Debye-Ang):
   XX=            -23.7326   YY=            -22.9460   ZZ=            -29.0927
   XY=             -0.0741   XZ=             -0.2211   YZ=             -0.0466

 1\1\GINC-NODE33\SP\RB2PLYPD3-FC\def2QZVP\C4H6\BOITTIER\26-Aug-2020\0\\
 #p B2PLYPD3/Def2QZVP\\butadiene\\0,1\C,0,-3.825139,0.240789,0.050223\C
 ,0,-2.714797,-0.522031,-0.003363\C,0,-1.38448,0.053209,-0.032576\C,0,-
 0.284635,-0.640124,0.055588\H,0,-4.757903,-0.206157,0.083708\H,0,-3.78
 4977,1.302193,0.067366\H,0,-2.794164,-1.595643,0.0935\H,0,-1.301704,1.
 151264,-0.029876\H,0,-0.320162,-1.728493,0.120751\H,0,0.653424,-0.1376
 49,0.172256\\Version=ES64L-G09RevD.01\State=1-A\HF=-155.6973745\MP2=-1
 55.9224447\RMSD=6.426e-09\PG=C01 [X(C4H6)]\\@

 Normal termination of Gaussian 09 at Wed Aug 26 09:08:45 2020.
