 Gaussian 09, Revision D.01,
 Gaussian 09:  ES64L-G09RevD.01 24-Apr-2013

 --------------------
 #p B2PLYPD3/Def2QZVP
 --------------------

 ---------
 butadiene
 ---------
 Symbolic Z-matrix:
 Charge =  0 Multiplicity = 1

                         Standard orientation:
 ---------------------------------------------------------------------
 Center     Atomic      Atomic             Coordinates (Angstroms)
 Number     Number       Type             X           Y           Z
 ---------------------------------------------------------------------
      1          6           0       -1.827663    0.090416    0.017536
      2          6           0       -0.592953   -0.391749   -0.039069
      3          6           0        0.588946    0.427062   -0.009217
      4          6           0        1.807743   -0.124112    0.000588
      5          1           0       -2.694755   -0.581294    0.131414
      6          1           0       -2.036485    1.177182   -0.022102
      7          1           0       -0.390378   -1.442491   -0.024560
      8          1           0        0.510250    1.533534   -0.052693
      9          1           0        2.027901   -1.172682    0.000237
     10          1           0        2.727030    0.476048    0.148673
 ---------------------------------------------------------------------

 SCF Done:  E(RB2PLYPD3) =  -155.695962217     A.U. after   11 cycles
 E2(B2PLYPD3) =    -0.2261150030D+00 E(B2PLYPD3) =    -0.15592207722002D+03

 The electronic state is 1-A.
 Alpha  occ. eigenvalues --  -10.62771 -10.62159 -10.61806 -10.61642  -0.93344
 Alpha  occ. eigenvalues --   -0.84683  -0.69944  -0.64150  -0.54630  -0.53586
 Alpha  occ. eigenvalues --   -0.46516  -0.45076  -0.41151  -0.38267  -0.27553
 Alpha virt. eigenvalues --    0.01757   0.06990   0.07298   0.07983   0.09469
 Alpha virt. eigenvalues --    0.11657   0.12385   0.14742   0.15725   0.16219
 Alpha virt. eigenvalues --    0.18753   0.20284   0.21621   0.23211   0.23509

 Mulliken charges:
               1
     1  C   -0.174010
     2  C   -0.032775
     3  C   -0.025680
     4  C   -0.172454
     5  H    0.082395
     6  H    0.066956
     7  H    0.061050
     8  H    0.058513
     9  H    0.063509
    10  H    0.072498
 Sum of Mulliken charges =   0.00000

 Dipole moment (field-independent basis, Debye):
    X=              0.0513    Y=             -0.0365    Z=              0.1232  Tot=              0.1383
 Quadrupole moment (field-independent basis, Debye-Ang):
   XX=            -23.6720   YY=            -23.0746   ZZ=            -29.2482
   XY=             -0.4136   XZ=              0.0596   YZ=             -0.0941

 1\1\GINC-NODE30\SP\RB2PLYPD3-FC\def2QZVP\C4H6\BOITTIER\26-Aug-2020\0\\
 #p B2PLYPD3/Def2QZVP\\butadiene\\0,1\C,0,-3.828473,0.213545,0.037367\C
 ,0,-2.704957,-0.491214,0.002425\C,0,-1.39151,0.094518,0.004379\C,0,-0.
 296145,-0.672537,0.038373\H,0,-4.804653,-0.280754,0.174307\H,0,-3.8321
 52,1.317899,-0.044034\H,0,-2.700842,-1.559986,0.057332\H,0,-1.263684,1
 .193923,-0.081255\H,0,-0.274415,-1.743002,0.078396\H,0,0.719195,-0.248
 285,0.166062\\Version=ES64L-G09RevD.01\State=1-A\HF=-155.6959622\MP2=-
 155.9220772\RMSD=5.404e-09\PG=C01 [X(C4H6)]\\@

 Normal termination of Gaussian 09 at Wed Aug 26 10:34:07 2020.
