 Gaussian 09, Revision D.01,
 Gaussian 09:  ES64L-G09RevD.01 24-Apr-2013

 --------------------
 #p B2PLYPD3/Def2QZVP
 --------------------

 ---------
 butadiene
 ---------
 Symbolic Z-matrix:
 Charge =  0 Multiplicity = 1

                         Standard orientation:
 ---------------------------------------------------------------------
 Center     Atomic      Atomic             Coordinates (Angstroms)
 Number     Number       Type             X           Y           Z
 ---------------------------------------------------------------------
      1          6           0       -1.851183    0.098945    0.024326
      2          6           0       -0.619247   -0.378988   -0.026667
      3          6           0        0.618135    0.420472   -0.017369
      4          6           0        1.845112   -0.122883    0.004060
      5          1           0       -2.640420   -0.598520    0.043933
      6          1           0       -2.066235    1.183827   -0.118176
      7          1           0       -0.497024   -1.430366    0.044008
      8          1           0        0.506254    1.508804    0.118959
      9          1           0        1.948499   -1.220937   -0.011387
     10          1           0        2.792024    0.451919    0.016562
 ---------------------------------------------------------------------

 SCF Done:  E(RB2PLYPD3) =  -155.695608031     A.U. after   11 cycles
 E2(B2PLYPD3) =    -0.2259291672D+00 E(B2PLYPD3) =    -0.15592153719848D+03

 The electronic state is 1-A.
 Alpha  occ. eigenvalues --  -10.63033 -10.62235 -10.62203 -10.61301  -0.92762
 Alpha  occ. eigenvalues --   -0.85057  -0.69721  -0.63824  -0.54636  -0.53567
 Alpha  occ. eigenvalues --   -0.46782  -0.45281  -0.40930  -0.37851  -0.27947
 Alpha virt. eigenvalues --    0.01810   0.07032   0.07404   0.08011   0.09356
 Alpha virt. eigenvalues --    0.11641   0.12373   0.14510   0.15634   0.16185
 Alpha virt. eigenvalues --    0.18806   0.20017   0.21503   0.22813   0.24186

 Mulliken charges:
               1
     1  C   -0.174647
     2  C   -0.031464
     3  C   -0.038166
     4  C   -0.169779
     5  H    0.084832
     6  H    0.068782
     7  H    0.055506
     8  H    0.058411
     9  H    0.060206
    10  H    0.086321
 Sum of Mulliken charges =   0.00000

 Dipole moment (field-independent basis, Debye):
    X=              0.0337    Y=             -0.0468    Z=              0.0457  Tot=              0.0735
 Quadrupole moment (field-independent basis, Debye-Ang):
   XX=            -23.4971   YY=            -23.1505   ZZ=            -29.2917
   XY=             -0.0026   XZ=              0.1956   YZ=             -0.0646

 1\1\GINC-NODE09\SP\RB2PLYPD3-FC\def2QZVP\C4H6\BOITTIER\26-Aug-2020\0\\
 #p B2PLYPD3/Def2QZVP\\butadiene\\0,1\C,0,-3.856223,0.208237,0.041479\C
 ,0,-2.728091,-0.481007,0.010696\C,0,-1.369021,0.087418,-0.001851\C,0,-
 0.257153,-0.662918,0.041884\H,0,-4.756118,-0.337977,0.081178\H,0,-3.87
 6753,1.308734,-0.137429\H,0,-2.793181,-1.534536,0.116378\H,0,-1.286763
 ,1.182314,0.098178\H,0,-0.349215,-1.761886,0.062959\H,0,0.776366,-0.26
 4137,0.038883\\Version=ES64L-G09RevD.01\State=1-A\HF=-155.695608\MP2=-
 155.9215372\RMSD=5.300e-09\PG=C01 [X(C4H6)]\\@

 Normal termination of Gaussian 09 at Wed Aug 26 09:18:32 2020.
