 Gaussian 09, Revision D.01,
 Gaussian 09:  ES64L-G09RevD.01 24-Apr-2013

 --------------------
 #p B2PLYPD3/Def2QZVP
 --------------------

 ---------
 butadiene
 ---------
 Symbolic Z-matrix:
 Charge =  0 Multiplicity = 1

                         Standard orientation:
 ---------------------------------------------------------------------
 Center     Atomic      Atomic             Coordinates (Angstroms)
 Number     Number       Type             X           Y           Z
 ---------------------------------------------------------------------
      1          6           0        1.851821    0.110905    0.019263
      2          6           0        0.620132   -0.414566   -0.040280
      3          6           0       -0.598692    0.398144    0.006913
      4          6           0       -1.857824   -0.114504   -0.008945
      5          1           0        2.752149   -0.492167   -0.020609
      6          1           0        1.910731    1.196547    0.098698
      7          1           0        0.466155   -1.457314   -0.014349
      8          1           0       -0.426318    1.457918   -0.069878
      9          1           0       -2.072512   -1.167573    0.152606
     10          1           0       -2.722827    0.582711   -0.008179
 ---------------------------------------------------------------------

 SCF Done:  E(RB2PLYPD3) =  -155.695870575     A.U. after   11 cycles
 E2(B2PLYPD3) =    -0.2266058744D+00 E(B2PLYPD3) =    -0.15592247644972D+03

 The electronic state is 1-A.
 Alpha  occ. eigenvalues --  -10.62961 -10.62323 -10.62288 -10.61814  -0.92692
 Alpha  occ. eigenvalues --   -0.84459  -0.69996  -0.64506  -0.54508  -0.53307
 Alpha  occ. eigenvalues --   -0.46755  -0.45749  -0.41218  -0.37749  -0.27504
 Alpha virt. eigenvalues --    0.01365   0.06961   0.07449   0.08106   0.09228
 Alpha virt. eigenvalues --    0.11699   0.12369   0.14672   0.15554   0.16242
 Alpha virt. eigenvalues --    0.18658   0.19939   0.21752   0.22908   0.23896

 Mulliken charges:
               1
     1  C   -0.175291
     2  C   -0.029567
     3  C   -0.038759
     4  C   -0.179483
     5  H    0.091565
     6  H    0.061881
     7  H    0.059581
     8  H    0.058198
     9  H    0.072329
    10  H    0.079546
 Sum of Mulliken charges =   0.00000

 Dipole moment (field-independent basis, Debye):
    X=              0.0488    Y=             -0.0366    Z=              0.1145  Tot=              0.1297
 Quadrupole moment (field-independent basis, Debye-Ang):
   XX=            -23.5983   YY=            -23.1342   ZZ=            -29.3790
   XY=              0.1116   XZ=             -0.1396   YZ=             -0.1554

 1\1\GINC-NODE33\SP\RB2PLYPD3-FC\def2QZVP\C4H6\BOITTIER\26-Aug-2020\0\\
 #p B2PLYPD3/Def2QZVP\\butadiene\\0,1\C,0,-3.851987,0.227586,0.000747\C
 ,0,-2.734272,-0.509015,0.070413\C,0,-1.389653,0.070984,0.008305\C,0,-0
 .242776,-0.658731,0.03406\H,0,-4.845713,-0.203449,0.051687\H,0,-3.7155
 7,1.304543,-0.099014\H,0,-2.769802,-1.562771,0.064047\H,0,-1.36901,1.1
 45725,0.0652\H,0,-0.220853,-1.736028,-0.107695\H,0,0.733195,-0.12804,0
 .020448\\Version=ES64L-G09RevD.01\State=1-A\HF=-155.6958706\MP2=-155.9
 224764\RMSD=6.006e-09\PG=C01 [X(C4H6)]\\@

 Normal termination of Gaussian 09 at Wed Aug 26 09:27:22 2020.
