 Gaussian 09, Revision D.01,
 Gaussian 09:  ES64L-G09RevD.01 24-Apr-2013

 --------------------
 #p B2PLYPD3/Def2QZVP
 --------------------

 ---------
 butadiene
 ---------
 Symbolic Z-matrix:
 Charge =  0 Multiplicity = 1

                         Standard orientation:
 ---------------------------------------------------------------------
 Center     Atomic      Atomic             Coordinates (Angstroms)
 Number     Number       Type             X           Y           Z
 ---------------------------------------------------------------------
      1          6           0        1.823251   -0.123782    0.021993
      2          6           0        0.604123    0.439323   -0.000840
      3          6           0       -0.601117   -0.406783   -0.022596
      4          6           0       -1.844402    0.108930   -0.004208
      5          1           0        2.791946    0.475130   -0.113470
      6          1           0        1.895008   -1.218048    0.116189
      7          1           0        0.486125    1.519564   -0.049206
      8          1           0       -0.401269   -1.500176   -0.052620
      9          1           0       -2.000492    1.185589    0.132852
     10          1           0       -2.662446   -0.568187    0.000159
 ---------------------------------------------------------------------

 SCF Done:  E(RB2PLYPD3) =  -155.693408653     A.U. after   11 cycles
 E2(B2PLYPD3) =    -0.2269705120D+00 E(B2PLYPD3) =    -0.15592037916512D+03

 The electronic state is 1-A.
 Alpha  occ. eigenvalues --  -10.63140 -10.62817 -10.62466 -10.61553  -0.92618
 Alpha  occ. eigenvalues --   -0.84451  -0.69218  -0.63863  -0.53948  -0.53418
 Alpha  occ. eigenvalues --   -0.46238  -0.45437  -0.41185  -0.37755  -0.27527
 Alpha virt. eigenvalues --    0.01740   0.06989   0.07181   0.07966   0.09056
 Alpha virt. eigenvalues --    0.11709   0.12324   0.14514   0.15838   0.15929
 Alpha virt. eigenvalues --    0.18649   0.20280   0.21109   0.23050   0.23908

 Mulliken charges:
               1
     1  C   -0.172393
     2  C   -0.031766
     3  C   -0.032772
     4  C   -0.181117
     5  H    0.081673
     6  H    0.062984
     7  H    0.060705
     8  H    0.052547
     9  H    0.071643
    10  H    0.088496
 Sum of Mulliken charges =   0.00000

 Dipole moment (field-independent basis, Debye):
    X=              0.0214    Y=             -0.0012    Z=              0.0238  Tot=              0.0320
 Quadrupole moment (field-independent basis, Debye-Ang):
   XX=            -23.9898   YY=            -22.9389   ZZ=            -29.4576
   XY=             -0.1111   XZ=             -0.4469   YZ=             -0.0485

 1\1\GINC-NODE34\SP\RB2PLYPD3-FC\def2QZVP\C4H6\BOITTIER\26-Aug-2020\0\\
 #p B2PLYPD3/Def2QZVP\\butadiene\\0,1\C,0,-3.82509,0.236897,0.033822\C,
 0,-2.727041,-0.536515,0.032065\C,0,-1.389315,0.078374,-0.004979\C,0,-0
 .259009,-0.65169,0.03338\H,0,-4.885581,-0.18155,-0.09139\H,0,-3.699021
 ,1.328338,0.09942\H,0,-2.805132,-1.621268,0.012169\H,0,-1.389323,1.188
 707,-0.064226\H,0,-0.299109,-1.734889,0.198959\H,0,0.667432,-0.132716,
 0.024716\\Version=ES64L-G09RevD.01\State=1-A\HF=-155.6934087\MP2=-155.
 9203792\RMSD=5.766e-09\PG=C01 [X(C4H6)]\\@

 Normal termination of Gaussian 09 at Wed Aug 26 09:00:31 2020.
