 Gaussian 09, Revision D.01,
 Gaussian 09:  ES64L-G09RevD.01 24-Apr-2013

 --------------------
 #p B2PLYPD3/Def2QZVP
 --------------------

 ---------
 butadiene
 ---------
 Symbolic Z-matrix:
 Charge =  0 Multiplicity = 1

                         Standard orientation:
 ---------------------------------------------------------------------
 Center     Atomic      Atomic             Coordinates (Angstroms)
 Number     Number       Type             X           Y           Z
 ---------------------------------------------------------------------
      1          6           0       -1.846428    0.122445   -0.018316
      2          6           0       -0.618907   -0.413564    0.016140
      3          6           0        0.602695    0.384439    0.010786
      4          6           0        1.848633   -0.105406   -0.025659
      5          1           0       -2.749078   -0.486107    0.006653
      6          1           0       -1.969554    1.180852   -0.048209
      7          1           0       -0.492951   -1.485760    0.073568
      8          1           0        0.534696    1.492334    0.072431
      9          1           0        2.050588   -1.156550   -0.044475
     10          1           0        2.710342    0.527744    0.042322
 ---------------------------------------------------------------------

 SCF Done:  E(RB2PLYPD3) =  -155.699762326     A.U. after   11 cycles
 E2(B2PLYPD3) =    -0.2258249460D+00 E(B2PLYPD3) =    -0.15592558727180D+03

 The electronic state is 1-A.
 Alpha  occ. eigenvalues --  -10.62885 -10.62770 -10.61597 -10.61249  -0.92753
 Alpha  occ. eigenvalues --   -0.84938  -0.70249  -0.64003  -0.54545  -0.54137
 Alpha  occ. eigenvalues --   -0.46729  -0.45504  -0.41205  -0.37930  -0.27683
 Alpha virt. eigenvalues --    0.01630   0.07014   0.07475   0.07968   0.09582
 Alpha virt. eigenvalues --    0.11617   0.12498   0.14658   0.15919   0.16220
 Alpha virt. eigenvalues --    0.18868   0.20523   0.21630   0.22566   0.23877

 Mulliken charges:
               1
     1  C   -0.170847
     2  C   -0.039373
     3  C   -0.025153
     4  C   -0.176461
     5  H    0.086055
     6  H    0.069577
     7  H    0.059692
     8  H    0.049585
     9  H    0.062354
    10  H    0.084572
 Sum of Mulliken charges =   0.00000

 Dipole moment (field-independent basis, Debye):
    X=             -0.0205    Y=             -0.0169    Z=              0.1089  Tot=              0.1121
 Quadrupole moment (field-independent basis, Debye-Ang):
   XX=            -23.2964   YY=            -23.1462   ZZ=            -29.2959
   XY=             -0.0857   XZ=              0.1234   YZ=              0.0144

 1\1\GINC-NODE28\SP\RB2PLYPD3-FC\def2QZVP\C4H6\BOITTIER\26-Aug-2020\0\\
 #p B2PLYPD3/Def2QZVP\\butadiene\\0,1\C,0,-3.846186,0.231215,0.000469\C
 ,0,-2.732197,-0.511412,0.053725\C,0,-1.389143,0.05842,0.028315\C,0,-0.
 249076,-0.644095,0.009403\H,0,-4.841853,-0.207824,0.040799\H,0,-3.7810
 17,1.293433,-0.060563\H,0,-2.796939,-1.586894,0.142688\H,0,-1.260757,1
 .162286,0.057485\H,0,-0.235494,-1.714472,0.02174\H,0,0.710863,-0.17093
 4,0.06116\\Version=ES64L-G09RevD.01\State=1-A\HF=-155.6997623\MP2=-155
 .9255873\RMSD=4.920e-09\PG=C01 [X(C4H6)]\\@

 Normal termination of Gaussian 09 at Wed Aug 26 16:18:25 2020.
