 Gaussian 09, Revision D.01,
 Gaussian 09:  ES64L-G09RevD.01 24-Apr-2013

 --------------------
 #p B2PLYPD3/Def2QZVP
 --------------------

 ---------
 butadiene
 ---------
 Symbolic Z-matrix:
 Charge =  0 Multiplicity = 1

                         Standard orientation:
 ---------------------------------------------------------------------
 Center     Atomic      Atomic             Coordinates (Angstroms)
 Number     Number       Type             X           Y           Z
 ---------------------------------------------------------------------
      1          6           0        1.844626    0.104251   -0.010312
      2          6           0        0.611058   -0.395331    0.020732
      3          6           0       -0.608833    0.412636    0.012136
      4          6           0       -1.845363   -0.112693   -0.015284
      5          1           0        2.684012   -0.540653   -0.035952
      6          1           0        2.075316    1.157196   -0.077457
      7          1           0        0.461396   -1.468284    0.054842
      8          1           0       -0.493818    1.499635    0.095118
      9          1           0       -1.978012   -1.167783   -0.037161
     10          1           0       -2.757824    0.466713   -0.043015
 ---------------------------------------------------------------------

 SCF Done:  E(RB2PLYPD3) =  -155.700175782     A.U. after   11 cycles
 E2(B2PLYPD3) =    -0.2255835751D+00 E(B2PLYPD3) =    -0.15592575935680D+03

 The electronic state is 1-A.
 Alpha  occ. eigenvalues --  -10.62847 -10.62628 -10.61449 -10.61207  -0.92771
 Alpha  occ. eigenvalues --   -0.84948  -0.70401  -0.64148  -0.54826  -0.53925
 Alpha  occ. eigenvalues --   -0.46966  -0.45639  -0.41116  -0.37907  -0.27713
 Alpha virt. eigenvalues --    0.01715   0.07036   0.07464   0.08091   0.09496
 Alpha virt. eigenvalues --    0.11603   0.12558   0.14731   0.15843   0.16259
 Alpha virt. eigenvalues --    0.18863   0.20521   0.21913   0.22782   0.23615

 Mulliken charges:
               1
     1  C   -0.172812
     2  C   -0.035020
     3  C   -0.031508
     4  C   -0.174605
     5  H    0.083823
     6  H    0.067817
     7  H    0.056747
     8  H    0.057240
     9  H    0.062538
    10  H    0.085779
 Sum of Mulliken charges =   0.00000

 Dipole moment (field-independent basis, Debye):
    X=              0.0026    Y=             -0.0133    Z=             -0.0234  Tot=              0.0271
 Quadrupole moment (field-independent basis, Debye-Ang):
   XX=            -23.2253   YY=            -23.1675   ZZ=            -29.2500
   XY=              0.2610   XZ=             -0.0993   YZ=              0.0048

 1\1\GINC-NODE10\SP\RB2PLYPD3-FC\def2QZVP\C4H6\BOITTIER\26-Aug-2020\0\\
 #p B2PLYPD3/Def2QZVP\\butadiene\\0,1\C,0,-3.847672,0.219322,0.030413\C
 ,0,-2.724404,-0.495035,0.016354\C,0,-1.378923,0.079817,0.000711\C,0,-0
 .257104,-0.658566,0.045901\H,0,-4.789346,-0.262696,0.075518\H,0,-3.884
 645,1.298172,0.064125\H,0,-2.770582,-1.577929,0.01621\H,0,-1.296685,1.
 166628,-0.116587\H,0,-0.316536,-1.719087,0.101136\H,0,0.744905,-0.2524
 42,0.056277\\Version=ES64L-G09RevD.01\State=1-A\HF=-155.7001758\MP2=-1
 55.9257594\RMSD=4.159e-09\PG=C01 [X(C4H6)]\\@

 Normal termination of Gaussian 09 at Wed Aug 26 22:06:45 2020.
