 Gaussian 09, Revision D.01,
 Gaussian 09:  ES64L-G09RevD.01 24-Apr-2013

 --------------------
 #p B2PLYPD3/Def2QZVP
 --------------------

 ---------
 butadiene
 ---------
 Symbolic Z-matrix:
 Charge =  0 Multiplicity = 1

                         Standard orientation:
 ---------------------------------------------------------------------
 Center     Atomic      Atomic             Coordinates (Angstroms)
 Number     Number       Type             X           Y           Z
 ---------------------------------------------------------------------
      1          6           0        1.839123    0.101709   -0.010433
      2          6           0        0.603852   -0.388446   -0.004515
      3          6           0       -0.613094    0.416266    0.010663
      4          6           0       -1.828981   -0.130082   -0.001032
      5          1           0        2.694563   -0.535874    0.070872
      6          1           0        2.015191    1.163399   -0.044623
      7          1           0        0.443562   -1.465189    0.023227
      8          1           0       -0.512746    1.494540    0.016964
      9          1           0       -1.963130   -1.179497   -0.049924
     10          1           0       -2.682838    0.525937    0.015385
 ---------------------------------------------------------------------

 SCF Done:  E(RB2PLYPD3) =  -155.700981497     A.U. after   11 cycles
 E2(B2PLYPD3) =    -0.2252636155D+00 E(B2PLYPD3) =    -0.15592624511256D+03

 The electronic state is 1-A.
 Alpha  occ. eigenvalues --  -10.62424 -10.62366 -10.61140 -10.61140  -0.93027
 Alpha  occ. eigenvalues --   -0.85147  -0.70131  -0.64205  -0.54562  -0.54293
 Alpha  occ. eigenvalues --   -0.46615  -0.46024  -0.41189  -0.38080  -0.27752
 Alpha virt. eigenvalues --    0.01920   0.07038   0.07441   0.08100   0.09596
 Alpha virt. eigenvalues --    0.11768   0.12413   0.14838   0.15911   0.16028
 Alpha virt. eigenvalues --    0.18752   0.20531   0.21556   0.22993   0.24029

 Mulliken charges:
               1
     1  C   -0.178277
     2  C   -0.028510
     3  C   -0.030087
     4  C   -0.179216
     5  H    0.086861
     6  H    0.065573
     7  H    0.052044
     8  H    0.055085
     9  H    0.071387
    10  H    0.085140
 Sum of Mulliken charges =   0.00000

 Dipole moment (field-independent basis, Debye):
    X=             -0.0270    Y=              0.0118    Z=              0.0290  Tot=              0.0414
 Quadrupole moment (field-independent basis, Debye-Ang):
   XX=            -23.6430   YY=            -22.9743   ZZ=            -29.1978
   XY=              0.1274   XZ=              0.2006   YZ=             -0.0432

 1\1\GINC-NODE25\SP\RB2PLYPD3-FC\def2QZVP\C4H6\BOITTIER\26-Aug-2020\0\\
 #p B2PLYPD3/Def2QZVP\\butadiene\\0,1\C,0,-3.843417,0.214312,0.025831\C
 ,0,-2.715722,-0.488795,0.03702\C,0,-1.374517,0.084641,0.003999\C,0,-0.
 275911,-0.669789,0.034248\H,0,-4.799222,-0.262003,-0.040959\H,0,-3.826
 731,1.290904,0.030842\H,0,-2.750612,-1.577196,0.038811\H,0,-1.280436,1
 .162908,-0.031674\H,0,-0.331503,-1.724564,0.111826\H,0,0.681465,-0.177
 705,0.002851\\Version=ES64L-G09RevD.01\State=1-A\HF=-155.7009815\MP2=-
 155.9262451\RMSD=4.916e-09\PG=C01 [X(C4H6)]\\@

 Normal termination of Gaussian 09 at Wed Aug 26 16:30:41 2020.
