 Gaussian 09, Revision D.01,
 Gaussian 09:  ES64L-G09RevD.01 24-Apr-2013

 --------------------
 #p B2PLYPD3/Def2QZVP
 --------------------

 ---------
 butadiene
 ---------
 Symbolic Z-matrix:
 Charge =  0 Multiplicity = 1

                         Standard orientation:
 ---------------------------------------------------------------------
 Center     Atomic      Atomic             Coordinates (Angstroms)
 Number     Number       Type             X           Y           Z
 ---------------------------------------------------------------------
      1          6           0       -1.843643    0.101060   -0.009643
      2          6           0       -0.598674   -0.395862    0.021030
      3          6           0        0.599487    0.420512    0.011603
      4          6           0        1.830783   -0.120429   -0.016681
      5          1           0       -2.704868   -0.541429   -0.020404
      6          1           0       -2.012330    1.164383   -0.013031
      7          1           0       -0.427906   -1.470596    0.003990
      8          1           0        0.506075    1.503117   -0.015207
      9          1           0        1.983989   -1.169131   -0.026676
     10          1           0        2.727323    0.481972    0.033475
 ---------------------------------------------------------------------

 SCF Done:  E(RB2PLYPD3) =  -155.700499080     A.U. after   11 cycles
 E2(B2PLYPD3) =    -0.2258953835D+00 E(B2PLYPD3) =    -0.15592639446363D+03

 The electronic state is 1-A.
 Alpha  occ. eigenvalues --  -10.62680 -10.62607 -10.61425 -10.61377  -0.92945
 Alpha  occ. eigenvalues --   -0.84735  -0.70323  -0.64301  -0.54585  -0.54058
 Alpha  occ. eigenvalues --   -0.46486  -0.45810  -0.41511  -0.38036  -0.27458
 Alpha virt. eigenvalues --    0.01590   0.07036   0.07432   0.08085   0.09462
 Alpha virt. eigenvalues --    0.11695   0.12522   0.14745   0.15927   0.16139
 Alpha virt. eigenvalues --    0.18774   0.20484   0.21750   0.23076   0.23710

 Mulliken charges:
               1
     1  C   -0.178490
     2  C   -0.031271
     3  C   -0.029565
     4  C   -0.176187
     5  H    0.087244
     6  H    0.067756
     7  H    0.055417
     8  H    0.057415
     9  H    0.065281
    10  H    0.082400
 Sum of Mulliken charges =   0.00000

 Dipole moment (field-independent basis, Debye):
    X=              0.0336    Y=             -0.0052    Z=             -0.0111  Tot=              0.0357
 Quadrupole moment (field-independent basis, Debye-Ang):
   XX=            -23.4672   YY=            -23.0523   ZZ=            -29.2967
   XY=             -0.2027   XZ=              0.1383   YZ=              0.0309

 1\1\GINC-NODE30\SP\RB2PLYPD3-FC\def2QZVP\C4H6\BOITTIER\26-Aug-2020\0\\
 #p B2PLYPD3/Def2QZVP\\butadiene\\0,1\C,0,-3.845674,0.217767,0.006438\C
 ,0,-2.711392,-0.495629,0.054317\C,0,-1.385079,0.089375,0.025839\C,0,-0
 .272356,-0.666439,0.015956\H,0,-4.80915,-0.257955,0.010909\H,0,-3.8187
 5,1.293545,-0.026689\H,0,-2.738383,-1.583566,0.067343\H,0,-1.280684,1.
 169813,-0.031017\H,0,-0.311881,-1.725407,0.035259\H,0,0.718667,-0.2354
 43,0.052069\\Version=ES64L-G09RevD.01\State=1-A\HF=-155.7004991\MP2=-1
 55.9263945\RMSD=4.259e-09\PG=C01 [X(C4H6)]\\@

 Normal termination of Gaussian 09 at Wed Aug 26 21:37:39 2020.
