 Gaussian 09, Revision D.01,
 Gaussian 09:  ES64L-G09RevD.01 24-Apr-2013

 --------------------
 #p B2PLYPD3/Def2QZVP
 --------------------

 ---------
 butadiene
 ---------
 Symbolic Z-matrix:
 Charge =  0 Multiplicity = 1

                         Standard orientation:
 ---------------------------------------------------------------------
 Center     Atomic      Atomic             Coordinates (Angstroms)
 Number     Number       Type             X           Y           Z
 ---------------------------------------------------------------------
      1          6           0        1.831829    0.104889    0.005099
      2          6           0        0.579966   -0.396905   -0.038541
      3          6           0       -0.603688    0.429959   -0.055955
      4          6           0       -1.818009   -0.125416    0.025635
      5          1           0        2.647992   -0.615740    0.075929
      6          1           0        2.094915    1.181738    0.144689
      7          1           0        0.397152   -1.473679    0.050513
      8          1           0       -0.456874    1.495894   -0.031665
      9          1           0       -1.910846   -1.195011    0.005709
     10          1           0       -2.712928    0.531636    0.137402
 ---------------------------------------------------------------------

 SCF Done:  E(RB2PLYPD3) =  -155.694551482     A.U. after   11 cycles
 E2(B2PLYPD3) =    -0.2267532920D+00 E(B2PLYPD3) =    -0.15592130477373D+03

 The electronic state is 1-A.
 Alpha  occ. eigenvalues --  -10.62751 -10.62271 -10.62046 -10.61824  -0.93131
 Alpha  occ. eigenvalues --   -0.84424  -0.69701  -0.64147  -0.54048  -0.53556
 Alpha  occ. eigenvalues --   -0.46085  -0.45845  -0.41226  -0.38086  -0.27356
 Alpha virt. eigenvalues --    0.01582   0.06989   0.07219   0.08014   0.09250
 Alpha virt. eigenvalues --    0.11780   0.12236   0.14823   0.15660   0.16030
 Alpha virt. eigenvalues --    0.18591   0.20275   0.21423   0.22847   0.24188

 Mulliken charges:
               1
     1  C   -0.179712
     2  C   -0.033060
     3  C   -0.024861
     4  C   -0.179009
     5  H    0.077868
     6  H    0.070353
     7  H    0.054043
     8  H    0.060239
     9  H    0.070885
    10  H    0.083254
 Sum of Mulliken charges =   0.00000

 Dipole moment (field-independent basis, Debye):
    X=             -0.0550    Y=              0.0162    Z=              0.2858  Tot=              0.2915
 Quadrupole moment (field-independent basis, Debye-Ang):
   XX=            -24.1549   YY=            -22.8657   ZZ=            -29.3586
   XY=              0.2732   XZ=              0.1499   YZ=              0.1167

 1\1\GINC-NODE04\SP\RB2PLYPD3-FC\def2QZVP\C4H6\BOITTIER\26-Aug-2020\0\\
 #p B2PLYPD3/Def2QZVP\\butadiene\\0,1\C,0,-3.83439,0.225498,0.002654\C,
 0,-2.696891,-0.497602,0.066577\C,0,-1.380639,0.096118,0.061904\C,0,-0.
 290252,-0.676649,0.002229\H,0,-4.76997,-0.333567,-0.048143\H,0,-3.8940
 16,1.327434,-0.171945\H,0,-2.716691,-1.591888,0.012365\H,0,-1.327741,1
 .169491,0.0033\H,0,-0.396883,-1.743769,0.056398\H,0,0.710517,-0.200412
 ,-0.127185\\Version=ES64L-G09RevD.01\State=1-A\HF=-155.6945515\MP2=-15
 5.9213048\RMSD=4.373e-09\PG=C01 [X(C4H6)]\\@

 Normal termination of Gaussian 09 at Wed Aug 26 09:25:49 2020.
