 Gaussian 09, Revision D.01,
 Gaussian 09:  ES64L-G09RevD.01 24-Apr-2013

 --------------------
 #p B2PLYPD3/Def2QZVP
 --------------------

 ---------
 butadiene
 ---------
 Symbolic Z-matrix:
 Charge =  0 Multiplicity = 1

                         Standard orientation:
 ---------------------------------------------------------------------
 Center     Atomic      Atomic             Coordinates (Angstroms)
 Number     Number       Type             X           Y           Z
 ---------------------------------------------------------------------
      1          6           0       -1.823409   -0.115541    0.019675
      2          6           0       -0.589191    0.415855   -0.048972
      3          6           0        0.589331   -0.378926   -0.021996
      4          6           0        1.834537    0.087705    0.027539
      5          1           0       -2.682898    0.481122    0.028869
      6          1           0       -2.055004   -1.156171    0.164183
      7          1           0       -0.465352    1.480142   -0.095094
      8          1           0        0.430897   -1.461930   -0.089348
      9          1           0        2.000598    1.157705    0.193667
     10          1           0        2.704156   -0.555432   -0.059749
 ---------------------------------------------------------------------

 SCF Done:  E(RB2PLYPD3) =  -155.697238060     A.U. after   11 cycles
 E2(B2PLYPD3) =    -0.2258048288D+00 E(B2PLYPD3) =    -0.15592304288929D+03

 The electronic state is 1-A.
 Alpha  occ. eigenvalues --  -10.62417 -10.62155 -10.61517 -10.61269  -0.93442
 Alpha  occ. eigenvalues --   -0.84810  -0.70876  -0.64123  -0.55117  -0.53859
 Alpha  occ. eigenvalues --   -0.46999  -0.45366  -0.41342  -0.38324  -0.27370
 Alpha virt. eigenvalues --    0.01370   0.07062   0.07438   0.08068   0.09712
 Alpha virt. eigenvalues --    0.11672   0.12464   0.14996   0.15936   0.16173
 Alpha virt. eigenvalues --    0.18813   0.20487   0.21638   0.22704   0.23523

 Mulliken charges:
               1
     1  C   -0.171329
     2  C   -0.036893
     3  C   -0.018870
     4  C   -0.182681
     5  H    0.080370
     6  H    0.065349
     7  H    0.059726
     8  H    0.053184
     9  H    0.062513
    10  H    0.088632
 Sum of Mulliken charges =   0.00000

 Dipole moment (field-independent basis, Debye):
    X=             -0.0813    Y=             -0.0014    Z=              0.0898  Tot=              0.1212
 Quadrupole moment (field-independent basis, Debye-Ang):
   XX=            -23.3683   YY=            -23.2280   ZZ=            -29.1253
   XY=              0.2443   XZ=             -0.2521   YZ=              0.0915

 1\1\GINC-NODE29\SP\RB2PLYPD3-FC\def2QZVP\C4H6\BOITTIER\26-Aug-2020\0\\
 #p B2PLYPD3/Def2QZVP\\butadiene\\0,1\C,0,-3.82301,0.238821,-0.006441\C
 ,0,-2.709469,-0.511439,0.080303\C,0,-1.403431,0.04867,0.037166\C,0,-0.
 267163,-0.643096,0.004143\H,0,-4.778708,-0.187141,-0.003401\H,0,-3.856
 641,1.300282,-0.178487\H,0,-2.786237,-1.578591,0.154215\H,0,-1.357018,
 1.143598,0.076083\H,0,-0.303779,-1.729236,-0.133825\H,0,0.707253,-0.17
 1355,0.078012\\Version=ES64L-G09RevD.01\State=1-A\HF=-155.6972381\MP2=
 -155.9230429\RMSD=7.164e-09\PG=C01 [X(C4H6)]\\@

 Normal termination of Gaussian 09 at Wed Aug 26 08:51:20 2020.
