 Gaussian 09, Revision D.01,
 Gaussian 09:  ES64L-G09RevD.01 24-Apr-2013

 --------------------
 #p B2PLYPD3/Def2QZVP
 --------------------

 ---------
 butadiene
 ---------
 Symbolic Z-matrix:
 Charge =  0 Multiplicity = 1

                         Standard orientation:
 ---------------------------------------------------------------------
 Center     Atomic      Atomic             Coordinates (Angstroms)
 Number     Number       Type             X           Y           Z
 ---------------------------------------------------------------------
      1          6           0        1.831444   -0.115118   -0.009526
      2          6           0        0.601713    0.421896   -0.007078
      3          6           0       -0.591302   -0.394486    0.009090
      4          6           0       -1.845489    0.091868   -0.016764
      5          1           0        2.726135    0.488317    0.023919
      6          1           0        1.972707   -1.192368   -0.017311
      7          1           0        0.482319    1.494754    0.062926
      8          1           0       -0.418329   -1.463080    0.052446
      9          1           0       -2.018987    1.151816    0.002653
     10          1           0       -2.722044   -0.504398    0.021036
 ---------------------------------------------------------------------

 SCF Done:  E(RB2PLYPD3) =  -155.700267292     A.U. after   11 cycles
 E2(B2PLYPD3) =    -0.2259428714D+00 E(B2PLYPD3) =    -0.15592621016349D+03

 The electronic state is 1-A.
 Alpha  occ. eigenvalues --  -10.62637 -10.62559 -10.61682 -10.61310  -0.93021
 Alpha  occ. eigenvalues --   -0.84676  -0.70473  -0.64328  -0.54927  -0.53769
 Alpha  occ. eigenvalues --   -0.46827  -0.45536  -0.41493  -0.38048  -0.27455
 Alpha virt. eigenvalues --    0.01519   0.07056   0.07410   0.08128   0.09481
 Alpha virt. eigenvalues --    0.11653   0.12605   0.14689   0.15880   0.16247
 Alpha virt. eigenvalues --    0.18807   0.20491   0.21844   0.23028   0.23577

 Mulliken charges:
               1
     1  C   -0.175477
     2  C   -0.029010
     3  C   -0.030275
     4  C   -0.175900
     5  H    0.085180
     6  H    0.064233
     7  H    0.058311
     8  H    0.054660
     9  H    0.061687
    10  H    0.086591
 Sum of Mulliken charges =   0.00000

 Dipole moment (field-independent basis, Debye):
    X=              0.0337    Y=              0.0122    Z=              0.1365  Tot=              0.1411
 Quadrupole moment (field-independent basis, Debye-Ang):
   XX=            -23.3155   YY=            -23.1701   ZZ=            -29.2822
   XY=             -0.2120   XZ=             -0.0140   YZ=              0.0504

 1\1\GINC-NODE32\SP\RB2PLYPD3-FC\def2QZVP\C4H6\BOITTIER\26-Aug-2020\0\\
 #p B2PLYPD3/Def2QZVP\\butadiene\\0,1\C,0,-3.831535,0.234289,0.01077\C,
 0,-2.7212,-0.518882,0.033547\C,0,-1.398602,0.064805,0.025075\C,0,-0.25
 5047,-0.644015,0.017935\H,0,-4.821604,-0.19329,0.062377\H,0,-3.772794,
 1.318316,-0.033028\H,0,-2.800379,-1.592529,0.139339\H,0,-1.372413,1.14
 7833,0.032612\H,0,-0.278879,-1.716575,0.072851\H,0,0.716169,-0.217802,
 0.037735\\Version=ES64L-G09RevD.01\State=1-A\HF=-155.7002673\MP2=-155.
 9262102\RMSD=2.721e-09\PG=C01 [X(C4H6)]\\@

 Normal termination of Gaussian 09 at Wed Aug 26 22:06:57 2020.
