 Gaussian 09, Revision D.01,
 Gaussian 09:  ES64L-G09RevD.01 24-Apr-2013

 --------------------
 #p B2PLYPD3/Def2QZVP
 --------------------

 ---------
 butadiene
 ---------
 Symbolic Z-matrix:
 Charge =  0 Multiplicity = 1

                         Standard orientation:
 ---------------------------------------------------------------------
 Center     Atomic      Atomic             Coordinates (Angstroms)
 Number     Number       Type             X           Y           Z
 ---------------------------------------------------------------------
      1          6           0        1.848270    0.109664    0.028023
      2          6           0        0.599573   -0.400643   -0.019085
      3          6           0       -0.590568    0.384631   -0.024623
      4          6           0       -1.834728   -0.096248    0.006566
      5          1           0        2.711983   -0.548306    0.039590
      6          1           0        2.019730    1.171038    0.008432
      7          1           0        0.434854   -1.431324   -0.060682
      8          1           0       -0.516180    1.473334   -0.084299
      9          1           0       -2.079790   -1.155244    0.018826
     10          1           0       -2.705880    0.506081    0.132840
 ---------------------------------------------------------------------

 SCF Done:  E(RB2PLYPD3) =  -155.697287519     A.U. after   11 cycles
 E2(B2PLYPD3) =    -0.2258393680D+00 E(B2PLYPD3) =    -0.15592312688674D+03

 The electronic state is 1-A.
 Alpha  occ. eigenvalues --  -10.62364 -10.62191 -10.61800 -10.61343  -0.93333
 Alpha  occ. eigenvalues --   -0.84780  -0.70864  -0.64511  -0.54995  -0.53983
 Alpha  occ. eigenvalues --   -0.46824  -0.45594  -0.41472  -0.38153  -0.27393
 Alpha virt. eigenvalues --    0.01299   0.06994   0.07541   0.08078   0.09760
 Alpha virt. eigenvalues --    0.11631   0.12498   0.14827   0.15874   0.16217
 Alpha virt. eigenvalues --    0.18900   0.20402   0.21811   0.22720   0.23700

 Mulliken charges:
               1
     1  C   -0.176171
     2  C   -0.042039
     3  C   -0.019199
     4  C   -0.173553
     5  H    0.085580
     6  H    0.071987
     7  H    0.064278
     8  H    0.052573
     9  H    0.055051
    10  H    0.081491
 Sum of Mulliken charges =   0.00000

 Dipole moment (field-independent basis, Debye):
    X=             -0.0269    Y=             -0.0190    Z=              0.0190  Tot=              0.0380
 Quadrupole moment (field-independent basis, Debye-Ang):
   XX=            -23.2751   YY=            -23.2224   ZZ=            -29.1944
   XY=              0.2178   XZ=             -0.2997   YZ=              0.0187

 1\1\GINC-NODE31\SP\RB2PLYPD3-FC\def2QZVP\C4H6\BOITTIER\26-Aug-2020\0\\
 #p B2PLYPD3/Def2QZVP\\butadiene\\0,1\C,0,-3.846131,0.231658,-0.006423\
 C,0,-2.712246,-0.497994,0.055136\C,0,-1.398038,0.054864,0.037082\C,0,-
 0.26366,-0.647296,0.019515\H,0,-4.816115,-0.256321,0.001724\H,0,-3.819
 477,1.306578,-0.017968\H,0,-2.739529,-1.539755,0.126944\H,0,-1.27071,1
 .139941,0.06476\H,0,-0.217488,-1.733203,0.038288\H,0,0.702607,-0.21932
 6,-0.124781\\Version=ES64L-G09RevD.01\State=1-A\HF=-155.6972875\MP2=-1
 55.9231269\RMSD=5.963e-09\PG=C01 [X(C4H6)]\\@

 Normal termination of Gaussian 09 at Wed Aug 26 09:14:05 2020.
