 Gaussian 09, Revision D.01,
 Gaussian 09:  ES64L-G09RevD.01 24-Apr-2013

 --------------------
 #p B2PLYPD3/Def2QZVP
 --------------------

 ---------
 butadiene
 ---------
 Symbolic Z-matrix:
 Charge =  0 Multiplicity = 1

                         Standard orientation:
 ---------------------------------------------------------------------
 Center     Atomic      Atomic             Coordinates (Angstroms)
 Number     Number       Type             X           Y           Z
 ---------------------------------------------------------------------
      1          6           0        1.869403   -0.092827   -0.051185
      2          6           0        0.590230    0.369599    0.021652
      3          6           0       -0.622905   -0.429550    0.068398
      4          6           0       -1.859573    0.106668   -0.030037
      5          1           0        2.755570    0.571088   -0.015923
      6          1           0        2.156346   -1.150682   -0.220118
      7          1           0        0.461125    1.441430    0.371329
      8          1           0       -0.566461   -1.441005    0.233398
      9          1           0       -1.860790    1.210483   -0.302638
     10          1           0       -2.808713   -0.354652   -0.119019
 ---------------------------------------------------------------------

 SCF Done:  E(RB2PLYPD3) =  -155.682023423     A.U. after   11 cycles
 E2(B2PLYPD3) =    -0.2276679734D+00 E(B2PLYPD3) =    -0.15590969139614D+03

 The electronic state is 1-A.
 Alpha  occ. eigenvalues --  -10.63737 -10.62739 -10.62536 -10.62173  -0.92618
 Alpha  occ. eigenvalues --   -0.84285  -0.70350  -0.64083  -0.55266  -0.52899
 Alpha  occ. eigenvalues --   -0.47326  -0.44096  -0.41254  -0.36985  -0.27653
 Alpha virt. eigenvalues --    0.00990   0.07062   0.07512   0.07565   0.09072
 Alpha virt. eigenvalues --    0.11292   0.12625   0.14259   0.15278   0.16630
 Alpha virt. eigenvalues --    0.18971   0.19461   0.21403   0.22189   0.22876

 Mulliken charges:
               1
     1  C   -0.178952
     2  C   -0.042690
     3  C   -0.040836
     4  C   -0.159959
     5  H    0.082284
     6  H    0.066451
     7  H    0.069403
     8  H    0.069655
     9  H    0.045256
    10  H    0.089387
 Sum of Mulliken charges =   0.00000

 Dipole moment (field-independent basis, Debye):
    X=              0.0036    Y=             -0.1625    Z=              0.0234  Tot=              0.1642
 Quadrupole moment (field-independent basis, Debye-Ang):
   XX=            -22.9140   YY=            -23.8097   ZZ=            -29.1869
   XY=              0.0480   XZ=              0.4079   YZ=              0.1465

 1\1\GINC-NODE15\SP\RB2PLYPD3-FC\def2QZVP\C4H6\BOITTIER\26-Aug-2020\0\\
 #p B2PLYPD3/Def2QZVP\\butadiene\\0,1\C,0,-3.879208,0.202513,-0.026788\
 C,0,-2.702034,-0.477311,0.059981\C,0,-1.365977,0.094607,0.079563\C,0,-
 0.244877,-0.655715,-0.002404\H,0,-4.868939,-0.291879,0.030895\H,0,-3.9
 74843,1.288575,-0.2299\H,0,-2.763003,-1.543293,0.444334\H,0,-1.240799,
 1.104741,0.211519\H,0,-0.441522,-1.750315,-0.238842\H,0,0.770487,-0.37
 3496,-0.107223\\Version=ES64L-G09RevD.01\State=1-A\HF=-155.6820234\MP2
 =-155.9096914\RMSD=4.800e-09\PG=C01 [X(C4H6)]\\@

 Normal termination of Gaussian 09 at Wed Aug 26 12:30:00 2020.
