 Gaussian 09, Revision D.01,
 Gaussian 09:  ES64L-G09RevD.01 24-Apr-2013

 --------------------
 #p B2PLYPD3/Def2QZVP
 --------------------

 ---------
 butadiene
 ---------
 Symbolic Z-matrix:
 Charge =  0 Multiplicity = 1

                         Standard orientation:
 ---------------------------------------------------------------------
 Center     Atomic      Atomic             Coordinates (Angstroms)
 Number     Number       Type             X           Y           Z
 ---------------------------------------------------------------------
      1          6           0        1.838663   -0.132887   -0.015785
      2          6           0        0.595650    0.437433    0.041359
      3          6           0       -0.606886   -0.393697    0.003920
      4          6           0       -1.839603    0.086278   -0.024942
      5          1           0        2.709732    0.477783   -0.052970
      6          1           0        1.971634   -1.207228   -0.164893
      7          1           0        0.484062    1.551824    0.122851
      8          1           0       -0.436843   -1.449839    0.202895
      9          1           0       -1.970054    1.193320   -0.139711
     10          1           0       -2.685474   -0.548622    0.004517
 ---------------------------------------------------------------------

 SCF Done:  E(RB2PLYPD3) =  -155.694182134     A.U. after   11 cycles
 E2(B2PLYPD3) =    -0.2266973088D+00 E(B2PLYPD3) =    -0.15592087944239D+03

 The electronic state is 1-A.
 Alpha  occ. eigenvalues --  -10.63539 -10.62359 -10.61931 -10.61432  -0.92696
 Alpha  occ. eigenvalues --   -0.84577  -0.69980  -0.63525  -0.54735  -0.53453
 Alpha  occ. eigenvalues --   -0.46413  -0.45422  -0.41353  -0.37677  -0.27544
 Alpha virt. eigenvalues --    0.01585   0.07130   0.07233   0.07972   0.09147
 Alpha virt. eigenvalues --    0.11665   0.12364   0.14613   0.15438   0.16212
 Alpha virt. eigenvalues --    0.18707   0.20070   0.21351   0.23067   0.23716

 Mulliken charges:
               1
     1  C   -0.177445
     2  C   -0.044462
     3  C   -0.021637
     4  C   -0.181036
     5  H    0.086430
     6  H    0.068346
     7  H    0.055836
     8  H    0.060471
     9  H    0.061919
    10  H    0.091579
 Sum of Mulliken charges =   0.00000

 Dipole moment (field-independent basis, Debye):
    X=              0.0052    Y=             -0.0124    Z=             -0.0029  Tot=              0.0138
 Quadrupole moment (field-independent basis, Debye-Ang):
   XX=            -23.7180   YY=            -23.0615   ZZ=            -29.3333
   XY=             -0.0376   XZ=             -0.3165   YZ=             -0.0903

 1\1\GINC-NODE32\SP\RB2PLYPD3-FC\def2QZVP\C4H6\BOITTIER\26-Aug-2020\0\\
 #p B2PLYPD3/Def2QZVP\\butadiene\\0,1\C,0,-3.837632,0.247908,-0.000974\
 C,0,-2.71858,-0.536655,0.075143\C,0,-1.385314,0.06153,0.021771\C,0,-0.
 260065,-0.634508,0.009627\H,0,-4.805005,-0.195494,-0.026383\H,0,-3.773
 721,1.324467,-0.177213\H,0,-2.810826,-1.650409,0.184698\H,0,-1.360926,
 1.135656,0.193812\H,0,-0.33256,-1.749384,-0.077125\H,0,0.686915,-0.162
 911,0.026614\\Version=ES64L-G09RevD.01\State=1-A\HF=-155.6941821\MP2=-
 155.9208794\RMSD=7.283e-09\PG=C01 [X(C4H6)]\\@

 Normal termination of Gaussian 09 at Wed Aug 26 10:42:18 2020.
