 Gaussian 09, Revision D.01,
 Gaussian 09:  ES64L-G09RevD.01 24-Apr-2013

 --------------------
 #p B2PLYPD3/Def2QZVP
 --------------------

 ---------
 butadiene
 ---------
 Symbolic Z-matrix:
 Charge =  0 Multiplicity = 1

                         Standard orientation:
 ---------------------------------------------------------------------
 Center     Atomic      Atomic             Coordinates (Angstroms)
 Number     Number       Type             X           Y           Z
 ---------------------------------------------------------------------
      1          6           0        1.847796    0.090797   -0.031306
      2          6           0        0.603156   -0.368277    0.011488
      3          6           0       -0.611449    0.404699    0.046472
      4          6           0       -1.841502   -0.122048   -0.058787
      5          1           0        2.714638   -0.556501    0.010864
      6          1           0        2.149704    1.127611   -0.110685
      7          1           0        0.401856   -1.423808    0.184424
      8          1           0       -0.517010    1.466730    0.134648
      9          1           0       -1.992639   -1.184874   -0.056112
     10          1           0       -2.744556    0.539816    0.029661
 ---------------------------------------------------------------------

 SCF Done:  E(RB2PLYPD3) =  -155.695870977     A.U. after   11 cycles
 E2(B2PLYPD3) =    -0.2259373118D+00 E(B2PLYPD3) =    -0.15592180828916D+03

 The electronic state is 1-A.
 Alpha  occ. eigenvalues --  -10.62489 -10.62332 -10.62017 -10.61593  -0.93164
 Alpha  occ. eigenvalues --   -0.84861  -0.70541  -0.64194  -0.54852  -0.53616
 Alpha  occ. eigenvalues --   -0.47065  -0.45485  -0.40762  -0.37890  -0.27804
 Alpha virt. eigenvalues --    0.01441   0.06976   0.07502   0.07944   0.09761
 Alpha virt. eigenvalues --    0.11569   0.12415   0.14888   0.15590   0.16209
 Alpha virt. eigenvalues --    0.18960   0.20042   0.21869   0.22372   0.23495

 Mulliken charges:
               1
     1  C   -0.175164
     2  C   -0.026324
     3  C   -0.037215
     4  C   -0.168950
     5  H    0.080354
     6  H    0.066007
     7  H    0.056746
     8  H    0.058590
     9  H    0.065908
    10  H    0.080048
 Sum of Mulliken charges =   0.00000

 Dipole moment (field-independent basis, Debye):
    X=              0.0368    Y=              0.0391    Z=              0.2040  Tot=              0.2109
 Quadrupole moment (field-independent basis, Debye-Ang):
   XX=            -23.2326   YY=            -23.3572   ZZ=            -29.1967
   XY=              0.3867   XZ=             -0.1739   YZ=             -0.1156

 1\1\GINC-NODE12\SP\RB2PLYPD3-FC\def2QZVP\C4H6\BOITTIER\26-Aug-2020\0\\
 #p B2PLYPD3/Def2QZVP\\butadiene\\0,1\C,0,-3.852851,0.210988,0.049649\C
 ,0,-2.712762,-0.467883,0.017385\C,0,-1.377919,0.070021,-0.035844\C,0,-
 0.263837,-0.669322,0.081488\H,0,-4.823209,-0.26846,0.022753\H,0,-3.960
 645,1.286983,0.104838\H,0,-2.707714,-1.546107,-0.130881\H,0,-1.277862,
 1.129189,-0.148788\H,0,-0.30869,-1.741678,0.103615\H,0,0.744202,-0.185
 145,-0.022545\\Version=ES64L-G09RevD.01\State=1-A\HF=-155.695871\MP2=-
 155.9218083\RMSD=7.892e-09\PG=C01 [X(C4H6)]\\@

 Normal termination of Gaussian 09 at Wed Aug 26 08:16:20 2020.
