 Gaussian 09, Revision D.01,
 Gaussian 09:  ES64L-G09RevD.01 24-Apr-2013

 --------------------
 #p B2PLYPD3/Def2QZVP
 --------------------

 ---------
 butadiene
 ---------
 Symbolic Z-matrix:
 Charge =  0 Multiplicity = 1

                         Standard orientation:
 ---------------------------------------------------------------------
 Center     Atomic      Atomic             Coordinates (Angstroms)
 Number     Number       Type             X           Y           Z
 ---------------------------------------------------------------------
      1          6           0        1.816474    0.109920   -0.056910
      2          6           0        0.591222   -0.414395    0.061824
      3          6           0       -0.584344    0.390601    0.031127
      4          6           0       -1.824190   -0.087204   -0.032628
      5          1           0        2.710127   -0.531631   -0.067201
      6          1           0        1.986955    1.194267    0.007469
      7          1           0        0.476884   -1.478824    0.051722
      8          1           0       -0.372741    1.470916    0.115815
      9          1           0       -2.069949   -1.156465   -0.016768
     10          1           0       -2.726246    0.508202   -0.111517
 ---------------------------------------------------------------------

 SCF Done:  E(RB2PLYPD3) =  -155.696586620     A.U. after   11 cycles
 E2(B2PLYPD3) =    -0.2261745923D+00 E(B2PLYPD3) =    -0.15592276121190D+03

 The electronic state is 1-A.
 Alpha  occ. eigenvalues --  -10.62567 -10.62172 -10.61907 -10.61655  -0.93513
 Alpha  occ. eigenvalues --   -0.84652  -0.70327  -0.64127  -0.55063  -0.53332
 Alpha  occ. eigenvalues --   -0.46821  -0.45022  -0.41116  -0.38374  -0.27519
 Alpha virt. eigenvalues --    0.01563   0.07018   0.07285   0.08047   0.09608
 Alpha virt. eigenvalues --    0.11630   0.12493   0.14764   0.15650   0.16405
 Alpha virt. eigenvalues --    0.18794   0.19963   0.22120   0.22855   0.23392

 Mulliken charges:
               1
     1  C   -0.170305
     2  C   -0.029679
     3  C   -0.023305
     4  C   -0.173303
     5  H    0.079612
     6  H    0.062666
     7  H    0.059884
     8  H    0.053023
     9  H    0.059802
    10  H    0.081604
 Sum of Mulliken charges =   0.00000

 Dipole moment (field-independent basis, Debye):
    X=             -0.0003    Y=             -0.0462    Z=              0.0515  Tot=              0.0692
 Quadrupole moment (field-independent basis, Debye-Ang):
   XX=            -23.3780   YY=            -23.2662   ZZ=            -29.2361
   XY=              0.3650   XZ=              0.1557   YZ=              0.0964

 1\1\GINC-NODE04\SP\RB2PLYPD3-FC\def2QZVP\C4H6\BOITTIER\26-Aug-2020\0\\
 #p B2PLYPD3/Def2QZVP\\butadiene\\0,1\C,0,-3.815177,0.236737,0.071115\C
 ,0,-2.710872,-0.51271,-0.024203\C,0,-1.404729,0.057265,-0.018274\C,0,-
 0.276751,-0.642696,0.067154\H,0,-4.813555,-0.224392,0.10128\H,0,-3.778
 763,1.330752,-0.032918\H,0,-2.798853,-1.578569,0.024668\H,0,-1.409526,
 1.154328,-0.142607\H,0,-0.236652,-1.738965,0.09073\H,0,0.721484,-0.225
 221,0.127804\\Version=ES64L-G09RevD.01\State=1-A\HF=-155.6965866\MP2=-
 155.9227612\RMSD=7.049e-09\PG=C01 [X(C4H6)]\\@

 Normal termination of Gaussian 09 at Wed Aug 26 08:45:34 2020.
