 Gaussian 09, Revision D.01,
 Gaussian 09:  ES64L-G09RevD.01 24-Apr-2013

 --------------------
 #p B2PLYPD3/Def2QZVP
 --------------------

 ---------
 butadiene
 ---------
 Symbolic Z-matrix:
 Charge =  0 Multiplicity = 1

                         Standard orientation:
 ---------------------------------------------------------------------
 Center     Atomic      Atomic             Coordinates (Angstroms)
 Number     Number       Type             X           Y           Z
 ---------------------------------------------------------------------
      1          6           0       -1.832977    0.116614    0.007476
      2          6           0       -0.604625   -0.412244   -0.026486
      3          6           0        0.594205    0.387073   -0.023465
      4          6           0        1.833714   -0.108805    0.019212
      5          1           0       -2.719241   -0.511425    0.110065
      6          1           0       -1.907225    1.213605    0.026628
      7          1           0       -0.479959   -1.466091   -0.046972
      8          1           0        0.444534    1.456245   -0.031447
      9          1           0        2.031515   -1.154184    0.028382
     10          1           0        2.688472    0.566026    0.052919
 ---------------------------------------------------------------------

 SCF Done:  E(RB2PLYPD3) =  -155.699736713     A.U. after   11 cycles
 E2(B2PLYPD3) =    -0.2257630694D+00 E(B2PLYPD3) =    -0.15592549978211D+03

 The electronic state is 1-A.
 Alpha  occ. eigenvalues --  -10.62305 -10.62097 -10.61796 -10.61361  -0.93276
 Alpha  occ. eigenvalues --   -0.84850  -0.70104  -0.64458  -0.54666  -0.53845
 Alpha  occ. eigenvalues --   -0.46541  -0.45719  -0.41468  -0.38226  -0.27550
 Alpha virt. eigenvalues --    0.01674   0.06985   0.07458   0.08070   0.09642
 Alpha virt. eigenvalues --    0.11764   0.12425   0.14740   0.15852   0.16031
 Alpha virt. eigenvalues --    0.18659   0.20493   0.21479   0.22917   0.24050

 Mulliken charges:
               1
     1  C   -0.176344
     2  C   -0.030271
     3  C   -0.025308
     4  C   -0.181594
     5  H    0.088736
     6  H    0.062420
     7  H    0.056824
     8  H    0.052390
     9  H    0.069810
    10  H    0.083337
 Sum of Mulliken charges =   0.00000

 Dipole moment (field-independent basis, Debye):
    X=              0.0084    Y=             -0.0483    Z=              0.0964  Tot=              0.1081
 Quadrupole moment (field-independent basis, Debye-Ang):
   XX=            -23.7184   YY=            -23.0358   ZZ=            -29.2400
   XY=             -0.0271   XZ=             -0.1746   YZ=             -0.0202

 1\1\GINC-NODE12\SP\RB2PLYPD3-FC\def2QZVP\C4H6\BOITTIER\26-Aug-2020\0\\
 #p B2PLYPD3/Def2QZVP\\butadiene\\0,1\C,0,-3.832445,0.232057,0.030423\C
 ,0,-2.71974,-0.510402,0.01216\C,0,-1.396444,0.059366,-0.006915\C,0,-0.
 266465,-0.650529,0.050499\H,0,-4.816933,-0.222717,0.15036\H,0,-3.70761
 1,1.324549,0.018335\H,0,-2.787211,-1.569605,0.021714\H,0,-1.350936,1.1
 37347,-0.045374\H,0,-0.260337,-1.713764,0.089494\H,0,0.696098,-0.14024
 2,0.065455\\Version=ES64L-G09RevD.01\State=1-A\HF=-155.6997367\MP2=-15
 5.9254998\RMSD=2.924e-09\PG=C01 [X(C4H6)]\\@

 Normal termination of Gaussian 09 at Wed Aug 26 21:29:49 2020.
