 Gaussian 09, Revision D.01,
 Gaussian 09:  ES64L-G09RevD.01 24-Apr-2013

 --------------------
 #p B2PLYPD3/Def2QZVP
 --------------------

 ---------
 butadiene
 ---------
 Symbolic Z-matrix:
 Charge =  0 Multiplicity = 1

                         Standard orientation:
 ---------------------------------------------------------------------
 Center     Atomic      Atomic             Coordinates (Angstroms)
 Number     Number       Type             X           Y           Z
 ---------------------------------------------------------------------
      1          6           0        1.830243   -0.096246   -0.051121
      2          6           0        0.593523    0.349043    0.011706
      3          6           0       -0.607122   -0.394722    0.037081
      4          6           0       -1.841211    0.134966   -0.008123
      5          1           0        2.773667    0.550681    0.073454
      6          1           0        2.040258   -1.159831   -0.131758
      7          1           0        0.520665    1.514568    0.159908
      8          1           0       -0.548622   -1.507075    0.243561
      9          1           0       -1.975593    1.169697   -0.104167
     10          1           0       -2.662971   -0.526280   -0.178255
 ---------------------------------------------------------------------

 SCF Done:  E(RB2PLYPD3) =  -155.683210540     A.U. after   11 cycles
 E2(B2PLYPD3) =    -0.2268893654D+00 E(B2PLYPD3) =    -0.15591009990530D+03

 The electronic state is 1-A.
 Alpha  occ. eigenvalues --  -10.63046 -10.62934 -10.62074 -10.61273  -0.93475
 Alpha  occ. eigenvalues --   -0.85185  -0.70502  -0.62765  -0.54863  -0.53675
 Alpha  occ. eigenvalues --   -0.46414  -0.45265  -0.40588  -0.37929  -0.27738
 Alpha virt. eigenvalues --    0.01212   0.06873   0.07063   0.07763   0.09840
 Alpha virt. eigenvalues --    0.11536   0.12417   0.14693   0.15383   0.16356
 Alpha virt. eigenvalues --    0.18728   0.19333   0.22078   0.22242   0.23626

 Mulliken charges:
               1
     1  C   -0.167795
     2  C   -0.018759
     3  C   -0.035861
     4  C   -0.172277
     5  H    0.081606
     6  H    0.060147
     7  H    0.039732
     8  H    0.056147
     9  H    0.070687
    10  H    0.086375
 Sum of Mulliken charges =   0.00000

 Dipole moment (field-independent basis, Debye):
    X=             -0.0044    Y=             -0.0554    Z=              0.0560  Tot=              0.0789
 Quadrupole moment (field-independent basis, Debye-Ang):
   XX=            -23.4759   YY=            -23.4537   ZZ=            -29.1718
   XY=              0.0210   XZ=              0.6867   YZ=              0.0821

 1\1\GINC-NODE30\SP\RB2PLYPD3-FC\def2QZVP\C4H6\BOITTIER\26-Aug-2020\0\\
 #p B2PLYPD3/Def2QZVP\\butadiene\\0,1\C,0,-3.840665,0.199184,-0.020944\
 C,0,-2.700634,-0.454074,0.05179\C,0,-1.388037,0.067907,0.049765\C,0,-0
 .266337,-0.671226,0.017189\H,0,-4.881743,-0.268077,0.127057\H,0,-3.861
 709,1.280164,-0.134342\H,0,-2.831892,-1.609244,0.236382\H,0,-1.248851,
 1.179026,0.221304\H,0,-0.316245,-1.715919,-0.046664\H,0,0.657075,-0.16
 9914,-0.176395\\Version=ES64L-G09RevD.01\State=1-A\HF=-155.6832105\MP2
 =-155.9100999\RMSD=8.333e-09\PG=C01 [X(C4H6)]\\@

 Normal termination of Gaussian 09 at Wed Aug 26 15:19:10 2020.
