 Gaussian 09, Revision D.01,
 Gaussian 09:  ES64L-G09RevD.01 24-Apr-2013

 --------------------
 #p B2PLYPD3/Def2QZVP
 --------------------

 ---------
 butadiene
 ---------
 Symbolic Z-matrix:
 Charge =  0 Multiplicity = 1

                         Standard orientation:
 ---------------------------------------------------------------------
 Center     Atomic      Atomic             Coordinates (Angstroms)
 Number     Number       Type             X           Y           Z
 ---------------------------------------------------------------------
      1          6           0        1.837824    0.095657   -0.045342
      2          6           0        0.610875   -0.396190    0.036808
      3          6           0       -0.609569    0.383878    0.009230
      4          6           0       -1.854921   -0.103243   -0.026860
      5          1           0        2.782630   -0.487604    0.006550
      6          1           0        2.031595    1.193576   -0.025618
      7          1           0        0.499153   -1.445017    0.106295
      8          1           0       -0.434854    1.458588    0.134506
      9          1           0       -2.105092   -1.164304   -0.059782
     10          1           0       -2.678686    0.564145   -0.004964
 ---------------------------------------------------------------------

 SCF Done:  E(RB2PLYPD3) =  -155.696554012     A.U. after   11 cycles
 E2(B2PLYPD3) =    -0.2257447945D+00 E(B2PLYPD3) =    -0.15592229880651D+03

 The electronic state is 1-A.
 Alpha  occ. eigenvalues --  -10.62749 -10.62165 -10.62032 -10.61577  -0.93080
 Alpha  occ. eigenvalues --   -0.84970  -0.70379  -0.64062  -0.54900  -0.53602
 Alpha  occ. eigenvalues --   -0.47398  -0.45032  -0.40700  -0.37985  -0.27902
 Alpha virt. eigenvalues --    0.01602   0.06981   0.07424   0.08051   0.09770
 Alpha virt. eigenvalues --    0.11516   0.12428   0.14683   0.15685   0.16368
 Alpha virt. eigenvalues --    0.18980   0.20238   0.21873   0.22391   0.23453

 Mulliken charges:
               1
     1  C   -0.159419
     2  C   -0.034289
     3  C   -0.030891
     4  C   -0.178675
     5  H    0.079983
     6  H    0.052329
     7  H    0.059195
     8  H    0.055324
     9  H    0.069635
    10  H    0.086810
 Sum of Mulliken charges =   0.00000

 Dipole moment (field-independent basis, Debye):
    X=              0.0003    Y=             -0.0333    Z=              0.1724  Tot=              0.1756
 Quadrupole moment (field-independent basis, Debye-Ang):
   XX=            -23.1059   YY=            -23.3667   ZZ=            -29.2270
   XY=              0.3068   XZ=              0.1034   YZ=              0.0922

 1\1\GINC-NODE37\SP\RB2PLYPD3-FC\def2QZVP\C4H6\BOITTIER\26-Aug-2020\0\\
 #p B2PLYPD3/Def2QZVP\\butadiene\\0,1\C,0,-3.842871,0.218217,0.057254\C
 ,0,-2.726583,-0.491945,-0.003062\C,0,-1.384196,0.052793,-0.000478\C,0,
 -0.24851,-0.651746,0.057247\H,0,-4.87843,-0.184345,0.023974\H,0,-3.833
 125,1.331586,-0.003382\H,0,-2.808376,-1.545379,-0.033628\H,0,-1.360343
 ,1.13601,-0.165684\H,0,-0.196029,-1.73871,0.129888\H,0,0.683115,-0.147
 147,0.013333\\Version=ES64L-G09RevD.01\State=1-A\HF=-155.696554\MP2=-1
 55.9222988\RMSD=7.321e-09\PG=C01 [X(C4H6)]\\@

 Normal termination of Gaussian 09 at Wed Aug 26 09:40:54 2020.
