 Gaussian 09, Revision D.01,
 Gaussian 09:  ES64L-G09RevD.01 24-Apr-2013

 --------------------
 #p B2PLYPD3/Def2QZVP
 --------------------

 ---------
 butadiene
 ---------
 Symbolic Z-matrix:
 Charge =  0 Multiplicity = 1

                         Standard orientation:
 ---------------------------------------------------------------------
 Center     Atomic      Atomic             Coordinates (Angstroms)
 Number     Number       Type             X           Y           Z
 ---------------------------------------------------------------------
      1          6           0       -1.831048    0.109912    0.000001
      2          6           0       -0.599456   -0.401191   -0.013542
      3          6           0        0.597661    0.396300   -0.031859
      4          6           0        1.833898   -0.106747    0.012575
      5          1           0       -2.677449   -0.528376    0.058203
      6          1           0       -1.946826    1.196667    0.033229
      7          1           0       -0.494498   -1.467403    0.022283
      8          1           0        0.433615    1.472149    0.030046
      9          1           0        1.970160   -1.169941   -0.002195
     10          1           0        2.708666    0.507264    0.055388
 ---------------------------------------------------------------------

 SCF Done:  E(RB2PLYPD3) =  -155.700287777     A.U. after   11 cycles
 E2(B2PLYPD3) =    -0.2255388945D+00 E(B2PLYPD3) =    -0.15592582667151D+03

 The electronic state is 1-A.
 Alpha  occ. eigenvalues --  -10.62407 -10.62071 -10.61300 -10.61288  -0.93328
 Alpha  occ. eigenvalues --   -0.85036  -0.70377  -0.64198  -0.54920  -0.54075
 Alpha  occ. eigenvalues --   -0.46673  -0.45693  -0.41474  -0.38285  -0.27594
 Alpha virt. eigenvalues --    0.01694   0.07072   0.07414   0.08123   0.09684
 Alpha virt. eigenvalues --    0.11752   0.12518   0.14728   0.15828   0.16169
 Alpha virt. eigenvalues --    0.18711   0.20394   0.21618   0.23026   0.24059

 Mulliken charges:
               1
     1  C   -0.179625
     2  C   -0.024366
     3  C   -0.025937
     4  C   -0.178892
     5  H    0.089310
     6  H    0.062999
     7  H    0.051497
     8  H    0.050807
     9  H    0.065698
    10  H    0.088507
 Sum of Mulliken charges =   0.00000

 Dipole moment (field-independent basis, Debye):
    X=              0.0135    Y=             -0.0373    Z=              0.1505  Tot=              0.1557
 Quadrupole moment (field-independent basis, Debye-Ang):
   XX=            -23.5645   YY=            -23.0998   ZZ=            -29.1909
   XY=              0.0179   XZ=             -0.0676   YZ=              0.0596

 1\1\GINC-NODE22\SP\RB2PLYPD3-FC\def2QZVP\C4H6\BOITTIER\26-Aug-2020\0\\
 #p B2PLYPD3/Def2QZVP\\butadiene\\0,1\C,0,-3.833002,0.22489,0.02386\C,0
 ,-2.714354,-0.500957,0.024461\C,0,-1.392702,0.065874,-0.012359\C,0,-0.
 267831,-0.651461,0.046006\H,0,-4.780776,-0.247942,0.096985\H,0,-3.7499
 93,1.315128,0.029864\H,0,-2.80405,-1.567332,0.086965\H,0,-1.359041,1.1
 54839,0.02253\H,0,-0.326366,-1.721787,0.057891\H,0,0.703789,-0.205137,
 0.074502\\Version=ES64L-G09RevD.01\State=1-A\HF=-155.7002878\MP2=-155.
 9258267\RMSD=3.069e-09\PG=C01 [X(C4H6)]\\@

 Normal termination of Gaussian 09 at Wed Aug 26 21:39:28 2020.
