 Gaussian 09, Revision D.01,
 Gaussian 09:  ES64L-G09RevD.01 24-Apr-2013

 --------------------
 #p B2PLYPD3/Def2QZVP
 --------------------

 ---------
 butadiene
 ---------
 Symbolic Z-matrix:
 Charge =  0 Multiplicity = 1

                         Standard orientation:
 ---------------------------------------------------------------------
 Center     Atomic      Atomic             Coordinates (Angstroms)
 Number     Number       Type             X           Y           Z
 ---------------------------------------------------------------------
      1          6           0        1.822938   -0.128498    0.013704
      2          6           0        0.595258    0.432958   -0.056842
      3          6           0       -0.596147   -0.381042   -0.043530
      4          6           0       -1.830524    0.082122    0.038743
      5          1           0        2.668025    0.491830    0.151012
      6          1           0        2.002370   -1.199056    0.082217
      7          1           0        0.447905    1.508686   -0.028236
      8          1           0       -0.399835   -1.397662   -0.027508
      9          1           0       -2.008054    1.150463    0.076377
     10          1           0       -2.659566   -0.587501    0.033684
 ---------------------------------------------------------------------

 SCF Done:  E(RB2PLYPD3) =  -155.696989075     A.U. after   11 cycles
 E2(B2PLYPD3) =    -0.2254480932D+00 E(B2PLYPD3) =    -0.15592243716781D+03

 The electronic state is 1-A.
 Alpha  occ. eigenvalues --  -10.62659 -10.61580 -10.61428 -10.60974  -0.93356
 Alpha  occ. eigenvalues --   -0.84885  -0.70550  -0.64692  -0.54905  -0.53932
 Alpha  occ. eigenvalues --   -0.46861  -0.46040  -0.41371  -0.38210  -0.27506
 Alpha virt. eigenvalues --    0.01670   0.07046   0.07430   0.08259   0.09564
 Alpha virt. eigenvalues --    0.11810   0.12440   0.14925   0.15864   0.16094
 Alpha virt. eigenvalues --    0.18752   0.20315   0.21698   0.23338   0.23845

 Mulliken charges:
               1
     1  C   -0.176969
     2  C   -0.035659
     3  C   -0.022270
     4  C   -0.181162
     5  H    0.082267
     6  H    0.067155
     7  H    0.056585
     8  H    0.059140
     9  H    0.063878
    10  H    0.087036
 Sum of Mulliken charges =   0.00000

 Dipole moment (field-independent basis, Debye):
    X=              0.0393    Y=             -0.0230    Z=              0.1951  Tot=              0.2003
 Quadrupole moment (field-independent basis, Debye-Ang):
   XX=            -23.7495   YY=            -22.9737   ZZ=            -29.1394
   XY=             -0.2897   XZ=              0.3960   YZ=              0.0617

 1\1\GINC-NODE25\SP\RB2PLYPD3-FC\def2QZVP\C4H6\BOITTIER\26-Aug-2020\0\\
 #p B2PLYPD3/Def2QZVP\\butadiene\\0,1\C,0,-3.819524,0.252561,0.042155\C
 ,0,-2.718765,-0.530094,-0.014325\C,0,-1.396234,0.046993,-0.024452\C,0,
 -0.269604,-0.636322,0.069142\H,0,-4.764744,-0.195045,0.197205\H,0,-3.7
 95427,1.339228,0.081632\H,0,-2.774747,-1.61326,0.043454\H,0,-1.399115,
 1.08245,-0.035958\H,0,-0.294506,-1.717634,0.135714\H,0,0.669869,-0.133
 792,0.044964\\Version=ES64L-G09RevD.01\State=1-A\HF=-155.6969891\MP2=-
 155.9224372\RMSD=6.117e-09\PG=C01 [X(C4H6)]\\@

 Normal termination of Gaussian 09 at Wed Aug 26 08:56:34 2020.
