 Gaussian 09, Revision D.01,
 Gaussian 09:  ES64L-G09RevD.01 24-Apr-2013

 --------------------
 #p B2PLYPD3/Def2QZVP
 --------------------

 ---------
 butadiene
 ---------
 Symbolic Z-matrix:
 Charge =  0 Multiplicity = 1

                         Standard orientation:
 ---------------------------------------------------------------------
 Center     Atomic      Atomic             Coordinates (Angstroms)
 Number     Number       Type             X           Y           Z
 ---------------------------------------------------------------------
      1          6           0        1.845709    0.108697    0.020590
      2          6           0        0.618633   -0.402110   -0.032215
      3          6           0       -0.606330    0.396142   -0.028944
      4          6           0       -1.848084   -0.115326    0.006718
      5          1           0        2.713712   -0.497681    0.051954
      6          1           0        1.956123    1.202145    0.037644
      7          1           0        0.502488   -1.468249   -0.032386
      8          1           0       -0.498018    1.472544   -0.002743
      9          1           0       -2.034417   -1.184742    0.093648
     10          1           0       -2.699452    0.551569    0.054991
 ---------------------------------------------------------------------

 SCF Done:  E(RB2PLYPD3) =  -155.700258672     A.U. after   11 cycles
 E2(B2PLYPD3) =    -0.2256807815D+00 E(B2PLYPD3) =    -0.15592593945316D+03

 The electronic state is 1-A.
 Alpha  occ. eigenvalues --  -10.62692 -10.62350 -10.61700 -10.61387  -0.92839
 Alpha  occ. eigenvalues --   -0.84987  -0.70067  -0.64107  -0.54740  -0.53909
 Alpha  occ. eigenvalues --   -0.46713  -0.45557  -0.41259  -0.37983  -0.27734
 Alpha virt. eigenvalues --    0.01727   0.07005   0.07453   0.08076   0.09578
 Alpha virt. eigenvalues --    0.11681   0.12411   0.14639   0.15915   0.16142
 Alpha virt. eigenvalues --    0.18823   0.20557   0.21396   0.22766   0.23969

 Mulliken charges:
               1
     1  C   -0.174019
     2  C   -0.030096
     3  C   -0.033733
     4  C   -0.176150
     5  H    0.090827
     6  H    0.061407
     7  H    0.055178
     8  H    0.054430
     9  H    0.067941
    10  H    0.084215
 Sum of Mulliken charges =   0.00000

 Dipole moment (field-independent basis, Debye):
    X=              0.0232    Y=             -0.0211    Z=              0.1487  Tot=              0.1519
 Quadrupole moment (field-independent basis, Debye-Ang):
   XX=            -23.5202   YY=            -23.0669   ZZ=            -29.2792
   XY=             -0.0360   XZ=             -0.1485   YZ=             -0.0333

 1\1\GINC-NODE19\SP\RB2PLYPD3-FC\def2QZVP\C4H6\BOITTIER\26-Aug-2020\0\\
 #p B2PLYPD3/Def2QZVP\\butadiene\\0,1\C,0,-3.848164,0.219369,-0.003354\
 C,0,-2.730687,-0.499032,0.064271\C,0,-1.383771,0.06924,0.039072\C,0,-0
 .25237,-0.654862,0.01829\H,0,-4.80995,-0.22432,-0.018022\H,0,-3.76331,
 1.314186,-0.05116\H,0,-2.805143,-1.568465,0.094436\H,0,-1.299908,1.146
 662,-0.017397\H,0,-0.258726,-1.742365,-0.038492\H,0,0.703394,-0.150898
 ,-0.048354\\Version=ES64L-G09RevD.01\State=1-A\HF=-155.7002587\MP2=-15
 5.9259395\RMSD=4.729e-09\PG=C01 [X(C4H6)]\\@

 Normal termination of Gaussian 09 at Wed Aug 26 14:44:00 2020.
