 Gaussian 09, Revision D.01,
 Gaussian 09:  ES64L-G09RevD.01 24-Apr-2013

 --------------------
 #p B2PLYPD3/Def2QZVP
 --------------------

 ---------
 butadiene
 ---------
 Symbolic Z-matrix:
 Charge =  0 Multiplicity = 1

                         Standard orientation:
 ---------------------------------------------------------------------
 Center     Atomic      Atomic             Coordinates (Angstroms)
 Number     Number       Type             X           Y           Z
 ---------------------------------------------------------------------
      1          6           0       -1.819393   -0.130957    0.032460
      2          6           0       -0.591546    0.431643   -0.045677
      3          6           0        0.598679   -0.389165   -0.053979
      4          6           0        1.831140    0.100937    0.014719
      5          1           0       -2.662444    0.505265    0.123752
      6          1           0       -2.021366   -1.154100   -0.001154
      7          1           0       -0.452042    1.494161   -0.059041
      8          1           0        0.390583   -1.471854    0.027239
      9          1           0        1.958208    1.147735    0.118616
     10          1           0        2.673783   -0.595951    0.105452
 ---------------------------------------------------------------------

 SCF Done:  E(RB2PLYPD3) =  -155.695611138     A.U. after   11 cycles
 E2(B2PLYPD3) =    -0.2258545696D+00 E(B2PLYPD3) =    -0.15592146570714D+03

 The electronic state is 1-A.
 Alpha  occ. eigenvalues --  -10.62561 -10.62298 -10.61184 -10.61121  -0.93189
 Alpha  occ. eigenvalues --   -0.84852  -0.70494  -0.64374  -0.54554  -0.54140
 Alpha  occ. eigenvalues --   -0.46999  -0.45872  -0.41277  -0.38101  -0.27412
 Alpha virt. eigenvalues --    0.01652   0.07037   0.07396   0.08152   0.09360
 Alpha virt. eigenvalues --    0.11850   0.12446   0.14982   0.15575   0.16227
 Alpha virt. eigenvalues --    0.18630   0.20295   0.21764   0.23508   0.23845

 Mulliken charges:
               1
     1  C   -0.181202
     2  C   -0.037972
     3  C   -0.016631
     4  C   -0.182277
     5  H    0.079803
     6  H    0.074773
     7  H    0.058826
     8  H    0.050399
     9  H    0.068422
    10  H    0.085859
 Sum of Mulliken charges =   0.00000

 Dipole moment (field-independent basis, Debye):
    X=             -0.0936    Y=              0.0000    Z=              0.2194  Tot=              0.2385
 Quadrupole moment (field-independent basis, Debye-Ang):
   XX=            -23.9099   YY=            -22.9133   ZZ=            -29.1937
   XY=              0.3314   XZ=              0.2469   YZ=              0.0378

 1\1\GINC-NODE35\SP\RB2PLYPD3-FC\def2QZVP\C4H6\BOITTIER\26-Aug-2020\0\\
 #p B2PLYPD3/Def2QZVP\\butadiene\\0,1\C,0,-3.81802,0.249973,-0.017549\C
 ,0,-2.714753,-0.527078,0.078512\C,0,-1.393376,0.059482,0.060114\C,0,-0
 .273085,-0.651864,0.007075\H,0,-4.764619,-0.222064,-0.088113\H,0,-3.82
 7335,1.29336,-0.016955\H,0,-2.773816,-1.596109,0.126154\H,0,-1.398414,
 1.158851,-0.055986\H,0,-0.342184,-1.706873,-0.062989\H,0,0.683203,-0.1
 25933,-0.106249\\Version=ES64L-G09RevD.01\State=1-A\HF=-155.6956111\MP
 2=-155.9214657\RMSD=6.773e-09\PG=C01 [X(C4H6)]\\@

 Normal termination of Gaussian 09 at Wed Aug 26 10:03:05 2020.
