 Gaussian 09, Revision D.01,
 Gaussian 09:  ES64L-G09RevD.01 24-Apr-2013

 --------------------
 #p B2PLYPD3/Def2QZVP
 --------------------

 ---------
 butadiene
 ---------
 Symbolic Z-matrix:
 Charge =  0 Multiplicity = 1

                         Standard orientation:
 ---------------------------------------------------------------------
 Center     Atomic      Atomic             Coordinates (Angstroms)
 Number     Number       Type             X           Y           Z
 ---------------------------------------------------------------------
      1          6           0        1.808898    0.093863    0.048508
      2          6           0        0.589369   -0.406247   -0.097602
      3          6           0       -0.606297    0.438535   -0.058443
      4          6           0       -1.817799   -0.153739    0.088492
      5          1           0        2.722676   -0.498160    0.057909
      6          1           0        1.972930    1.162817    0.231113
      7          1           0        0.461272   -1.471668   -0.120880
      8          1           0       -0.423535    1.533948   -0.110991
      9          1           0       -1.967152   -1.147290    0.179337
     10          1           0       -2.611213    0.585879   -0.122212
 ---------------------------------------------------------------------

 SCF Done:  E(RB2PLYPD3) =  -155.685604895     A.U. after   12 cycles
 E2(B2PLYPD3) =    -0.2265034464D+00 E(B2PLYPD3) =    -0.15591210834137D+03

 The electronic state is 1-A.
 Alpha  occ. eigenvalues --  -10.63184 -10.62099 -10.61418 -10.61173  -0.92945
 Alpha  occ. eigenvalues --   -0.84750  -0.69803  -0.64502  -0.54799  -0.53753
 Alpha  occ. eigenvalues --   -0.47167  -0.45275  -0.40984  -0.37458  -0.27474
 Alpha virt. eigenvalues --    0.01647   0.06989   0.07368   0.07967   0.09215
 Alpha virt. eigenvalues --    0.11874   0.12323   0.15012   0.15654   0.16020
 Alpha virt. eigenvalues --    0.18857   0.20112   0.21397   0.22476   0.23930

 Mulliken charges:
               1
     1  C   -0.167944
     2  C   -0.034250
     3  C   -0.032861
     4  C   -0.183733
     5  H    0.080349
     6  H    0.055263
     7  H    0.059417
     8  H    0.064360
     9  H    0.082220
    10  H    0.077178
 Sum of Mulliken charges =   0.00000

 Dipole moment (field-independent basis, Debye):
    X=              0.1018    Y=             -0.0420    Z=              0.0032  Tot=              0.1102
 Quadrupole moment (field-independent basis, Debye-Ang):
   XX=            -24.3636   YY=            -22.7773   ZZ=            -29.2087
   XY=              0.3765   XZ=              0.6244   YZ=             -0.1420

 1\1\GINC-NODE09\SP\RB2PLYPD3-FC\def2QZVP\C4H6\BOITTIER\26-Aug-2020\0\\
 #p B2PLYPD3/Def2QZVP\\butadiene\\0,1\C,0,-3.81609,0.209386,-0.039685\C
 ,0,-2.708673,-0.501465,0.124712\C,0,-1.378918,0.110382,0.077769\C,0,-0
 .295175,-0.695546,-0.049097\H,0,-4.822438,-0.206323,-0.044163\H,0,-3.7
 81882,1.286412,-0.244036\H,0,-2.777016,-1.571699,0.169445\H,0,-1.35912
 1,1.221595,0.107878\H,0,-0.329121,-1.701313,-0.119698\H,0,0.619031,-0.
 108736,0.152938\\Version=ES64L-G09RevD.01\State=1-A\HF=-155.6856049\MP
 2=-155.9121083\RMSD=4.200e-09\PG=C01 [X(C4H6)]\\@

 Normal termination of Gaussian 09 at Wed Aug 26 15:43:16 2020.
