 Gaussian 09, Revision D.01,
 Gaussian 09:  ES64L-G09RevD.01 24-Apr-2013

 --------------------
 #p B2PLYPD3/Def2QZVP
 --------------------

 ---------
 butadiene
 ---------
 Symbolic Z-matrix:
 Charge =  0 Multiplicity = 1

                         Standard orientation:
 ---------------------------------------------------------------------
 Center     Atomic      Atomic             Coordinates (Angstroms)
 Number     Number       Type             X           Y           Z
 ---------------------------------------------------------------------
      1          6           0       -1.865810    0.075333   -0.054609
      2          6           0       -0.605032   -0.343056    0.012048
      3          6           0        0.623802    0.451278    0.051320
      4          6           0        1.851937   -0.178042   -0.034570
      5          1           0       -2.642921   -0.623771   -0.095006
      6          1           0       -2.142398    1.063646    0.176467
      7          1           0       -0.448419   -1.385850    0.135602
      8          1           0        0.498908    1.520731   -0.010109
      9          1           0        2.049642   -1.239899    0.073263
     10          1           0        2.655805    0.632065   -0.125348
 ---------------------------------------------------------------------

 SCF Done:  E(RB2PLYPD3) =  -155.681193846     A.U. after   12 cycles
 E2(B2PLYPD3) =    -0.2272289398D+00 E(B2PLYPD3) =    -0.15590842278552D+03

 The electronic state is 1-A.
 Alpha  occ. eigenvalues --  -10.63418 -10.63252 -10.62017 -10.60441  -0.92549
 Alpha  occ. eigenvalues --   -0.84608  -0.70305  -0.64408  -0.54409  -0.53710
 Alpha  occ. eigenvalues --   -0.47735  -0.44997  -0.41155  -0.37163  -0.27268
 Alpha virt. eigenvalues --    0.01033   0.06853   0.07482   0.08004   0.09067
 Alpha virt. eigenvalues --    0.11714   0.12168   0.15186   0.15274   0.16223
 Alpha virt. eigenvalues --    0.18655   0.19767   0.21377   0.23485   0.24046

 Mulliken charges:
               1
     1  C   -0.182835
     2  C   -0.018553
     3  C   -0.054881
     4  C   -0.174863
     5  H    0.079434
     6  H    0.065533
     7  H    0.053068
     8  H    0.066410
     9  H    0.092119
    10  H    0.074568
 Sum of Mulliken charges =   0.00000

 Dipole moment (field-independent basis, Debye):
    X=              0.0489    Y=             -0.0344    Z=              0.2199  Tot=              0.2279
 Quadrupole moment (field-independent basis, Debye-Ang):
   XX=            -24.1966   YY=            -22.7928   ZZ=            -29.3375
   XY=             -0.3367   XZ=             -0.4343   YZ=             -0.1096

 1\1\GINC-NODE27\SP\RB2PLYPD3-FC\def2QZVP\C4H6\BOITTIER\26-Aug-2020\0\\
 #p B2PLYPD3/Def2QZVP\\butadiene\\0,1\C,0,-3.875783,0.192903,-0.026403\
 C,0,-2.710165,-0.44286,0.052289\C,0,-1.358403,0.118538,0.062972\C,0,-0
 .263927,-0.723732,-0.003669\H,0,-4.766086,-0.35609,-0.04211\H,0,-3.968
 644,1.221857,0.171815\H,0,-2.742427,-1.49221,0.210516\H,0,-1.289681,1.
 190431,-0.034109\H,0,-0.259309,-1.799724,0.139422\H,0,0.671638,-0.0747
 05,-0.122829\\Version=ES64L-G09RevD.01\State=1-A\HF=-155.6811938\MP2=-
 155.9084228\RMSD=3.419e-09\PG=C01 [X(C4H6)]\\@

 Normal termination of Gaussian 09 at Wed Aug 26 12:02:34 2020.
