 Gaussian 09, Revision D.01,
 Gaussian 09:  ES64L-G09RevD.01 24-Apr-2013

 --------------------
 #p B2PLYPD3/Def2QZVP
 --------------------

 ---------
 butadiene
 ---------
 Symbolic Z-matrix:
 Charge =  0 Multiplicity = 1

                         Standard orientation:
 ---------------------------------------------------------------------
 Center     Atomic      Atomic             Coordinates (Angstroms)
 Number     Number       Type             X           Y           Z
 ---------------------------------------------------------------------
      1          6           0       -1.859879    0.088786    0.081848
      2          6           0       -0.620990   -0.380154   -0.117444
      3          6           0        0.592135    0.401706   -0.025202
      4          6           0        1.847520   -0.119672    0.066400
      5          1           0       -2.760715   -0.499980   -0.055698
      6          1           0       -2.094216    1.112365    0.227467
      7          1           0       -0.338704   -1.408297   -0.117557
      8          1           0        0.551566    1.465623   -0.232708
      9          1           0        2.073843   -1.166967    0.225896
     10          1           0        2.815514    0.553256   -0.081009
 ---------------------------------------------------------------------

 SCF Done:  E(RB2PLYPD3) =  -155.682443834     A.U. after   11 cycles
 E2(B2PLYPD3) =    -0.2273624338D+00 E(B2PLYPD3) =    -0.15590980626792D+03

 The electronic state is 1-A.
 Alpha  occ. eigenvalues --  -10.63123 -10.62841 -10.62737 -10.61828  -0.92891
 Alpha  occ. eigenvalues --   -0.84314  -0.70634  -0.64287  -0.54515  -0.53478
 Alpha  occ. eigenvalues --   -0.46905  -0.45236  -0.40427  -0.37619  -0.27552
 Alpha virt. eigenvalues --    0.00813   0.06872   0.07473   0.07863   0.09400
 Alpha virt. eigenvalues --    0.11474   0.12368   0.14744   0.15236   0.16430
 Alpha virt. eigenvalues --    0.19057   0.19624   0.21620   0.22243   0.23127

 Mulliken charges:
               1
     1  C   -0.153936
     2  C   -0.052949
     3  C   -0.024363
     4  C   -0.183481
     5  H    0.080183
     6  H    0.067688
     7  H    0.064960
     8  H    0.065792
     9  H    0.065710
    10  H    0.070396
 Sum of Mulliken charges =   0.00000

 Dipole moment (field-independent basis, Debye):
    X=             -0.0687    Y=             -0.0096    Z=             -0.1067  Tot=              0.1273
 Quadrupole moment (field-independent basis, Debye-Ang):
   XX=            -23.1018   YY=            -23.6071   ZZ=            -29.2654
   XY=             -0.6402   XZ=             -0.2304   YZ=             -0.2186

 1\1\GINC-NODE09\SP\RB2PLYPD3-FC\def2QZVP\C4H6\BOITTIER\26-Aug-2020\0\\
 #p B2PLYPD3/Def2QZVP\\butadiene\\0,1\C,0,-3.85906,0.216003,0.099183\C,
 0,-2.728182,-0.480826,-0.074057\C,0,-1.392195,0.070655,-0.024113\C,0,-
 0.25183,-0.665121,0.095963\H,0,-4.853285,-0.20523,-0.006408\H,0,-3.901
 792,1.27144,0.188956\H,0,-2.637729,-1.541708,-0.018279\H,0,-1.240474,1
 .111516,-0.289088\H,0,-0.218346,-1.72608,0.312141\H,0,0.820992,-0.1887
 23,-0.087534\\Version=ES64L-G09RevD.01\State=1-A\HF=-155.6824438\MP2=-
 155.9098063\RMSD=9.160e-09\PG=C01 [X(C4H6)]\\@

 Normal termination of Gaussian 09 at Wed Aug 26 15:11:30 2020.
