 Gaussian 09, Revision D.01,
 Gaussian 09:  ES64L-G09RevD.01 24-Apr-2013

 --------------------
 #p B2PLYPD3/Def2QZVP
 --------------------

 ---------
 butadiene
 ---------
 Symbolic Z-matrix:
 Charge =  0 Multiplicity = 1

                         Standard orientation:
 ---------------------------------------------------------------------
 Center     Atomic      Atomic             Coordinates (Angstroms)
 Number     Number       Type             X           Y           Z
 ---------------------------------------------------------------------
      1          6           0       -1.848035    0.095406    0.051833
      2          6           0       -0.609645   -0.376454   -0.041019
      3          6           0        0.623439    0.414670   -0.031766
      4          6           0        1.842680   -0.124426    0.022943
      5          1           0       -2.716161   -0.520221   -0.109394
      6          1           0       -1.978834    1.135772    0.105698
      7          1           0       -0.474451   -1.426352   -0.030847
      8          1           0        0.472281    1.480237   -0.089637
      9          1           0        1.953472   -1.237832    0.098243
     10          1           0        2.693061    0.513222    0.013985
 ---------------------------------------------------------------------

 SCF Done:  E(RB2PLYPD3) =  -155.696573784     A.U. after   11 cycles
 E2(B2PLYPD3) =    -0.2254151843D+00 E(B2PLYPD3) =    -0.15592198896835D+03

 The electronic state is 1-A.
 Alpha  occ. eigenvalues --  -10.62535 -10.62012 -10.61876 -10.60878  -0.93002
 Alpha  occ. eigenvalues --   -0.85216  -0.70206  -0.64346  -0.54737  -0.53992
 Alpha  occ. eigenvalues --   -0.47038  -0.45846  -0.41103  -0.37891  -0.27872
 Alpha virt. eigenvalues --    0.01716   0.07010   0.07489   0.08153   0.09645
 Alpha virt. eigenvalues --    0.11764   0.12457   0.14681   0.15584   0.16274
 Alpha virt. eigenvalues --    0.18892   0.19740   0.21853   0.22803   0.24051

 Mulliken charges:
               1
     1  C   -0.175726
     2  C   -0.022767
     3  C   -0.040580
     4  C   -0.175803
     5  H    0.086942
     6  H    0.059581
     7  H    0.054489
     8  H    0.054043
     9  H    0.067936
    10  H    0.091886
 Sum of Mulliken charges =   0.00000

 Dipole moment (field-independent basis, Debye):
    X=              0.0472    Y=              0.0324    Z=             -0.0623  Tot=              0.0846
 Quadrupole moment (field-independent basis, Debye-Ang):
   XX=            -23.5562   YY=            -23.1418   ZZ=            -29.1658
   XY=             -0.0060   XZ=              0.3423   YZ=             -0.0005

 1\1\GINC-NODE20\SP\RB2PLYPD3-FC\def2QZVP\C4H6\BOITTIER\26-Aug-2020\0\\
 #p B2PLYPD3/Def2QZVP\\butadiene\\0,1\C,0,-3.855295,0.207561,0.064455\C
 ,0,-2.720377,-0.479356,-0.006181\C,0,-1.36655,0.080488,-0.019815\C,0,-
 0.262092,-0.663874,0.059329\H,0,-4.819148,-0.249815,-0.078469\H,0,-3.7
 99459,1.255889,0.080642\H,0,-2.773445,-1.535542,0.041987\H,0,-1.326515
 ,1.153205,-0.116278\H,0,-0.350299,-1.775862,0.174741\H,0,0.687848,-0.1
 87794,0.031316\\Version=ES64L-G09RevD.01\State=1-A\HF=-155.6965738\MP2
 =-155.921989\RMSD=4.432e-09\PG=C01 [X(C4H6)]\\@

 Normal termination of Gaussian 09 at Wed Aug 26 08:59:54 2020.
