 Gaussian 09, Revision D.01,
 Gaussian 09:  ES64L-G09RevD.01 24-Apr-2013

 --------------------
 #p B2PLYPD3/Def2QZVP
 --------------------

 ---------
 butadiene
 ---------
 Symbolic Z-matrix:
 Charge =  0 Multiplicity = 1

                         Standard orientation:
 ---------------------------------------------------------------------
 Center     Atomic      Atomic             Coordinates (Angstroms)
 Number     Number       Type             X           Y           Z
 ---------------------------------------------------------------------
      1          6           0       -1.866554   -0.102435   -0.008069
      2          6           0       -0.612484    0.372979    0.006778
      3          6           0        0.630723   -0.432665   -0.065779
      4          6           0        1.888051    0.125122    0.033236
      5          1           0       -2.671157    0.625369   -0.052817
      6          1           0       -2.155322   -1.125310    0.270968
      7          1           0       -0.451647    1.471236   -0.106828
      8          1           0        0.420927   -1.452188   -0.039262
      9          1           0        1.912574    1.181888    0.171587
     10          1           0        2.706207   -0.478998   -0.040647
 ---------------------------------------------------------------------

 SCF Done:  E(RB2PLYPD3) =  -155.685180639     A.U. after   11 cycles
 E2(B2PLYPD3) =    -0.2270399369D+00 E(B2PLYPD3) =    -0.15591222057591D+03

 The electronic state is 1-A.
 Alpha  occ. eigenvalues --  -10.63121 -10.62928 -10.61856 -10.61658  -0.92229
 Alpha  occ. eigenvalues --   -0.84667  -0.70820  -0.64006  -0.55188  -0.53118
 Alpha  occ. eigenvalues --   -0.47028  -0.46499  -0.40831  -0.37215  -0.27439
 Alpha virt. eigenvalues --    0.00952   0.06986   0.07475   0.08151   0.09034
 Alpha virt. eigenvalues --    0.11697   0.12244   0.14929   0.15532   0.16130
 Alpha virt. eigenvalues --    0.18746   0.19670   0.21667   0.22615   0.24206

 Mulliken charges:
               1
     1  C   -0.179849
     2  C   -0.029028
     3  C   -0.046833
     4  C   -0.179434
     5  H    0.078136
     6  H    0.070373
     7  H    0.048016
     8  H    0.064608
     9  H    0.074658
    10  H    0.099353
 Sum of Mulliken charges =   0.00000

 Dipole moment (field-independent basis, Debye):
    X=              0.0377    Y=             -0.0357    Z=              0.1774  Tot=              0.1848
 Quadrupole moment (field-independent basis, Debye-Ang):
   XX=            -23.6014   YY=            -23.1894   ZZ=            -29.3088
   XY=              0.1837   XZ=             -0.1909   YZ=             -0.2121

 1\1\GINC-NODE24\SP\RB2PLYPD3-FC\def2QZVP\C4H6\BOITTIER\26-Aug-2020\0\\
 #p B2PLYPD3/Def2QZVP\\butadiene\\0,1\C,0,-3.875277,0.218029,0.017609\C
 ,0,-2.727035,-0.475035,0.029141\C,0,-1.359087,0.096687,0.070856\C,0,-0
 .222764,-0.681665,0.001989\H,0,-4.797315,-0.35073,0.091423\H,0,-3.9767
 65,1.262658,-0.307924\H,0,-2.765588,-1.578147,0.192239\H,0,-1.382493,1
 .135099,-0.001934\H,0,-0.388956,-1.730756,-0.089029\H,0,0.690863,-0.23
 16,0.052255\\Version=ES64L-G09RevD.01\State=1-A\HF=-155.6851806\MP2=-1
 55.9122206\RMSD=8.278e-09\PG=C01 [X(C4H6)]\\@

 Normal termination of Gaussian 09 at Wed Aug 26 14:38:11 2020.
