 Gaussian 09, Revision D.01,
 Gaussian 09:  ES64L-G09RevD.01 24-Apr-2013

 --------------------
 #p B2PLYPD3/Def2QZVP
 --------------------

 ---------
 butadiene
 ---------
 Symbolic Z-matrix:
 Charge =  0 Multiplicity = 1

                         Standard orientation:
 ---------------------------------------------------------------------
 Center     Atomic      Atomic             Coordinates (Angstroms)
 Number     Number       Type             X           Y           Z
 ---------------------------------------------------------------------
      1          6           0        1.832970    0.093555    0.018431
      2          6           0        0.598143   -0.393292   -0.010776
      3          6           0       -0.594082    0.410554   -0.027325
      4          6           0       -1.824302   -0.113364    0.006860
      5          1           0        2.693082   -0.521623   -0.020325
      6          1           0        2.016191    1.160606    0.047617
      7          1           0        0.397751   -1.457148   -0.052758
      8          1           0       -0.477570    1.506918    0.001367
      9          1           0       -1.991994   -1.189401    0.094228
     10          1           0       -2.713835    0.515932    0.006733
 ---------------------------------------------------------------------

 SCF Done:  E(RB2PLYPD3) =  -155.700021628     A.U. after   11 cycles
 E2(B2PLYPD3) =    -0.2256968647D+00 E(B2PLYPD3) =    -0.15592571849282D+03

 The electronic state is 1-A.
 Alpha  occ. eigenvalues --  -10.62554 -10.62268 -10.61733 -10.61162  -0.93291
 Alpha  occ. eigenvalues --   -0.84889  -0.70398  -0.63949  -0.54958  -0.53743
 Alpha  occ. eigenvalues --   -0.46822  -0.45467  -0.41092  -0.38343  -0.27616
 Alpha virt. eigenvalues --    0.01693   0.07045   0.07325   0.08099   0.09659
 Alpha virt. eigenvalues --    0.11702   0.12475   0.14789   0.15782   0.16201
 Alpha virt. eigenvalues --    0.18748   0.20478   0.21802   0.22853   0.23648

 Mulliken charges:
               1
     1  C   -0.175718
     2  C   -0.027065
     3  C   -0.024587
     4  C   -0.176969
     5  H    0.087436
     6  H    0.063942
     7  H    0.053445
     8  H    0.051905
     9  H    0.063437
    10  H    0.084174
 Sum of Mulliken charges =   0.00000

 Dipole moment (field-independent basis, Debye):
    X=             -0.0059    Y=              0.0032    Z=              0.0473  Tot=              0.0478
 Quadrupole moment (field-independent basis, Debye-Ang):
   XX=            -23.4288   YY=            -23.1682   ZZ=            -29.2222
   XY=              0.2460   XZ=             -0.2210   YZ=              0.0325

 1\1\GINC-NODE21\SP\RB2PLYPD3-FC\def2QZVP\C4H6\BOITTIER\26-Aug-2020\0\\
 #p B2PLYPD3/Def2QZVP\\butadiene\\0,1\C,0,-3.834865,0.215525,0.001795\C
 ,0,-2.711185,-0.490178,0.046509\C,0,-1.390829,0.079411,0.038161\C,0,-0
 .278883,-0.663806,0.020674\H,0,-4.793651,-0.228465,0.059591\H,0,-3.817
 818,1.296639,-0.060819\H,0,-2.710696,-1.570935,0.121817\H,0,-1.302802,
 1.176995,-0.024862\H,0,-0.313501,-1.754465,-0.032931\H,0,0.711644,-0.2
 10192,0.001306\\Version=ES64L-G09RevD.01\State=1-A\HF=-155.7000216\MP2
 =-155.9257185\RMSD=3.959e-09\PG=C01 [X(C4H6)]\\@

 Normal termination of Gaussian 09 at Wed Aug 26 21:57:35 2020.
