 Gaussian 09, Revision D.01,
 Gaussian 09:  ES64L-G09RevD.01 24-Apr-2013

 --------------------
 #p B2PLYPD3/Def2QZVP
 --------------------

 ---------
 butadiene
 ---------
 Symbolic Z-matrix:
 Charge =  0 Multiplicity = 1

                         Standard orientation:
 ---------------------------------------------------------------------
 Center     Atomic      Atomic             Coordinates (Angstroms)
 Number     Number       Type             X           Y           Z
 ---------------------------------------------------------------------
      1          6           0       -1.831260   -0.128466    0.019554
      2          6           0       -0.594378    0.459207   -0.101574
      3          6           0        0.602865   -0.386801   -0.045093
      4          6           0        1.823180    0.091091    0.051584
      5          1           0       -2.883556    0.332044    0.308158
      6          1           0       -1.874928   -1.225848    0.078516
      7          1           0       -0.520581    1.542429    0.020250
      8          1           0        0.574144   -1.501788   -0.177843
      9          1           0        2.042773    1.227064   -0.006301
     10          1           0        2.659712   -0.584092    0.230388
 ---------------------------------------------------------------------

 SCF Done:  E(RB2PLYPD3) =  -155.675455706     A.U. after   11 cycles
 E2(B2PLYPD3) =    -0.2282978974D+00 E(B2PLYPD3) =    -0.15590375360298D+03

 The electronic state is 1-A.
 Alpha  occ. eigenvalues --  -10.63865 -10.63428 -10.62951 -10.61887  -0.92751
 Alpha  occ. eigenvalues --   -0.84340  -0.68732  -0.63376  -0.54087  -0.52986
 Alpha  occ. eigenvalues --   -0.46093  -0.43649  -0.41204  -0.37795  -0.27503
 Alpha virt. eigenvalues --    0.01529   0.06915   0.07161   0.07572   0.08810
 Alpha virt. eigenvalues --    0.11310   0.12534   0.13741   0.15354   0.16762
 Alpha virt. eigenvalues --    0.18782   0.19579   0.21620   0.22491   0.23848

 Mulliken charges:
               1
     1  C   -0.157385
     2  C   -0.048941
     3  C   -0.023899
     4  C   -0.172275
     5  H    0.075016
     6  H    0.055801
     7  H    0.071615
     8  H    0.058079
     9  H    0.058722
    10  H    0.083267
 Sum of Mulliken charges =   0.00000

 Dipole moment (field-independent basis, Debye):
    X=              0.0137    Y=             -0.0745    Z=              0.3005  Tot=              0.3099
 Quadrupole moment (field-independent basis, Debye-Ang):
   XX=            -23.8150   YY=            -23.2421   ZZ=            -29.4357
   XY=             -0.0385   XZ=             -0.6483   YZ=              0.1243

 1\1\GINC-NODE12\SP\RB2PLYPD3-FC\def2QZVP\C4H6\BOITTIER\26-Aug-2020\0\\
 #p B2PLYPD3/Def2QZVP\\butadiene\\0,1\C,0,-3.831615,0.235664,-0.020988\
 C,0,-2.717721,-0.556382,0.126704\C,0,-1.390167,0.063855,0.054473\C,0,-
 0.272766,-0.623843,-0.018889\H,0,-4.947861,-0.041176,-0.303905\H,0,-3.
 681368,1.321337,-0.112474\H,0,-2.835403,-1.638885,0.037299\H,0,-1.2225
 47,1.17002,0.154207\H,0,-0.256621,-1.778451,0.073986\H,0,0.669927,-0.1
 11971,-0.211101\\Version=ES64L-G09RevD.01\State=1-A\HF=-155.6754557\MP
 2=-155.9037536\RMSD=9.963e-09\PG=C01 [X(C4H6)]\\@

 Normal termination of Gaussian 09 at Wed Aug 26 11:43:11 2020.
