 Gaussian 09, Revision D.01,
 Gaussian 09:  ES64L-G09RevD.01 24-Apr-2013

 --------------------
 #p B2PLYPD3/Def2QZVP
 --------------------

 ---------
 butadiene
 ---------
 Symbolic Z-matrix:
 Charge =  0 Multiplicity = 1

                         Standard orientation:
 ---------------------------------------------------------------------
 Center     Atomic      Atomic             Coordinates (Angstroms)
 Number     Number       Type             X           Y           Z
 ---------------------------------------------------------------------
      1          6           0        1.841587   -0.124803   -0.017090
      2          6           0        0.605041    0.402292    0.011302
      3          6           0       -0.613915   -0.378624    0.010887
      4          6           0       -1.840123    0.098423   -0.026511
      5          1           0        2.707579    0.535497    0.030086
      6          1           0        2.004350   -1.176414   -0.067993
      7          1           0        0.475418    1.488243    0.049576
      8          1           0       -0.457431   -1.462815    0.108900
      9          1           0       -1.986539    1.189023   -0.003359
     10          1           0       -2.698918   -0.557265    0.011261
 ---------------------------------------------------------------------

 SCF Done:  E(RB2PLYPD3) =  -155.699503607     A.U. after   11 cycles
 E2(B2PLYPD3) =    -0.2257051673D+00 E(B2PLYPD3) =    -0.15592520877380D+03

 The electronic state is 1-A.
 Alpha  occ. eigenvalues --  -10.62692 -10.62235 -10.61647 -10.61433  -0.93121
 Alpha  occ. eigenvalues --   -0.85078  -0.70188  -0.63703  -0.54563  -0.53929
 Alpha  occ. eigenvalues --   -0.46812  -0.45677  -0.40850  -0.38142  -0.27821
 Alpha virt. eigenvalues --    0.01721   0.07007   0.07355   0.08006   0.09790
 Alpha virt. eigenvalues --    0.11724   0.12332   0.14747   0.15719   0.16077
 Alpha virt. eigenvalues --    0.18763   0.20420   0.21467   0.22707   0.23945

 Mulliken charges:
               1
     1  C   -0.180052
     2  C   -0.031013
     3  C   -0.020128
     4  C   -0.176275
     5  H    0.086452
     6  H    0.071695
     7  H    0.050102
     8  H    0.046941
     9  H    0.062251
    10  H    0.090029
 Sum of Mulliken charges =   0.00000

 Dipole moment (field-independent basis, Debye):
    X=              0.0143    Y=             -0.0188    Z=              0.1266  Tot=              0.1288
 Quadrupole moment (field-independent basis, Debye-Ang):
   XX=            -23.5600   YY=            -23.1423   ZZ=            -29.2469
   XY=             -0.0785   XZ=             -0.1157   YZ=              0.0333

 1\1\GINC-NODE40\SP\RB2PLYPD3-FC\def2QZVP\C4H6\BOITTIER\26-Aug-2020\0\\
 #p B2PLYPD3/Def2QZVP\\butadiene\\0,1\C,0,-3.842531,0.236506,0.001796\C
 ,0,-2.720236,-0.502309,0.049648\C,0,-1.381186,0.047408,0.028694\C,0,-0
 .260288,-0.64235,0.009229\H,0,-4.812598,-0.256355,0.066766\H,0,-3.8145
 61,1.298213,-0.081656\H,0,-2.786993,-1.592238,0.121436\H,0,-1.340791,1
 .144579,0.093109\H,0,-0.311397,-1.740319,0.06609\H,0,0.70211,-0.15014,
 0.029289\\Version=ES64L-G09RevD.01\State=1-A\HF=-155.6995036\MP2=-155.
 9252088\RMSD=6.271e-09\PG=C01 [X(C4H6)]\\@

 Normal termination of Gaussian 09 at Wed Aug 26 19:55:42 2020.
