 Gaussian 09, Revision D.01,
 Gaussian 09:  ES64L-G09RevD.01 24-Apr-2013

 --------------------
 #p B2PLYPD3/Def2QZVP
 --------------------

 ---------
 butadiene
 ---------
 Symbolic Z-matrix:
 Charge =  0 Multiplicity = 1

                         Standard orientation:
 ---------------------------------------------------------------------
 Center     Atomic      Atomic             Coordinates (Angstroms)
 Number     Number       Type             X           Y           Z
 ---------------------------------------------------------------------
      1          6           0       -1.844996    0.094301    0.010158
      2          6           0       -0.613278   -0.372819   -0.025861
      3          6           0        0.611221    0.404399   -0.000615
      4          6           0        1.840984   -0.121973   -0.004367
      5          1           0       -2.669221   -0.549311    0.039588
      6          1           0       -2.006732    1.161867   -0.010165
      7          1           0       -0.469130   -1.451335    0.026089
      8          1           0        0.474307    1.492997    0.003135
      9          1           0        1.999866   -1.197634    0.018978
     10          1           0        2.707323    0.519969    0.046484
 ---------------------------------------------------------------------

 SCF Done:  E(RB2PLYPD3) =  -155.700091741     A.U. after   11 cycles
 E2(B2PLYPD3) =    -0.2252894197D+00 E(B2PLYPD3) =    -0.15592538116117D+03

 The electronic state is 1-A.
 Alpha  occ. eigenvalues --  -10.62675 -10.62102 -10.61693 -10.60836  -0.93129
 Alpha  occ. eigenvalues --   -0.85287  -0.70442  -0.63767  -0.54988  -0.54010
 Alpha  occ. eigenvalues --   -0.47105  -0.45642  -0.40801  -0.38258  -0.27887
 Alpha virt. eigenvalues --    0.01782   0.07034   0.07406   0.08099   0.09845
 Alpha virt. eigenvalues --    0.11708   0.12403   0.14790   0.15762   0.16170
 Alpha virt. eigenvalues --    0.18798   0.20339   0.21739   0.22767   0.23953

 Mulliken charges:
               1
     1  C   -0.180257
     2  C   -0.015881
     3  C   -0.034031
     4  C   -0.175080
     5  H    0.091846
     6  H    0.062796
     7  H    0.045781
     8  H    0.049355
     9  H    0.068132
    10  H    0.087340
 Sum of Mulliken charges =   0.00000

 Dipole moment (field-independent basis, Debye):
    X=              0.0045    Y=             -0.0092    Z=              0.0949  Tot=              0.0954
 Quadrupole moment (field-independent basis, Debye-Ang):
   XX=            -23.4244   YY=            -23.1556   ZZ=            -29.1838
   XY=             -0.0747   XZ=              0.0545   YZ=             -0.0757

 1\1\GINC-NODE09\SP\RB2PLYPD3-FC\def2QZVP\C4H6\BOITTIER\26-Aug-2020\0\\
 #p B2PLYPD3/Def2QZVP\\butadiene\\0,1\C,0,-3.849692,0.209059,0.029447\C
 ,0,-2.721971,-0.472566,0.013342\C,0,-1.377768,0.072615,0.013564\C,0,-0
 .262474,-0.665751,0.031837\H,0,-4.775923,-0.274662,0.080035\H,0,-3.817
 275,1.286886,-0.029766\H,0,-2.773528,-1.556865,0.104512\H,0,-1.31706,1
 .167528,-0.022289\H,0,-0.29914,-1.750915,0.094354\H,0,0.705212,-0.1883
 47,0.061642\\Version=ES64L-G09RevD.01\State=1-A\HF=-155.7000917\MP2=-1
 55.9253812\RMSD=5.505e-09\PG=C01 [X(C4H6)]\\@

 Normal termination of Gaussian 09 at Wed Aug 26 19:43:02 2020.
