 Gaussian 09, Revision D.01,
 Gaussian 09:  ES64L-G09RevD.01 24-Apr-2013

 --------------------
 #p B2PLYPD3/Def2QZVP
 --------------------

 ---------
 butadiene
 ---------
 Symbolic Z-matrix:
 Charge =  0 Multiplicity = 1

                         Standard orientation:
 ---------------------------------------------------------------------
 Center     Atomic      Atomic             Coordinates (Angstroms)
 Number     Number       Type             X           Y           Z
 ---------------------------------------------------------------------
      1          6           0       -1.832100   -0.141488    0.102168
      2          6           0       -0.622209    0.439440   -0.077258
      3          6           0        0.624797   -0.327559   -0.088004
      4          6           0        1.864844    0.064992    0.060580
      5          1           0       -2.795319    0.378215    0.058359
      6          1           0       -1.955282   -1.274430   -0.005843
      7          1           0       -0.643160    1.521777   -0.078958
      8          1           0        0.410719   -1.392218   -0.210274
      9          1           0        2.028007    1.144964    0.023312
     10          1           0        2.743041   -0.590625    0.228488
 ---------------------------------------------------------------------

 SCF Done:  E(RB2PLYPD3) =  -155.687257970     A.U. after   12 cycles
 E2(B2PLYPD3) =    -0.2267132297D+00 E(B2PLYPD3) =    -0.15591397119977D+03

 The electronic state is 1-A.
 Alpha  occ. eigenvalues --  -10.63290 -10.62718 -10.62536 -10.61707  -0.92902
 Alpha  occ. eigenvalues --   -0.85037  -0.69788  -0.63688  -0.54647  -0.53375
 Alpha  occ. eigenvalues --   -0.47459  -0.44113  -0.40886  -0.37512  -0.28042
 Alpha virt. eigenvalues --    0.01443   0.06928   0.07412   0.07865   0.09619
 Alpha virt. eigenvalues --    0.11498   0.12449   0.14250   0.15676   0.16641
 Alpha virt. eigenvalues --    0.18973   0.19281   0.21702   0.22485   0.23484

 Mulliken charges:
               1
     1  C   -0.154054
     2  C   -0.046877
     3  C   -0.017697
     4  C   -0.174531
     5  H    0.079683
     6  H    0.047851
     7  H    0.057672
     8  H    0.050613
     9  H    0.062916
    10  H    0.094425
 Sum of Mulliken charges =   0.00000

 Dipole moment (field-independent basis, Debye):
    X=             -0.0450    Y=              0.0389    Z=             -0.0972  Tot=              0.1140
 Quadrupole moment (field-independent basis, Debye-Ang):
   XX=            -23.0882   YY=            -23.5835   ZZ=            -29.2733
   XY=             -0.1763   XZ=              0.5555   YZ=              0.0192

 1\1\GINC-NODE34\SP\RB2PLYPD3-FC\def2QZVP\C4H6\BOITTIER\26-Aug-2020\0\\
 #p B2PLYPD3/Def2QZVP\\butadiene\\0,1\C,0,-3.836002,0.241465,-0.077175\
 C,0,-2.743242,-0.532881,0.122249\C,0,-1.382197,0.00598,0.097517\C,0,-0
 .230461,-0.601355,-0.03864\H,0,-4.874176,-0.101095,-0.009002\H,0,-3.75
 9993,1.382,-0.015525\H,0,-2.951314,-1.594227,0.168582\H,0,-1.407386,1.
 095661,0.176508\H,0,-0.256438,-1.690888,0.04256\H,0,0.746254,-0.115268
 ,-0.236139\\Version=ES64L-G09RevD.01\State=1-A\HF=-155.687258\MP2=-155
 .9139712\RMSD=2.566e-09\PG=C01 [X(C4H6)]\\@

 Normal termination of Gaussian 09 at Wed Aug 26 11:26:09 2020.
