 Gaussian 09, Revision D.01,
 Gaussian 09:  ES64L-G09RevD.01 24-Apr-2013

 --------------------
 #p B2PLYPD3/Def2QZVP
 --------------------

 ---------
 butadiene
 ---------
 Symbolic Z-matrix:
 Charge =  0 Multiplicity = 1

                         Standard orientation:
 ---------------------------------------------------------------------
 Center     Atomic      Atomic             Coordinates (Angstroms)
 Number     Number       Type             X           Y           Z
 ---------------------------------------------------------------------
      1          6           0        1.844751   -0.097477    0.031046
      2          6           0        0.597870    0.381727   -0.019524
      3          6           0       -0.604184   -0.416520   -0.026893
      4          6           0       -1.836753    0.123212    0.017744
      5          1           0        2.708810    0.540855   -0.042283
      6          1           0        2.035992   -1.133507    0.055091
      7          1           0        0.469328    1.471617   -0.056207
      8          1           0       -0.490587   -1.486059   -0.051197
      9          1           0       -2.044121    1.176788    0.068499
     10          1           0       -2.689523   -0.515346    0.011857
 ---------------------------------------------------------------------

 SCF Done:  E(RB2PLYPD3) =  -155.699930165     A.U. after   11 cycles
 E2(B2PLYPD3) =    -0.2256733616D+00 E(B2PLYPD3) =    -0.15592560352690D+03

 The electronic state is 1-A.
 Alpha  occ. eigenvalues --  -10.62622 -10.62485 -10.61495 -10.61063  -0.93003
 Alpha  occ. eigenvalues --   -0.84873  -0.70659  -0.64258  -0.54684  -0.54258
 Alpha  occ. eigenvalues --   -0.46758  -0.45757  -0.41362  -0.38085  -0.27488
 Alpha virt. eigenvalues --    0.01498   0.07015   0.07503   0.08062   0.09656
 Alpha virt. eigenvalues --    0.11667   0.12486   0.14908   0.15955   0.16155
 Alpha virt. eigenvalues --    0.18856   0.20551   0.21828   0.22710   0.23696

 Mulliken charges:
               1
     1  C   -0.178021
     2  C   -0.022533
     3  C   -0.039680
     4  C   -0.174285
     5  H    0.084503
     6  H    0.064155
     7  H    0.052618
     8  H    0.059744
     9  H    0.070985
    10  H    0.082513
 Sum of Mulliken charges =   0.00000

 Dipole moment (field-independent basis, Debye):
    X=             -0.0482    Y=             -0.0208    Z=             -0.0414  Tot=              0.0669
 Quadrupole moment (field-independent basis, Debye-Ang):
   XX=            -23.3829   YY=            -23.0680   ZZ=            -29.2360
   XY=             -0.2711   XZ=             -0.2110   YZ=             -0.0209

 1\1\GINC-NODE03\SP\RB2PLYPD3-FC\def2QZVP\C4H6\BOITTIER\26-Aug-2020\0\\
 #p B2PLYPD3/Def2QZVP\\butadiene\\0,1\C,0,-3.848588,0.216025,0.046047\C
 ,0,-2.709641,-0.483027,0.013936\C,0,-1.382573,0.082966,-0.013075\C,0,-
 0.2685,-0.670141,0.051727\H,0,-4.814399,-0.256599,-0.011212\H,0,-3.848
 35,1.269807,0.038673\H,0,-2.781347,-1.578733,0.010065\H,0,-1.299996,1.
 154136,-0.069509\H,0,-0.255913,-1.741869,0.134443\H,0,0.686086,-0.1976
 05,0.02976\\Version=ES64L-G09RevD.01\State=1-A\HF=-155.6999302\MP2=-15
 5.9256035\RMSD=5.690e-09\PG=C01 [X(C4H6)]\\@

 Normal termination of Gaussian 09 at Wed Aug 26 18:46:56 2020.
