 Gaussian 09, Revision D.01,
 Gaussian 09:  ES64L-G09RevD.01 24-Apr-2013

 --------------------
 #p B2PLYPD3/Def2QZVP
 --------------------

 ---------
 butadiene
 ---------
 Symbolic Z-matrix:
 Charge =  0 Multiplicity = 1

                         Standard orientation:
 ---------------------------------------------------------------------
 Center     Atomic      Atomic             Coordinates (Angstroms)
 Number     Number       Type             X           Y           Z
 ---------------------------------------------------------------------
      1          6           0        1.821207   -0.119080   -0.041392
      2          6           0        0.594803    0.440082    0.038721
      3          6           0       -0.598609   -0.381960    0.074607
      4          6           0       -1.844510    0.074810   -0.035813
      5          1           0        2.782140    0.405696   -0.093470
      6          1           0        1.967052   -1.177000    0.010910
      7          1           0        0.487327    1.500264    0.048275
      8          1           0       -0.362172   -1.443806   -0.024761
      9          1           0       -1.995827    1.159518   -0.050615
     10          1           0       -2.715864   -0.527783   -0.107077
 ---------------------------------------------------------------------

 SCF Done:  E(RB2PLYPD3) =  -155.696386113     A.U. after   11 cycles
 E2(B2PLYPD3) =    -0.2261116967D+00 E(B2PLYPD3) =    -0.15592249781010D+03

 The electronic state is 1-A.
 Alpha  occ. eigenvalues --  -10.62713 -10.62530 -10.61820 -10.61448  -0.93107
 Alpha  occ. eigenvalues --   -0.84663  -0.70446  -0.64514  -0.55233  -0.53331
 Alpha  occ. eigenvalues --   -0.47367  -0.44982  -0.41145  -0.38164  -0.27537
 Alpha virt. eigenvalues --    0.01540   0.07065   0.07407   0.08198   0.09315
 Alpha virt. eigenvalues --    0.11610   0.12738   0.14529   0.15609   0.16553
 Alpha virt. eigenvalues --    0.18844   0.20073   0.21875   0.23225   0.23686

 Mulliken charges:
               1
     1  C   -0.170415
     2  C   -0.033295
     3  C   -0.024569
     4  C   -0.174665
     5  H    0.078495
     6  H    0.060358
     7  H    0.060403
     8  H    0.054128
     9  H    0.058902
    10  H    0.090657
 Sum of Mulliken charges =   0.00000

 Dipole moment (field-independent basis, Debye):
    X=              0.0537    Y=             -0.0013    Z=             -0.1165  Tot=              0.1283
 Quadrupole moment (field-independent basis, Debye-Ang):
   XX=            -23.1246   YY=            -23.3660   ZZ=            -29.2482
   XY=             -0.3147   XZ=              0.2309   YZ=              0.0623

 1\1\GINC-NODE15\SP\RB2PLYPD3-FC\def2QZVP\C4H6\BOITTIER\26-Aug-2020\0\\
 #p B2PLYPD3/Def2QZVP\\butadiene\\0,1\C,0,-3.822747,0.23916,-0.02599\C,
 0,-2.72057,-0.534037,0.076576\C,0,-1.395347,0.053367,0.080229\C,0,-0.2
 56392,-0.63033,-0.011639\H,0,-4.864583,-0.100071,-0.057528\H,0,-3.7697
 86,1.307003,-0.015677\H,0,-2.811218,-1.59458,0.128148\H,0,-1.431751,1.
 135942,-0.061192\H,0,-0.308672,-1.724029,0.016582\H,0,0.710958,-0.2028
 97,-0.106455\\Version=ES64L-G09RevD.01\State=1-A\HF=-155.6963861\MP2=-
 155.9224978\RMSD=5.922e-09\PG=C01 [X(C4H6)]\\@

 Normal termination of Gaussian 09 at Wed Aug 26 09:04:06 2020.
