 Gaussian 09, Revision D.01,
 Gaussian 09:  ES64L-G09RevD.01 24-Apr-2013

 --------------------
 #p B2PLYPD3/Def2QZVP
 --------------------

 ---------
 butadiene
 ---------
 Symbolic Z-matrix:
 Charge =  0 Multiplicity = 1

                         Standard orientation:
 ---------------------------------------------------------------------
 Center     Atomic      Atomic             Coordinates (Angstroms)
 Number     Number       Type             X           Y           Z
 ---------------------------------------------------------------------
      1          6           0       -1.867379    0.106026    0.085112
      2          6           0       -0.615116   -0.392633   -0.061924
      3          6           0        0.635709    0.362925   -0.089440
      4          6           0        1.873544   -0.099274    0.058807
      5          1           0       -2.818295   -0.504650    0.069047
      6          1           0       -1.905486    1.258826   -0.033774
      7          1           0       -0.549022   -1.473174   -0.032137
      8          1           0        0.404529    1.461241   -0.160318
      9          1           0        2.087175   -1.183379   -0.100551
     10          1           0        2.620550    0.578868    0.302405
 ---------------------------------------------------------------------

 SCF Done:  E(RB2PLYPD3) =  -155.680057789     A.U. after   11 cycles
 E2(B2PLYPD3) =    -0.2276688707D+00 E(B2PLYPD3) =    -0.15590772666000D+03

 The electronic state is 1-A.
 Alpha  occ. eigenvalues --  -10.63289 -10.63226 -10.62921 -10.61818  -0.92676
 Alpha  occ. eigenvalues --   -0.84880  -0.70014  -0.62965  -0.54616  -0.53189
 Alpha  occ. eigenvalues --   -0.47248  -0.44763  -0.40656  -0.37351  -0.27676
 Alpha virt. eigenvalues --    0.01054   0.06909   0.07208   0.07918   0.09458
 Alpha virt. eigenvalues --    0.11579   0.12232   0.14296   0.15510   0.16440
 Alpha virt. eigenvalues --    0.18783   0.19089   0.21071   0.23034   0.23833

 Mulliken charges:
               1
     1  C   -0.166394
     2  C   -0.026833
     3  C   -0.029172
     4  C   -0.181981
     5  H    0.092294
     6  H    0.045939
     7  H    0.047407
     8  H    0.042382
     9  H    0.079541
    10  H    0.096817
 Sum of Mulliken charges =   0.00000

 Dipole moment (field-independent basis, Debye):
    X=              0.0836    Y=             -0.0928    Z=             -0.0589  Tot=              0.1380
 Quadrupole moment (field-independent basis, Debye-Ang):
   XX=            -23.4728   YY=            -23.5457   ZZ=            -29.3602
   XY=              0.2626   XZ=              0.5042   YZ=              0.1297

 1\1\GINC-NODE18\SP\RB2PLYPD3-FC\def2QZVP\C4H6\BOITTIER\26-Aug-2020\0\\
 #p B2PLYPD3/Def2QZVP\\butadiene\\0,1\C,0,-3.874433,0.222314,0.099016\C
 ,0,-2.729349,-0.492107,-0.030702\C,0,-1.365067,0.030803,-0.069259\C,0,
 -0.227993,-0.638385,0.095335\H,0,-4.917959,-0.211774,0.092174\H,0,-3.7
 08998,1.360787,-0.046053\H,0,-2.854451,-1.566446,0.023795\H,0,-1.39931
 5,1.150726,-0.16603\H,0,-0.208344,-1.746549,-0.038474\H,0,0.626504,-0.
 096783,0.327145\\Version=ES64L-G09RevD.01\State=1-A\HF=-155.6800578\MP
 2=-155.9077267\RMSD=7.542e-09\PG=C01 [X(C4H6)]\\@

 Normal termination of Gaussian 09 at Wed Aug 26 13:56:20 2020.
