 Gaussian 09, Revision D.01,
 Gaussian 09:  ES64L-G09RevD.01 24-Apr-2013

 --------------------
 #p B2PLYPD3/Def2QZVP
 --------------------

 ---------
 butadiene
 ---------
 Symbolic Z-matrix:
 Charge =  0 Multiplicity = 1

                         Standard orientation:
 ---------------------------------------------------------------------
 Center     Atomic      Atomic             Coordinates (Angstroms)
 Number     Number       Type             X           Y           Z
 ---------------------------------------------------------------------
      1          6           0       -1.845294    0.129378    0.015585
      2          6           0       -0.614361   -0.429868   -0.023188
      3          6           0        0.605035    0.369376   -0.020949
      4          6           0        1.842308   -0.097706    0.036917
      5          1           0       -2.727051   -0.518220    0.116566
      6          1           0       -2.047601    1.210263   -0.039659
      7          1           0       -0.495135   -1.472043   -0.087450
      8          1           0        0.487529    1.469873   -0.022335
      9          1           0        2.154274   -1.101550   -0.011146
     10          1           0        2.701856    0.584596   -0.006168
 ---------------------------------------------------------------------

 SCF Done:  E(RB2PLYPD3) =  -155.695425166     A.U. after   11 cycles
 E2(B2PLYPD3) =    -0.2259346224D+00 E(B2PLYPD3) =    -0.15592135978868D+03

 The electronic state is 1-A.
 Alpha  occ. eigenvalues --  -10.62679 -10.62607 -10.62298 -10.61088  -0.92804
 Alpha  occ. eigenvalues --   -0.84799  -0.70262  -0.64356  -0.54738  -0.53674
 Alpha  occ. eigenvalues --   -0.46776  -0.45505  -0.40832  -0.37910  -0.27652
 Alpha virt. eigenvalues --    0.01573   0.06891   0.07495   0.08005   0.09529
 Alpha virt. eigenvalues --    0.11538   0.12402   0.14870   0.15748   0.16309
 Alpha virt. eigenvalues --    0.18899   0.20053   0.22155   0.22609   0.23636

 Mulliken charges:
               1
     1  C   -0.170448
     2  C   -0.051001
     3  C   -0.021956
     4  C   -0.169904
     5  H    0.080043
     6  H    0.072590
     7  H    0.070030
     8  H    0.053866
     9  H    0.064870
    10  H    0.071910
 Sum of Mulliken charges =   0.00000

 Dipole moment (field-independent basis, Debye):
    X=             -0.0254    Y=             -0.0498    Z=             -0.0865  Tot=              0.1030
 Quadrupole moment (field-independent basis, Debye-Ang):
   XX=            -23.3883   YY=            -23.0922   ZZ=            -29.2857
   XY=             -0.4438   XZ=             -0.2912   YZ=             -0.0344

 1\1\GINC-NODE14\SP\RB2PLYPD3-FC\def2QZVP\C4H6\BOITTIER\26-Aug-2020\0\\
 #p B2PLYPD3/Def2QZVP\\butadiene\\0,1\C,0,-3.841268,0.248781,0.036278\C
 ,0,-2.731913,-0.524667,0.012513\C,0,-1.38815,0.040672,-0.00786\C,0,-0.
 25538,-0.640687,0.062423\H,0,-4.824992,-0.225718,0.155499\H,0,-3.84518
 ,1.346524,-0.048788\H,0,-2.803361,-1.572576,-0.02292\H,0,-1.304823,1.1
 43826,-0.039665\H,0,-0.13025,-1.685323,0.042045\H,0,0.713086,-0.126481
 ,0.000124\\Version=ES64L-G09RevD.01\State=1-A\HF=-155.6954252\MP2=-155
 .9213598\RMSD=7.843e-09\PG=C01 [X(C4H6)]\\@

 Normal termination of Gaussian 09 at Wed Aug 26 10:15:20 2020.
