 Gaussian 09, Revision D.01,
 Gaussian 09:  ES64L-G09RevD.01 24-Apr-2013

 --------------------
 #p B2PLYPD3/Def2QZVP
 --------------------

 ---------
 butadiene
 ---------
 Symbolic Z-matrix:
 Charge =  0 Multiplicity = 1

                         Standard orientation:
 ---------------------------------------------------------------------
 Center     Atomic      Atomic             Coordinates (Angstroms)
 Number     Number       Type             X           Y           Z
 ---------------------------------------------------------------------
      1          6           0       -1.845769   -0.090161    0.051251
      2          6           0       -0.639919    0.341976   -0.062826
      3          6           0        0.623763   -0.448198   -0.031691
      4          6           0        1.844188    0.154585   -0.007524
      5          1           0       -2.669900    0.573946    0.059013
      6          1           0       -2.044143   -1.144535    0.050900
      7          1           0       -0.606616    1.514469   -0.017780
      8          1           0        0.571942   -1.540345   -0.094873
      9          1           0        1.946107    1.236627    0.063525
     10          1           0        2.909028   -0.389374    0.243956
 ---------------------------------------------------------------------

 SCF Done:  E(RB2PLYPD3) =  -155.674302671     A.U. after   12 cycles
 E2(B2PLYPD3) =    -0.2269360182D+00 E(B2PLYPD3) =    -0.15590123868883D+03

 The electronic state is 1-A.
 Alpha  occ. eigenvalues --  -10.64026 -10.63582 -10.63008 -10.60391  -0.92695
 Alpha  occ. eigenvalues --   -0.85232  -0.69009  -0.63151  -0.54686  -0.53219
 Alpha  occ. eigenvalues --   -0.47147  -0.43369  -0.40038  -0.38104  -0.28339
 Alpha virt. eigenvalues --    0.01815   0.06776   0.07225   0.07563   0.09459
 Alpha virt. eigenvalues --    0.11347   0.12402   0.13985   0.15499   0.16736
 Alpha virt. eigenvalues --    0.18830   0.19350   0.21919   0.22507   0.23714

 Mulliken charges:
               1
     1  C   -0.166504
     2  C   -0.007762
     3  C   -0.057702
     4  C   -0.153152
     5  H    0.087594
     6  H    0.057964
     7  H    0.034919
     8  H    0.069196
     9  H    0.068092
    10  H    0.067355
 Sum of Mulliken charges =   0.00000

 Dipole moment (field-independent basis, Debye):
    X=             -0.0867    Y=             -0.0019    Z=              0.1965  Tot=              0.2148
 Quadrupole moment (field-independent basis, Debye-Ang):
   XX=            -23.4415   YY=            -23.3200   ZZ=            -29.3650
   XY=             -0.0023   XZ=              0.5379   YZ=              0.1077

 1\1\GINC-NODE38\SP\RB2PLYPD3-FC\def2QZVP\C4H6\BOITTIER\26-Aug-2020\0\\
 #p B2PLYPD3/Def2QZVP\\butadiene\\0,1\C,0,-3.856566,0.17603,-0.026408\C
 ,0,-2.738639,-0.449144,0.088595\C,0,-1.361445,0.119636,0.043203\C,0,-0
 .258268,-0.67781,0.022012\H,0,-4.7796,-0.341935,-0.023046\H,0,-3.87702
 3,1.248643,-0.038266\H,0,-2.90083,-1.611308,0.057807\H,0,-1.23076,1.20
 5862,0.093178\H,0,-0.337917,-1.762488,-0.036134\H,0,0.880713,-0.321293
 ,-0.239968\\Version=ES64L-G09RevD.01\State=1-A\HF=-155.6743027\MP2=-15
 5.9012387\RMSD=2.582e-09\PG=C01 [X(C4H6)]\\@

 Normal termination of Gaussian 09 at Wed Aug 26 13:08:22 2020.
