 Gaussian 09, Revision D.01,
 Gaussian 09:  ES64L-G09RevD.01 24-Apr-2013

 --------------------
 #p B2PLYPD3/Def2QZVP
 --------------------

 ---------
 butadiene
 ---------
 Symbolic Z-matrix:
 Charge =  0 Multiplicity = 1

                         Standard orientation:
 ---------------------------------------------------------------------
 Center     Atomic      Atomic             Coordinates (Angstroms)
 Number     Number       Type             X           Y           Z
 ---------------------------------------------------------------------
      1          6           0       -1.860410    0.092285    0.008506
      2          6           0       -0.619230   -0.368314   -0.040363
      3          6           0        0.619488    0.411792   -0.001868
      4          6           0        1.853438   -0.128112    0.009591
      5          1           0       -2.700337   -0.516097    0.110880
      6          1           0       -1.996839    1.158383    0.045418
      7          1           0       -0.474937   -1.467681   -0.027815
      8          1           0        0.536163    1.491023   -0.089204
      9          1           0        1.960602   -1.206635    0.021960
     10          1           0        2.715634    0.495096    0.083564
 ---------------------------------------------------------------------

 SCF Done:  E(RB2PLYPD3) =  -155.697840868     A.U. after   11 cycles
 E2(B2PLYPD3) =    -0.2256642880D+00 E(B2PLYPD3) =    -0.15592350515566D+03

 The electronic state is 1-A.
 Alpha  occ. eigenvalues --  -10.62860 -10.62673 -10.61682 -10.60896  -0.92771
 Alpha  occ. eigenvalues --   -0.85251  -0.70427  -0.63752  -0.55030  -0.54098
 Alpha  occ. eigenvalues --   -0.47058  -0.45626  -0.40993  -0.37888  -0.27840
 Alpha virt. eigenvalues --    0.01614   0.07051   0.07467   0.08073   0.09641
 Alpha virt. eigenvalues --    0.11641   0.12546   0.14604   0.15651   0.16288
 Alpha virt. eigenvalues --    0.18883   0.20267   0.21752   0.22798   0.23807

 Mulliken charges:
               1
     1  C   -0.174561
     2  C   -0.020826
     3  C   -0.036464
     4  C   -0.177201
     5  H    0.093078
     6  H    0.060296
     7  H    0.042870
     8  H    0.054317
     9  H    0.067662
    10  H    0.090830
 Sum of Mulliken charges =   0.00000

 Dipole moment (field-independent basis, Debye):
    X=              0.0244    Y=              0.0170    Z=              0.1122  Tot=              0.1161
 Quadrupole moment (field-independent basis, Debye-Ang):
   XX=            -23.3027   YY=            -23.2341   ZZ=            -29.2266
   XY=              0.1017   XZ=             -0.2052   YZ=             -0.0939

 1\1\GINC-NODE22\SP\RB2PLYPD3-FC\def2QZVP\C4H6\BOITTIER\26-Aug-2020\0\\
 #p B2PLYPD3/Def2QZVP\\butadiene\\0,1\C,0,-3.8672,0.20115,0.031608\C,0,
 -2.726053,-0.471092,0.000944\C,0,-1.369763,0.081058,0.009858\C,0,-0.24
 9221,-0.665653,0.042525\H,0,-4.799921,-0.246507,0.157\H,0,-3.814819,1.
 275291,0.027438\H,0,-2.776195,-1.577465,0.055821\H,0,-1.263593,1.15411
 2,-0.118955\H,0,-0.332274,-1.745027,0.096407\H,0,0.709142,-0.200619,0.
 092787\\Version=ES64L-G09RevD.01\State=1-A\HF=-155.6978409\MP2=-155.92
 35052\RMSD=5.965e-09\PG=C01 [X(C4H6)]\\@

 Normal termination of Gaussian 09 at Wed Aug 26 09:49:15 2020.
