 Gaussian 09, Revision D.01,
 Gaussian 09:  ES64L-G09RevD.01 24-Apr-2013

 --------------------
 #p B2PLYPD3/Def2QZVP
 --------------------

 ---------
 butadiene
 ---------
 Symbolic Z-matrix:
 Charge =  0 Multiplicity = 1

                         Standard orientation:
 ---------------------------------------------------------------------
 Center     Atomic      Atomic             Coordinates (Angstroms)
 Number     Number       Type             X           Y           Z
 ---------------------------------------------------------------------
      1          6           0       -1.805526   -0.158992    0.049921
      2          6           0       -0.579142    0.460584   -0.110721
      3          6           0        0.587817   -0.371055   -0.036828
      4          6           0        1.836476    0.076553    0.030503
      5          1           0       -2.770250    0.506895    0.288433
      6          1           0       -2.110161   -1.192655    0.056006
      7          1           0       -0.494356    1.558252   -0.086054
      8          1           0        0.473148   -1.432695   -0.238388
      9          1           0        2.028423    1.128939    0.117636
     10          1           0        2.635454   -0.611278    0.265113
 ---------------------------------------------------------------------

 SCF Done:  E(RB2PLYPD3) =  -155.677247883     A.U. after   12 cycles
 E2(B2PLYPD3) =    -0.2281570327D+00 E(B2PLYPD3) =    -0.15590540491570D+03

 The electronic state is 1-A.
 Alpha  occ. eigenvalues --  -10.63860 -10.63654 -10.62247 -10.60881  -0.93106
 Alpha  occ. eigenvalues --   -0.84097  -0.69859  -0.64238  -0.54751  -0.53115
 Alpha  occ. eigenvalues --   -0.46867  -0.44040  -0.41371  -0.37657  -0.27051
 Alpha virt. eigenvalues --    0.01090   0.06813   0.07316   0.07728   0.08909
 Alpha virt. eigenvalues --    0.11476   0.12361   0.14610   0.15206   0.16555
 Alpha virt. eigenvalues --    0.18725   0.19564   0.21779   0.22803   0.23620

 Mulliken charges:
               1
     1  C   -0.169067
     2  C   -0.046939
     3  C   -0.020737
     4  C   -0.180037
     5  H    0.053279
     6  H    0.083008
     7  H    0.073719
     8  H    0.068289
     9  H    0.058390
    10  H    0.080096
 Sum of Mulliken charges =   0.00000

 Dipole moment (field-independent basis, Debye):
    X=             -0.1181    Y=             -0.0702    Z=              0.2358  Tot=              0.2729
 Quadrupole moment (field-independent basis, Debye-Ang):
   XX=            -24.2736   YY=            -22.9648   ZZ=            -29.2927
   XY=              0.5626   XZ=             -0.0220   YZ=              0.2062

 1\1\GINC-NODE31\SP\RB2PLYPD3-FC\def2QZVP\C4H6\BOITTIER\26-Aug-2020\0\\
 #p B2PLYPD3/Def2QZVP\\butadiene\\0,1\C,0,-3.801276,0.274076,-0.040593\
 C,0,-2.710181,-0.55748,0.13752\C,0,-1.409807,0.042364,0.047562\C,0,-0.
 265433,-0.629618,-0.006141\H,0,-4.872797,-0.207495,-0.266242\H,0,-3.90
 9738,1.3458,-0.0713\H,0,-2.829658,-1.652193,0.138378\H,0,-1.326059,1.1
 11291,0.224301\H,0,-0.271333,-1.70108,-0.068493\H,0,0.646461,-0.106818
 ,-0.25443\\Version=ES64L-G09RevD.01\State=1-A\HF=-155.6772479\MP2=-155
 .9054049\RMSD=5.455e-09\PG=C01 [X(C4H6)]\\@

 Normal termination of Gaussian 09 at Wed Aug 26 13:34:22 2020.
