 Gaussian 09, Revision D.01,
 Gaussian 09:  ES64L-G09RevD.01 24-Apr-2013

 --------------------
 #p B2PLYPD3/Def2QZVP
 --------------------

 ---------
 butadiene
 ---------
 Symbolic Z-matrix:
 Charge =  0 Multiplicity = 1

                         Standard orientation:
 ---------------------------------------------------------------------
 Center     Atomic      Atomic             Coordinates (Angstroms)
 Number     Number       Type             X           Y           Z
 ---------------------------------------------------------------------
      1          6           0        1.823923   -0.125267   -0.016557
      2          6           0        0.578909    0.425317    0.010768
      3          6           0       -0.590706   -0.376787    0.022598
      4          6           0       -1.834639    0.089217   -0.030743
      5          1           0        2.687200    0.509559   -0.017264
      6          1           0        1.978552   -1.183017   -0.001633
      7          1           0        0.478106    1.502425   -0.020212
      8          1           0       -0.329440   -1.436759    0.081898
      9          1           0       -2.006478    1.117028    0.121309
     10          1           0       -2.672855   -0.584108   -0.080492
 ---------------------------------------------------------------------

 SCF Done:  E(RB2PLYPD3) =  -155.695774272     A.U. after   11 cycles
 E2(B2PLYPD3) =    -0.2261936994D+00 E(B2PLYPD3) =    -0.15592196797172D+03

 The electronic state is 1-A.
 Alpha  occ. eigenvalues --  -10.62461 -10.62147 -10.61653 -10.61032  -0.93535
 Alpha  occ. eigenvalues --   -0.84695  -0.70866  -0.64323  -0.54672  -0.54175
 Alpha  occ. eigenvalues --   -0.46382  -0.46285  -0.41691  -0.38223  -0.27161
 Alpha virt. eigenvalues --    0.01244   0.07058   0.07410   0.08152   0.09574
 Alpha virt. eigenvalues --    0.11819   0.12481   0.14963   0.15680   0.16235
 Alpha virt. eigenvalues --    0.18649   0.20282   0.21825   0.23222   0.23853

 Mulliken charges:
               1
     1  C   -0.186114
     2  C   -0.025408
     3  C   -0.018861
     4  C   -0.184709
     5  H    0.085104
     6  H    0.068078
     7  H    0.053727
     8  H    0.049292
     9  H    0.072598
    10  H    0.086293
 Sum of Mulliken charges =   0.00000

 Dipole moment (field-independent basis, Debye):
    X=              0.0561    Y=              0.0148    Z=              0.1073  Tot=              0.1220
 Quadrupole moment (field-independent basis, Debye-Ang):
   XX=            -23.6682   YY=            -23.0995   ZZ=            -29.2007
   XY=             -0.2664   XZ=             -0.1102   YZ=              0.0917

 1\1\GINC-NODE36\SP\RB2PLYPD3-FC\def2QZVP\C4H6\BOITTIER\26-Aug-2020\0\\
 #p B2PLYPD3/Def2QZVP\\butadiene\\0,1\C,0,-3.822313,0.251137,0.00029\C,
 0,-2.702697,-0.522148,0.049691\C,0,-1.403273,0.046069,0.038008\C,0,-0.
 26912,-0.646687,0.003947\H,0,-4.789408,-0.210006,0.01837\H,0,-3.775586
 ,1.319005,-0.020728\H,0,-2.805983,-1.599453,0.055155\H,0,-1.460717,1.1
 37623,0.060955\H,0,-0.292749,-1.682803,0.190893\H,0,0.680412,-0.144737
 ,-0.065924\\Version=ES64L-G09RevD.01\State=1-A\HF=-155.6957743\MP2=-15
 5.921968\RMSD=6.895e-09\PG=C01 [X(C4H6)]\\@

 Normal termination of Gaussian 09 at Wed Aug 26 09:11:17 2020.
