 Gaussian 09, Revision D.01,
 Gaussian 09:  ES64L-G09RevD.01 24-Apr-2013

 --------------------
 #p B2PLYPD3/Def2QZVP
 --------------------

 ---------
 butadiene
 ---------
 Symbolic Z-matrix:
 Charge =  0 Multiplicity = 1

                         Standard orientation:
 ---------------------------------------------------------------------
 Center     Atomic      Atomic             Coordinates (Angstroms)
 Number     Number       Type             X           Y           Z
 ---------------------------------------------------------------------
      1          6           0       -1.859397    0.082660   -0.041310
      2          6           0       -0.603165   -0.372765    0.028793
      3          6           0        0.622699    0.416658    0.072783
      4          6           0        1.851696   -0.119116   -0.078444
      5          1           0       -2.792200   -0.515654   -0.040031
      6          1           0       -2.110981    1.104287   -0.120940
      7          1           0       -0.300996   -1.437925    0.214370
      8          1           0        0.499156    1.468355    0.120730
      9          1           0        1.950219   -1.154054   -0.074589
     10          1           0        2.683807    0.490374    0.009529
 ---------------------------------------------------------------------

 SCF Done:  E(RB2PLYPD3) =  -155.688502709     A.U. after   11 cycles
 E2(B2PLYPD3) =    -0.2261556974D+00 E(B2PLYPD3) =    -0.15591465840668D+03

 The electronic state is 1-A.
 Alpha  occ. eigenvalues --  -10.63222 -10.62445 -10.61876 -10.60891  -0.92894
 Alpha  occ. eigenvalues --   -0.84935  -0.71193  -0.64392  -0.55802  -0.52955
 Alpha  occ. eigenvalues --   -0.47728  -0.46216  -0.40424  -0.37578  -0.27778
 Alpha virt. eigenvalues --    0.01271   0.07023   0.07511   0.08120   0.09553
 Alpha virt. eigenvalues --    0.11607   0.12635   0.14840   0.15505   0.16395
 Alpha virt. eigenvalues --    0.19087   0.19688   0.22291   0.22692   0.23075

 Mulliken charges:
               1
     1  C   -0.174194
     2  C   -0.024239
     3  C   -0.035900
     4  C   -0.170405
     5  H    0.080696
     6  H    0.065903
     7  H    0.049124
     8  H    0.056180
     9  H    0.064724
    10  H    0.088112
 Sum of Mulliken charges =   0.00000

 Dipole moment (field-independent basis, Debye):
    X=              0.0128    Y=              0.1125    Z=              0.1546  Tot=              0.1917
 Quadrupole moment (field-independent basis, Debye-Ang):
   XX=            -22.9560   YY=            -23.5337   ZZ=            -29.1743
   XY=             -0.5434   XZ=              0.2575   YZ=             -0.1353

 1\1\GINC-NODE39\SP\RB2PLYPD3-FC\def2QZVP\C4H6\BOITTIER\26-Aug-2020\0\\
 #p B2PLYPD3/Def2QZVP\\butadiene\\0,1\C,0,-3.866449,0.20595,-0.025492\C
 ,0,-2.715168,-0.469527,0.067935\C,0,-1.364996,0.082299,0.087724\C,0,-0
 .255758,-0.675574,-0.037086\H,0,-4.893324,-0.210279,-0.005914\H,0,-3.9
 26154,1.252597,-0.145172\H,0,-2.613499,-1.564169,0.295384\H,0,-1.29302
 5,1.139841,0.094998\H,0,-0.349125,-1.710073,0.006645\H,0,0.674398,-0.2
 26446,0.031613\\Version=ES64L-G09RevD.01\State=1-A\HF=-155.6885027\MP2
 =-155.9146584\RMSD=9.660e-09\PG=C01 [X(C4H6)]\\@

 Normal termination of Gaussian 09 at Wed Aug 26 12:58:59 2020.
