 Gaussian 09, Revision D.01,
 Gaussian 09:  ES64L-G09RevD.01 24-Apr-2013

 --------------------
 #p B2PLYPD3/Def2QZVP
 --------------------

 ---------
 butadiene
 ---------
 Symbolic Z-matrix:
 Charge =  0 Multiplicity = 1

                         Standard orientation:
 ---------------------------------------------------------------------
 Center     Atomic      Atomic             Coordinates (Angstroms)
 Number     Number       Type             X           Y           Z
 ---------------------------------------------------------------------
      1          6           0       -1.835419   -0.121029    0.029536
      2          6           0       -0.613285    0.414313   -0.044073
      3          6           0        0.601555   -0.382739   -0.045046
      4          6           0        1.856071    0.091465    0.041870
      5          1           0       -2.692728    0.521145    0.118553
      6          1           0       -2.014023   -1.184890   -0.045093
      7          1           0       -0.499463    1.483752   -0.029294
      8          1           0        0.402487   -1.406871    0.040480
      9          1           0        2.089947    1.140327    0.001184
     10          1           0        2.660248   -0.565520    0.020449
 ---------------------------------------------------------------------

 SCF Done:  E(RB2PLYPD3) =  -155.697357970     A.U. after   11 cycles
 E2(B2PLYPD3) =    -0.2254379990D+00 E(B2PLYPD3) =    -0.15592279596948D+03

 The electronic state is 1-A.
 Alpha  occ. eigenvalues --  -10.62344 -10.62159 -10.61507 -10.61087  -0.93029
 Alpha  occ. eigenvalues --   -0.84973  -0.70814  -0.64571  -0.54893  -0.54073
 Alpha  occ. eigenvalues --   -0.46916  -0.46286  -0.41246  -0.37980  -0.27575
 Alpha virt. eigenvalues --    0.01515   0.07038   0.07554   0.08244   0.09515
 Alpha virt. eigenvalues --    0.11735   0.12467   0.14956   0.15660   0.16265
 Alpha virt. eigenvalues --    0.18860   0.19962   0.21935   0.23386   0.23833

 Mulliken charges:
               1
     1  C   -0.178793
     2  C   -0.028959
     3  C   -0.037871
     4  C   -0.177633
     5  H    0.083915
     6  H    0.068827
     7  H    0.056370
     8  H    0.061237
     9  H    0.066992
    10  H    0.085915
 Sum of Mulliken charges =   0.00000

 Dipole moment (field-independent basis, Debye):
    X=             -0.0461    Y=              0.0024    Z=              0.0249  Tot=              0.0524
 Quadrupole moment (field-independent basis, Debye-Ang):
   XX=            -23.4258   YY=            -23.0811   ZZ=            -29.1714
   XY=              0.3091   XZ=             -0.1694   YZ=              0.0385

 1\1\GINC-NODE27\SP\RB2PLYPD3-FC\def2QZVP\C4H6\BOITTIER\26-Aug-2020\0\\
 #p B2PLYPD3/Def2QZVP\\butadiene\\0,1\C,0,-3.834965,0.240339,-0.016233\
 C,0,-2.731817,-0.507864,0.077993\C,0,-1.391196,0.051992,0.057373\C,0,-
 0.245442,-0.647186,-0.010685\H,0,-4.795935,-0.235849,-0.087441\H,0,-3.
 814809,1.320726,0.024104\H,0,-2.816505,-1.579929,0.097457\H,0,-1.39891
 5,1.092029,-0.061167\H,0,-0.208181,-1.719338,0.063927\H,0,0.66583,-0.1
 48826,-0.007668\\Version=ES64L-G09RevD.01\State=1-A\HF=-155.697358\MP2
 =-155.922796\RMSD=4.230e-09\PG=C01 [X(C4H6)]\\@

 Normal termination of Gaussian 09 at Wed Aug 26 09:18:00 2020.
