 Gaussian 09, Revision D.01,
 Gaussian 09:  ES64L-G09RevD.01 24-Apr-2013

 --------------------
 #p B2PLYPD3/Def2QZVP
 --------------------

 ---------
 butadiene
 ---------
 Symbolic Z-matrix:
 Charge =  0 Multiplicity = 1

                         Standard orientation:
 ---------------------------------------------------------------------
 Center     Atomic      Atomic             Coordinates (Angstroms)
 Number     Number       Type             X           Y           Z
 ---------------------------------------------------------------------
      1          6           0       -1.832289    0.118451   -0.001461
      2          6           0       -0.599726   -0.414431   -0.016738
      3          6           0        0.605622    0.388846   -0.006074
      4          6           0        1.834034   -0.105469    0.004265
      5          1           0       -2.767847   -0.482168    0.076972
      6          1           0       -1.952361    1.198826    0.007697
      7          1           0       -0.511109   -1.486543    0.014960
      8          1           0        0.475126    1.471207   -0.028069
      9          1           0        2.012057   -1.157189   -0.024832
     10          1           0        2.698292    0.531482    0.073328
 ---------------------------------------------------------------------

 SCF Done:  E(RB2PLYPD3) =  -155.699859958     A.U. after   11 cycles
 E2(B2PLYPD3) =    -0.2257014299D+00 E(B2PLYPD3) =    -0.15592556138799D+03

 The electronic state is 1-A.
 Alpha  occ. eigenvalues --  -10.62544 -10.62393 -10.61990 -10.61071  -0.93133
 Alpha  occ. eigenvalues --   -0.84924  -0.69956  -0.64257  -0.54451  -0.54155
 Alpha  occ. eigenvalues --   -0.46574  -0.45350  -0.41309  -0.38217  -0.27667
 Alpha virt. eigenvalues --    0.01765   0.06997   0.07455   0.07995   0.09599
 Alpha virt. eigenvalues --    0.11664   0.12521   0.14619   0.15835   0.16254
 Alpha virt. eigenvalues --    0.18782   0.20459   0.21661   0.22818   0.23814

 Mulliken charges:
               1
     1  C   -0.171526
     2  C   -0.034682
     3  C   -0.025709
     4  C   -0.176027
     5  H    0.082691
     6  H    0.061997
     7  H    0.058297
     8  H    0.053628
     9  H    0.066296
    10  H    0.085035
 Sum of Mulliken charges =   0.00000

 Dipole moment (field-independent basis, Debye):
    X=              0.0105    Y=             -0.0128    Z=              0.0938  Tot=              0.0953
 Quadrupole moment (field-independent basis, Debye-Ang):
   XX=            -23.4457   YY=            -23.1343   ZZ=            -29.2510
   XY=             -0.0664   XZ=             -0.1188   YZ=             -0.0162

 1\1\GINC-NODE05\SP\RB2PLYPD3-FC\def2QZVP\C4H6\BOITTIER\26-Aug-2020\0\\
 #p B2PLYPD3/Def2QZVP\\butadiene\\0,1\C,0,-3.834515,0.229455,0.020565\C
 ,0,-2.716761,-0.514877,0.022582\C,0,-1.387497,0.060554,0.009583\C,0,-0
 .266832,-0.644331,0.03602\H,0,-4.861771,-0.192068,0.116624\H,0,-3.7600
 46,1.3137,-0.003464\H,0,-2.820516,-1.58415,0.087171\H,0,-1.323077,1.14
 7668,-0.045654\H,0,-0.279265,-1.711331,0.039288\H,0,0.697434,-0.169897
 ,0.086219\\Version=ES64L-G09RevD.01\State=1-A\HF=-155.69986\MP2=-155.9
 255614\RMSD=5.138e-09\PG=C01 [X(C4H6)]\\@

 Normal termination of Gaussian 09 at Wed Aug 26 19:38:00 2020.
