 Gaussian 09, Revision D.01,
 Gaussian 09:  ES64L-G09RevD.01 24-Apr-2013

 --------------------
 #p B2PLYPD3/Def2QZVP
 --------------------

 ---------
 butadiene
 ---------
 Symbolic Z-matrix:
 Charge =  0 Multiplicity = 1

                         Standard orientation:
 ---------------------------------------------------------------------
 Center     Atomic      Atomic             Coordinates (Angstroms)
 Number     Number       Type             X           Y           Z
 ---------------------------------------------------------------------
      1          6           0       -1.841876   -0.109565    0.002854
      2          6           0       -0.608052    0.377937    0.009021
      3          6           0        0.614348   -0.411438   -0.002224
      4          6           0        1.844485    0.125973   -0.010478
      5          1           0       -2.664772    0.573830   -0.043672
      6          1           0       -2.047613   -1.136693   -0.052470
      7          1           0       -0.517206    1.470792    0.067718
      8          1           0        0.491687   -1.506319    0.055950
      9          1           0        1.967617    1.215840   -0.044877
     10          1           0        2.716853   -0.514894    0.022309
 ---------------------------------------------------------------------

 SCF Done:  E(RB2PLYPD3) =  -155.699273964     A.U. after   11 cycles
 E2(B2PLYPD3) =    -0.2256988924D+00 E(B2PLYPD3) =    -0.15592497285606D+03

 The electronic state is 1-A.
 Alpha  occ. eigenvalues --  -10.62856 -10.62422 -10.61867 -10.60801  -0.92898
 Alpha  occ. eigenvalues --   -0.85098  -0.70145  -0.63779  -0.54497  -0.54196
 Alpha  occ. eigenvalues --   -0.46368  -0.45853  -0.41145  -0.38046  -0.27742
 Alpha virt. eigenvalues --    0.01741   0.07007   0.07396   0.07987   0.09658
 Alpha virt. eigenvalues --    0.11708   0.12349   0.14790   0.15852   0.16023
 Alpha virt. eigenvalues --    0.18743   0.20374   0.21535   0.22725   0.24124

 Mulliken charges:
               1
     1  C   -0.178928
     2  C   -0.019257
     3  C   -0.038509
     4  C   -0.175998
     5  H    0.083478
     6  H    0.068281
     7  H    0.049150
     8  H    0.053260
     9  H    0.069259
    10  H    0.089264
 Sum of Mulliken charges =   0.00000

 Dipole moment (field-independent basis, Debye):
    X=              0.0021    Y=             -0.0187    Z=              0.0004  Tot=              0.0188
 Quadrupole moment (field-independent basis, Debye-Ang):
   XX=            -23.6089   YY=            -23.0062   ZZ=            -29.2685
   XY=              0.0486   XZ=              0.2316   YZ=             -0.0344

 1\1\GINC-NODE14\SP\RB2PLYPD3-FC\def2QZVP\C4H6\BOITTIER\26-Aug-2020\0\\
 #p B2PLYPD3/Def2QZVP\\butadiene\\0,1\C,0,-3.84717,0.216675,0.018043\C,
 0,-2.7189,-0.481135,0.027282\C,0,-1.376254,0.079771,0.013652\C,0,-0.26
 0348,-0.666039,0.038879\H,0,-4.777561,-0.308774,0.086082\H,0,-3.86795,
 1.265209,0.040941\H,0,-2.822831,-1.574133,0.003084\H,0,-1.303928,1.176
 755,-0.079027\H,0,-0.331456,-1.758911,0.107637\H,0,0.711301,-0.190744,
 -0.014085\\Version=ES64L-G09RevD.01\State=1-A\HF=-155.699274\MP2=-155.
 9249729\RMSD=5.583e-09\PG=C01 [X(C4H6)]\\@

 Normal termination of Gaussian 09 at Wed Aug 26 19:01:07 2020.
