 Gaussian 09, Revision D.01,
 Gaussian 09:  ES64L-G09RevD.01 24-Apr-2013

 --------------------
 #p B2PLYPD3/Def2QZVP
 --------------------

 ---------
 butadiene
 ---------
 Symbolic Z-matrix:
 Charge =  0 Multiplicity = 1

                         Standard orientation:
 ---------------------------------------------------------------------
 Center     Atomic      Atomic             Coordinates (Angstroms)
 Number     Number       Type             X           Y           Z
 ---------------------------------------------------------------------
      1          6           0        1.809942   -0.166369    0.052664
      2          6           0        0.588566    0.437038   -0.053429
      3          6           0       -0.607271   -0.331617   -0.070668
      4          6           0       -1.810325    0.067193    0.027703
      5          1           0        2.699813    0.439380   -0.101336
      6          1           0        1.896451   -1.154956    0.333281
      7          1           0        0.515718    1.540449   -0.093838
      8          1           0       -0.426486   -1.407668   -0.238675
      9          1           0       -1.913286    1.133115    0.286048
     10          1           0       -2.657685   -0.587792    0.076901
 ---------------------------------------------------------------------

 SCF Done:  E(RB2PLYPD3) =  -155.684924080     A.U. after   11 cycles
 E2(B2PLYPD3) =    -0.2256118149D+00 E(B2PLYPD3) =    -0.15591053589528D+03

 The electronic state is 1-A.
 Alpha  occ. eigenvalues --  -10.62897 -10.61529 -10.61178 -10.60424  -0.94004
 Alpha  occ. eigenvalues --   -0.85447  -0.70491  -0.63627  -0.55151  -0.54210
 Alpha  occ. eigenvalues --   -0.46883  -0.45932  -0.40493  -0.38474  -0.27669
 Alpha virt. eigenvalues --    0.01474   0.07130   0.07407   0.07943   0.09858
 Alpha virt. eigenvalues --    0.11845   0.12323   0.14966   0.15671   0.16262
 Alpha virt. eigenvalues --    0.18738   0.19351   0.21316   0.22743   0.23803

 Mulliken charges:
               1
     1  C   -0.186807
     2  C   -0.047771
     3  C   -0.001345
     4  C   -0.171131
     5  H    0.085677
     6  H    0.080599
     7  H    0.055806
     8  H    0.043983
     9  H    0.051384
    10  H    0.089604
 Sum of Mulliken charges =   0.00000

 Dipole moment (field-independent basis, Debye):
    X=              0.0449    Y=             -0.0518    Z=              0.1902  Tot=              0.2022
 Quadrupole moment (field-independent basis, Debye-Ang):
   XX=            -23.8488   YY=            -23.3461   ZZ=            -28.8159
   XY=              0.2114   XZ=             -0.3445   YZ=             -0.1189

 1\1\GINC-NODE25\SP\RB2PLYPD3-FC\def2QZVP\C4H6\BOITTIER\26-Aug-2020\0\\
 #p B2PLYPD3/Def2QZVP\\butadiene\\0,1\C,0,-3.805344,0.272247,0.06867\C,
 0,-2.710913,-0.541163,-0.019078\C,0,-1.397216,0.001639,-0.045911\C,0,-
 0.28462,-0.60297,0.066525\H,0,-4.788718,-0.168362,-0.077471\H,0,-3.714
 66,1.266057,0.328769\H,0,-2.835814,-1.6405,-0.036764\H,0,-1.383127,1.0
 88949,-0.236581\H,0,-0.373599,-1.66457,0.346919\H,0,0.665835,-0.108533
 ,0.106677\\Version=ES64L-G09RevD.01\State=1-A\HF=-155.6849241\MP2=-155
 .9105359\RMSD=9.457e-09\PG=C01 [X(C4H6)]\\@

 Normal termination of Gaussian 09 at Wed Aug 26 14:13:34 2020.
