 Gaussian 09, Revision D.01,
 Gaussian 09:  ES64L-G09RevD.01 24-Apr-2013

 --------------------
 #p B2PLYPD3/Def2QZVP
 --------------------

 ---------
 butadiene
 ---------
 Symbolic Z-matrix:
 Charge =  0 Multiplicity = 1

                         Standard orientation:
 ---------------------------------------------------------------------
 Center     Atomic      Atomic             Coordinates (Angstroms)
 Number     Number       Type             X           Y           Z
 ---------------------------------------------------------------------
      1          6           0       -1.838441    0.085888   -0.081814
      2          6           0       -0.578606   -0.370916    0.006931
      3          6           0        0.610782    0.430515    0.022471
      4          6           0        1.823629   -0.137589   -0.019638
      5          1           0       -2.821929   -0.497861    0.236317
      6          1           0       -1.971220    1.111630   -0.095084
      7          1           0       -0.479422   -1.449506    0.165176
      8          1           0        0.516660    1.538897    0.262718
      9          1           0        1.929775   -1.169897   -0.062411
     10          1           0        2.721952    0.419347   -0.074413
 ---------------------------------------------------------------------

 SCF Done:  E(RB2PLYPD3) =  -155.679784999     A.U. after   12 cycles
 E2(B2PLYPD3) =    -0.2269536251D+00 E(B2PLYPD3) =    -0.15590673862378D+03

 The electronic state is 1-A.
 Alpha  occ. eigenvalues --  -10.63328 -10.62690 -10.61825 -10.61208  -0.93318
 Alpha  occ. eigenvalues --   -0.84876  -0.70364  -0.64059  -0.54676  -0.53767
 Alpha  occ. eigenvalues --   -0.46459  -0.45336  -0.41293  -0.37614  -0.27594
 Alpha virt. eigenvalues --    0.01082   0.07048   0.07225   0.07794   0.09291
 Alpha virt. eigenvalues --    0.11570   0.12720   0.14575   0.15365   0.16679
 Alpha virt. eigenvalues --    0.18830   0.19194   0.22389   0.22733   0.23451

 Mulliken charges:
               1
     1  C   -0.165180
     2  C   -0.027026
     3  C   -0.039481
     4  C   -0.171777
     5  H    0.069192
     6  H    0.059357
     7  H    0.058144
     8  H    0.060605
     9  H    0.069894
    10  H    0.086273
 Sum of Mulliken charges =   0.00000

 Dipole moment (field-independent basis, Debye):
    X=              0.2568    Y=              0.0292    Z=              0.4017  Tot=              0.4776
 Quadrupole moment (field-independent basis, Debye-Ang):
   XX=            -23.4793   YY=            -23.4732   ZZ=            -29.1277
   XY=             -0.2550   XZ=             -0.8753   YZ=             -0.0641

 1\1\GINC-NODE12\SP\RB2PLYPD3-FC\def2QZVP\C4H6\BOITTIER\26-Aug-2020\0\\
 #p B2PLYPD3/Def2QZVP\\butadiene\\0,1\C,0,-3.849285,0.193879,-0.039991\
 C,0,-2.689651,-0.477187,0.05301\C,0,-1.376906,0.100557,0.043509\C,0,-0
 .284462,-0.674593,0.008562\H,0,-4.917712,-0.198798,0.296887\H,0,-3.798
 187,1.226347,-0.076769\H,0,-2.781839,-1.552455,0.236141\H,0,-1.270765,
 1.213123,0.258026\H,0,-0.363452,-1.710043,-0.010395\H,0,0.697837,-0.28
 7306,-0.063966\\Version=ES64L-G09RevD.01\State=1-A\HF=-155.679785\MP2=
 -155.9067386\RMSD=4.672e-09\PG=C01 [X(C4H6)]\\@

 Normal termination of Gaussian 09 at Wed Aug 26 15:31:32 2020.
