 Gaussian 09, Revision D.01,
 Gaussian 09:  ES64L-G09RevD.01 24-Apr-2013

 --------------------
 #p B2PLYPD3/Def2QZVP
 --------------------

 ---------
 butadiene
 ---------
 Symbolic Z-matrix:
 Charge =  0 Multiplicity = 1

                         Standard orientation:
 ---------------------------------------------------------------------
 Center     Atomic      Atomic             Coordinates (Angstroms)
 Number     Number       Type             X           Y           Z
 ---------------------------------------------------------------------
      1          6           0        1.853698    0.078379   -0.030128
      2          6           0        0.574279   -0.405988   -0.013341
      3          6           0       -0.607530    0.438594    0.056498
      4          6           0       -1.830601   -0.132562   -0.017160
      5          1           0        2.859927   -0.456972    0.011056
      6          1           0        2.013495    1.181110   -0.167286
      7          1           0        0.400758   -1.483971    0.322835
      8          1           0       -0.465456    1.537137    0.161919
      9          1           0       -1.991961   -1.147461   -0.245234
     10          1           0       -2.755837    0.499621   -0.058502
 ---------------------------------------------------------------------

 SCF Done:  E(RB2PLYPD3) =  -155.680693465     A.U. after   11 cycles
 E2(B2PLYPD3) =    -0.2286147956D+00 E(B2PLYPD3) =    -0.15590930826108D+03

 The electronic state is 1-A.
 Alpha  occ. eigenvalues --  -10.63816 -10.63502 -10.63210 -10.61990  -0.92558
 Alpha  occ. eigenvalues --   -0.83823  -0.69745  -0.63517  -0.54075  -0.52903
 Alpha  occ. eigenvalues --   -0.46650  -0.44417  -0.40835  -0.37352  -0.27380
 Alpha virt. eigenvalues --    0.01052   0.06980   0.07212   0.07495   0.08718
 Alpha virt. eigenvalues --    0.11396   0.12471   0.14353   0.15206   0.16473
 Alpha virt. eigenvalues --    0.18751   0.19583   0.21837   0.22660   0.22942

 Mulliken charges:
               1
     1  C   -0.176084
     2  C   -0.034978
     3  C   -0.036705
     4  C   -0.168661
     5  H    0.084029
     6  H    0.051828
     7  H    0.067251
     8  H    0.063963
     9  H    0.075307
    10  H    0.074051
 Sum of Mulliken charges =   0.00000

 Dipole moment (field-independent basis, Debye):
    X=              0.0049    Y=              0.0791    Z=              0.0381  Tot=              0.0880
 Quadrupole moment (field-independent basis, Debye-Ang):
   XX=            -23.3031   YY=            -23.5551   ZZ=            -29.4316
   XY=              0.4261   XZ=              0.5241   YZ=             -0.1342

 1\1\GINC-NODE15\SP\RB2PLYPD3-FC\def2QZVP\C4H6\BOITTIER\26-Aug-2020\0\\
 #p B2PLYPD3/Def2QZVP\\butadiene\\0,1\C,0,-3.861074,0.204867,0.041955\C
 ,0,-2.692132,-0.506033,0.040366\C,0,-1.375372,0.106188,-0.038352\C,0,-
 0.2779,-0.678023,0.051739\H,0,-4.948329,-0.137641,0.005087\H,0,-3.8162
 14,1.320538,0.158695\H,0,-2.718601,-1.603555,-0.275727\H,0,-1.313416,1
 .210033,-0.163983\H,0,-0.305783,-1.700935,0.298617\H,0,0.74749,-0.2254
 92,0.086628\\Version=ES64L-G09RevD.01\State=1-A\HF=-155.6806935\MP2=-1
 55.9093083\RMSD=9.501e-09\PG=C01 [X(C4H6)]\\@

 Normal termination of Gaussian 09 at Wed Aug 26 12:00:18 2020.
