 Gaussian 09, Revision D.01,
 Gaussian 09:  ES64L-G09RevD.01 24-Apr-2013

 --------------------
 #p B2PLYPD3/Def2QZVP
 --------------------

 ---------
 butadiene
 ---------
 Symbolic Z-matrix:
 Charge =  0 Multiplicity = 1

                         Standard orientation:
 ---------------------------------------------------------------------
 Center     Atomic      Atomic             Coordinates (Angstroms)
 Number     Number       Type             X           Y           Z
 ---------------------------------------------------------------------
      1          6           0       -1.841162   -0.125252   -0.049486
      2          6           0       -0.629023    0.414814    0.057204
      3          6           0        0.634757   -0.381767    0.089214
      4          6           0        1.881345    0.092876   -0.073483
      5          1           0       -2.742234    0.425419   -0.047426
      6          1           0       -2.032257   -1.164240   -0.066046
      7          1           0       -0.668881    1.521450   -0.050300
      8          1           0        0.420222   -1.477377    0.056743
      9          1           0        1.999073    1.163365    0.093809
     10          1           0        2.748576   -0.472644   -0.127471
 ---------------------------------------------------------------------

 SCF Done:  E(RB2PLYPD3) =  -155.687969176     A.U. after   11 cycles
 E2(B2PLYPD3) =    -0.2261536690D+00 E(B2PLYPD3) =    -0.15591412284530D+03

 The electronic state is 1-A.
 Alpha  occ. eigenvalues --  -10.63714 -10.63226 -10.61459 -10.60954  -0.92326
 Alpha  occ. eigenvalues --   -0.85310  -0.70477  -0.63822  -0.55320  -0.53580
 Alpha  occ. eigenvalues --   -0.47348  -0.45013  -0.40622  -0.37610  -0.28010
 Alpha virt. eigenvalues --    0.01569   0.07104   0.07525   0.08020   0.09138
 Alpha virt. eigenvalues --    0.11555   0.12740   0.14383   0.15741   0.16511
 Alpha virt. eigenvalues --    0.19001   0.19452   0.22308   0.23144   0.23804

 Mulliken charges:
               1
     1  C   -0.164441
     2  C   -0.027370
     3  C   -0.041040
     4  C   -0.167665
     5  H    0.080481
     6  H    0.055535
     7  H    0.054149
     8  H    0.052651
     9  H    0.067005
    10  H    0.090696
 Sum of Mulliken charges =   0.00000

 Dipole moment (field-independent basis, Debye):
    X=             -0.0843    Y=             -0.0388    Z=             -0.0312  Tot=              0.0979
 Quadrupole moment (field-independent basis, Debye-Ang):
   XX=            -22.7671   YY=            -23.4973   ZZ=            -29.2535
   XY=              0.0183   XZ=              0.1050   YZ=              0.1308

 1\1\GINC-NODE33\SP\RB2PLYPD3-FC\def2QZVP\C4H6\BOITTIER\26-Aug-2020\0\\
 #p B2PLYPD3/Def2QZVP\\butadiene\\0,1\C,0,-3.84919,0.226788,0.073797\C,
 0,-2.748415,-0.515847,-0.021713\C,0,-1.366501,0.050529,-0.069042\C,0,-
 0.219711,-0.628322,0.103498\H,0,-4.831591,-0.160497,0.082321\H,0,-3.85
 857,1.283283,0.069682\H,0,-2.977804,-1.596783,0.107696\H,0,-1.389179,1
 .167137,-0.05838\H,0,-0.288483,-1.706167,-0.042493\H,0,0.732068,-0.219
 57,0.146585\\Version=ES64L-G09RevD.01\State=1-A\HF=-155.6879692\MP2=-1
 55.9141228\RMSD=7.259e-09\PG=C01 [X(C4H6)]\\@

 Normal termination of Gaussian 09 at Wed Aug 26 13:35:26 2020.
