 Gaussian 09, Revision D.01,
 Gaussian 09:  ES64L-G09RevD.01 24-Apr-2013

 --------------------
 #p B2PLYPD3/Def2QZVP
 --------------------

 ---------
 butadiene
 ---------
 Symbolic Z-matrix:
 Charge =  0 Multiplicity = 1

                         Standard orientation:
 ---------------------------------------------------------------------
 Center     Atomic      Atomic             Coordinates (Angstroms)
 Number     Number       Type             X           Y           Z
 ---------------------------------------------------------------------
      1          6           0       -1.837582    0.126044    0.014296
      2          6           0       -0.619405   -0.408450   -0.028275
      3          6           0        0.599328    0.357770   -0.015341
      4          6           0        1.854537   -0.084246    0.032038
      5          1           0       -2.720802   -0.516911    0.126615
      6          1           0       -2.012744    1.182195   -0.032197
      7          1           0       -0.498553   -1.462566   -0.080475
      8          1           0        0.471022    1.451480   -0.032375
      9          1           0        2.074353   -1.122721   -0.000435
     10          1           0        2.705461    0.521811    0.002558
 ---------------------------------------------------------------------

 SCF Done:  E(RB2PLYPD3) =  -155.697739880     A.U. after   11 cycles
 E2(B2PLYPD3) =    -0.2252631360D+00 E(B2PLYPD3) =    -0.15592300301571D+03

 The electronic state is 1-A.
 Alpha  occ. eigenvalues --  -10.62447 -10.62273 -10.61730 -10.60798  -0.93226
 Alpha  occ. eigenvalues --   -0.85216  -0.70887  -0.64277  -0.55090  -0.54152
 Alpha  occ. eigenvalues --   -0.47522  -0.45417  -0.40968  -0.38151  -0.27728
 Alpha virt. eigenvalues --    0.01519   0.06974   0.07572   0.08073   0.09909
 Alpha virt. eigenvalues --    0.11629   0.12543   0.14853   0.15814   0.16330
 Alpha virt. eigenvalues --    0.18960   0.20242   0.22119   0.22609   0.23662

 Mulliken charges:
               1
     1  C   -0.171404
     2  C   -0.036394
     3  C   -0.021064
     4  C   -0.174573
     5  H    0.082827
     6  H    0.071884
     7  H    0.060477
     8  H    0.044681
     9  H    0.056478
    10  H    0.087087
 Sum of Mulliken charges =   0.00000

 Dipole moment (field-independent basis, Debye):
    X=             -0.0419    Y=             -0.0210    Z=             -0.0506  Tot=              0.0690
 Quadrupole moment (field-independent basis, Debye-Ang):
   XX=            -23.1134   YY=            -23.3111   ZZ=            -29.1184
   XY=             -0.2030   XZ=             -0.2991   YZ=             -0.0609

 1\1\GINC-NODE06\SP\RB2PLYPD3-FC\def2QZVP\C4H6\BOITTIER\26-Aug-2020\0\\
 #p B2PLYPD3/Def2QZVP\\butadiene\\0,1\C,0,-3.83594,0.241191,0.035287\C,
 0,-2.734241,-0.505135,0.008683\C,0,-1.397367,0.028924,-0.002229\C,0,-0
 .242058,-0.630454,0.058234\H,0,-4.81986,-0.228386,0.167512\H,0,-3.8182
 56,1.309736,-0.043432\H,0,-2.805556,-1.564855,-0.011289\H,0,-1.326656,
 1.126835,-0.052667\H,0,-0.213097,-1.69204,0.057468\H,0,0.703932,-0.188
 846,0.009948\\Version=ES64L-G09RevD.01\State=1-A\HF=-155.6977399\MP2=-
 155.923003\RMSD=5.652e-09\PG=C01 [X(C4H6)]\\@

 Normal termination of Gaussian 09 at Wed Aug 26 08:59:28 2020.
