 Gaussian 09, Revision D.01,
 Gaussian 09:  ES64L-G09RevD.01 24-Apr-2013

 --------------------
 #p B2PLYPD3/Def2QZVP
 --------------------

 ---------
 butadiene
 ---------
 Symbolic Z-matrix:
 Charge =  0 Multiplicity = 1

                         Standard orientation:
 ---------------------------------------------------------------------
 Center     Atomic      Atomic             Coordinates (Angstroms)
 Number     Number       Type             X           Y           Z
 ---------------------------------------------------------------------
      1          6           0        1.845331    0.097590    0.043060
      2          6           0        0.601355   -0.406514   -0.088946
      3          6           0       -0.624238    0.421156   -0.024803
      4          6           0       -1.861303   -0.099684    0.021258
      5          1           0        2.747181   -0.556442   -0.008558
      6          1           0        2.238407    1.162772    0.244821
      7          1           0        0.490465   -1.433569   -0.074801
      8          1           0       -0.445801    1.519694   -0.147757
      9          1           0       -1.987846   -1.217269    0.279608
     10          1           0       -2.809268    0.449533    0.003268
 ---------------------------------------------------------------------

 SCF Done:  E(RB2PLYPD3) =  -155.681194729     A.U. after   11 cycles
 E2(B2PLYPD3) =    -0.2275512409D+00 E(B2PLYPD3) =    -0.15590874596999D+03

 The electronic state is 1-A.
 Alpha  occ. eigenvalues --  -10.63491 -10.63042 -10.62829 -10.62668  -0.92360
 Alpha  occ. eigenvalues --   -0.84266  -0.69569  -0.63931  -0.54746  -0.52370
 Alpha  occ. eigenvalues --   -0.47535  -0.43813  -0.40337  -0.37527  -0.27733
 Alpha virt. eigenvalues --    0.01334   0.06914   0.07119   0.08032   0.09033
 Alpha virt. eigenvalues --    0.11136   0.12261   0.14492   0.15623   0.16517
 Alpha virt. eigenvalues --    0.19080   0.19725   0.21733   0.21951   0.23039

 Mulliken charges:
               1
     1  C   -0.160109
     2  C   -0.047143
     3  C   -0.035876
     4  C   -0.167332
     5  H    0.068309
     6  H    0.063468
     7  H    0.076252
     8  H    0.062973
     9  H    0.053195
    10  H    0.086263
 Sum of Mulliken charges =   0.00000

 Dipole moment (field-independent basis, Debye):
    X=              0.0749    Y=              0.0077    Z=              0.1844  Tot=              0.1991
 Quadrupole moment (field-independent basis, Debye-Ang):
   XX=            -23.0413   YY=            -23.5257   ZZ=            -29.4223
   XY=              0.4007   XZ=              0.0724   YZ=             -0.1631

 1\1\GINC-NODE24\SP\RB2PLYPD3-FC\def2QZVP\C4H6\BOITTIER\26-Aug-2020\0\\
 #p B2PLYPD3/Def2QZVP\\butadiene\\0,1\C,0,-3.852955,0.217701,-0.028206\
 C,0,-2.72233,-0.503947,0.11298\C,0,-1.365885,0.084343,0.040856\C,0,-0.
 245159,-0.654815,0.004191\H,0,-4.859333,-0.25936,0.029863\H,0,-4.04432
 1,1.334133,-0.244512\H,0,-2.801441,-1.534034,0.112295\H,0,-1.340062,1.
 198489,0.149275\H,0,-0.325517,-1.779946,-0.23948\H,0,0.78737,-0.288323
 ,0.017173\\Version=ES64L-G09RevD.01\State=1-A\HF=-155.6811947\MP2=-155
 .908746\RMSD=5.666e-09\PG=C01 [X(C4H6)]\\@

 Normal termination of Gaussian 09 at Wed Aug 26 15:42:56 2020.
