 Gaussian 09, Revision D.01,
 Gaussian 09:  ES64L-G09RevD.01 24-Apr-2013

 --------------------
 #p B2PLYPD3/Def2QZVP
 --------------------

 ---------
 butadiene
 ---------
 Symbolic Z-matrix:
 Charge =  0 Multiplicity = 1

                         Standard orientation:
 ---------------------------------------------------------------------
 Center     Atomic      Atomic             Coordinates (Angstroms)
 Number     Number       Type             X           Y           Z
 ---------------------------------------------------------------------
      1          6           0       -1.818696    0.115168   -0.042117
      2          6           0       -0.586235   -0.453802    0.090236
      3          6           0        0.586798    0.356726    0.025949
      4          6           0        1.817235   -0.072877   -0.077555
      5          1           0       -2.780228   -0.413221   -0.085757
      6          1           0       -1.909923    1.283390   -0.283612
      7          1           0       -0.331542   -1.469992    0.159370
      8          1           0        0.413414    1.341555    0.373083
      9          1           0        2.071766   -1.083534   -0.195535
     10          1           0        2.541905    0.670503    0.053371
 ---------------------------------------------------------------------

 SCF Done:  E(RB2PLYPD3) =  -155.677283313     A.U. after   12 cycles
 E2(B2PLYPD3) =    -0.2264728745D+00 E(B2PLYPD3) =    -0.15590375618712D+03

 The electronic state is 1-A.
 Alpha  occ. eigenvalues --  -10.63526 -10.62487 -10.61030 -10.60160  -0.93822
 Alpha  occ. eigenvalues --   -0.84670  -0.70494  -0.64551  -0.54871  -0.53801
 Alpha  occ. eigenvalues --   -0.47453  -0.45223  -0.40810  -0.37573  -0.27655
 Alpha virt. eigenvalues --    0.01451   0.06968   0.07398   0.08019   0.09426
 Alpha virt. eigenvalues --    0.11679   0.12295   0.14782   0.14970   0.16350
 Alpha virt. eigenvalues --    0.18351   0.19894   0.21370   0.22346   0.24440

 Mulliken charges:
               1
     1  C   -0.159251
     2  C   -0.060130
     3  C    0.002948
     4  C   -0.200203
     5  H    0.086258
     6  H    0.054849
     7  H    0.059585
     8  H    0.063544
     9  H    0.069152
    10  H    0.083247
 Sum of Mulliken charges =   0.00000

 Dipole moment (field-independent basis, Debye):
    X=              0.0105    Y=             -0.1112    Z=              0.1009  Tot=              0.1505
 Quadrupole moment (field-independent basis, Debye-Ang):
   XX=            -23.7809   YY=            -23.3751   ZZ=            -28.9477
   XY=             -0.4209   XZ=              0.6675   YZ=              0.1893

 1\1\GINC-NODE39\SP\RB2PLYPD3-FC\def2QZVP\C4H6\BOITTIER\26-Aug-2020\0\\
 #p B2PLYPD3/Def2QZVP\\butadiene\\0,1\C,0,-3.812996,0.251862,-0.032816\
 C,0,-2.713447,-0.539144,0.126892\C,0,-1.406127,0.027781,0.045627\C,0,-
 0.281413,-0.633876,-0.034855\H,0,-4.858275,-0.08262,-0.066824\H,0,-3.6
 77085,1.407241,-0.312123\H,0,-2.659443,-1.582541,0.230314\H,0,-1.38690
 8,1.038394,0.359862\H,0,-0.226269,-1.677942,-0.118625\H,0,0.572766,-0.
 040075,0.077752\\Version=ES64L-G09RevD.01\State=1-A\HF=-155.6772833\MP
 2=-155.9037562\RMSD=5.961e-09\PG=C01 [X(C4H6)]\\@

 Normal termination of Gaussian 09 at Wed Aug 26 16:11:37 2020.
