 Gaussian 09, Revision D.01,
 Gaussian 09:  ES64L-G09RevD.01 24-Apr-2013

 --------------------
 #p B2PLYPD3/Def2QZVP
 --------------------

 ---------
 butadiene
 ---------
 Symbolic Z-matrix:
 Charge =  0 Multiplicity = 1

                         Standard orientation:
 ---------------------------------------------------------------------
 Center     Atomic      Atomic             Coordinates (Angstroms)
 Number     Number       Type             X           Y           Z
 ---------------------------------------------------------------------
      1          6           0        1.835175   -0.109016   -0.020185
      2          6           0        0.597875    0.403322    0.015039
      3          6           0       -0.607226   -0.389973    0.003816
      4          6           0       -1.837205    0.101176   -0.009456
      5          1           0        2.732535    0.491416   -0.012221
      6          1           0        1.984120   -1.203109    0.030591
      7          1           0        0.509308    1.496256    0.021218
      8          1           0       -0.451637   -1.477881    0.042054
      9          1           0       -1.987328    1.172952    0.017566
     10          1           0       -2.718711   -0.512690   -0.034492
 ---------------------------------------------------------------------

 SCF Done:  E(RB2PLYPD3) =  -155.700151791     A.U. after   11 cycles
 E2(B2PLYPD3) =    -0.2258098504D+00 E(B2PLYPD3) =    -0.15592596164132D+03

 The electronic state is 1-A.
 Alpha  occ. eigenvalues --  -10.62657 -10.62499 -10.61799 -10.61328  -0.93161
 Alpha  occ. eigenvalues --   -0.84972  -0.70192  -0.63763  -0.54879  -0.53790
 Alpha  occ. eigenvalues --   -0.46904  -0.45051  -0.41087  -0.38289  -0.27721
 Alpha virt. eigenvalues --    0.01696   0.07033   0.07335   0.08016   0.09722
 Alpha virt. eigenvalues --    0.11633   0.12513   0.14594   0.15847   0.16276
 Alpha virt. eigenvalues --    0.18779   0.20438   0.21699   0.22728   0.23691

 Mulliken charges:
               1
     1  C   -0.172413
     2  C   -0.029015
     3  C   -0.024162
     4  C   -0.173605
     5  H    0.086837
     6  H    0.058418
     7  H    0.050986
     8  H    0.050561
     9  H    0.063594
    10  H    0.088800
 Sum of Mulliken charges =   0.00000

 Dipole moment (field-independent basis, Debye):
    X=             -0.0034    Y=              0.0167    Z=              0.0736  Tot=              0.0755
 Quadrupole moment (field-independent basis, Debye-Ang):
   XX=            -23.2957   YY=            -23.2458   ZZ=            -29.2662
   XY=             -0.0201   XZ=              0.0805   YZ=             -0.0333

 1\1\GINC-NODE07\SP\RB2PLYPD3-FC\def2QZVP\C4H6\BOITTIER\26-Aug-2020\0\\
 #p B2PLYPD3/Def2QZVP\\butadiene\\0,1\C,0,-3.838934,0.222644,0.001077\C
 ,0,-2.71392,-0.50294,0.051191\C,0,-1.385776,0.059899,0.020236\C,0,-0.2
 6433,-0.644806,0.021302\H,0,-4.829666,-0.206031,0.023992\H,0,-3.788353
 ,1.326627,0.022678\H,0,-2.823472,-1.593419,0.08643\H,0,-1.342891,1.158
 667,0.02946\H,0,-0.309447,-1.725013,0.076881\H,0,0.713161,-0.200516,-0
 .019052\\Version=ES64L-G09RevD.01\State=1-A\HF=-155.7001518\MP2=-155.9
 259616\RMSD=4.405e-09\PG=C01 [X(C4H6)]\\@

 Normal termination of Gaussian 09 at Wed Aug 26 22:12:35 2020.
