 Gaussian 09, Revision D.01,
 Gaussian 09:  ES64L-G09RevD.01 24-Apr-2013

 --------------------
 #p B2PLYPD3/Def2QZVP
 --------------------

 ---------
 butadiene
 ---------
 Symbolic Z-matrix:
 Charge =  0 Multiplicity = 1

                         Standard orientation:
 ---------------------------------------------------------------------
 Center     Atomic      Atomic             Coordinates (Angstroms)
 Number     Number       Type             X           Y           Z
 ---------------------------------------------------------------------
      1          6           0       -1.868547   -0.114294    0.026445
      2          6           0       -0.608686    0.379352   -0.099876
      3          6           0        0.649783   -0.392926   -0.086314
      4          6           0        1.854077    0.124048    0.078796
      5          1           0       -2.728588    0.524922    0.261875
      6          1           0       -2.004912   -1.155704    0.138148
      7          1           0       -0.541291    1.442349   -0.089772
      8          1           0        0.435923   -1.412018    0.015228
      9          1           0        1.949745    1.197937    0.140233
     10          1           0        2.729364   -0.574571    0.019985
 ---------------------------------------------------------------------

 SCF Done:  E(RB2PLYPD3) =  -155.688721412     A.U. after   11 cycles
 E2(B2PLYPD3) =    -0.2262507530D+00 E(B2PLYPD3) =    -0.15591497216452D+03

 The electronic state is 1-A.
 Alpha  occ. eigenvalues --  -10.62688 -10.62259 -10.62021 -10.61719  -0.92815
 Alpha  occ. eigenvalues --   -0.85011  -0.70103  -0.64672  -0.54327  -0.53729
 Alpha  occ. eigenvalues --   -0.47166  -0.45756  -0.40893  -0.37676  -0.27827
 Alpha virt. eigenvalues --    0.01348   0.06888   0.07615   0.08049   0.09431
 Alpha virt. eigenvalues --    0.11770   0.12360   0.14635   0.15411   0.16356
 Alpha virt. eigenvalues --    0.18762   0.19608   0.21392   0.22928   0.24205

 Mulliken charges:
               1
     1  C   -0.175457
     2  C   -0.029370
     3  C   -0.040194
     4  C   -0.171292
     5  H    0.082335
     6  H    0.058349
     7  H    0.050709
     8  H    0.062879
     9  H    0.073202
    10  H    0.088838
 Sum of Mulliken charges =   0.00000

 Dipole moment (field-independent basis, Debye):
    X=              0.0589    Y=             -0.0030    Z=              0.3242  Tot=              0.3295
 Quadrupole moment (field-independent basis, Debye-Ang):
   XX=            -23.7509   YY=            -23.2355   ZZ=            -29.1911
   XY=             -0.0398   XZ=             -0.7381   YZ=              0.0699

 1\1\GINC-NODE36\SP\RB2PLYPD3-FC\def2QZVP\C4H6\BOITTIER\26-Aug-2020\0\\
 #p B2PLYPD3/Def2QZVP\\butadiene\\0,1\C,0,-3.876436,0.217872,-0.027899\
 C,0,-2.72074,-0.481287,0.121888\C,0,-1.348037,0.062169,0.095752\C,0,-0
 .250373,-0.658958,-0.045516\H,0,-4.833132,-0.270443,-0.251453\H,0,-3.8
 31123,1.263475,-0.170266\H,0,-2.837408,-1.539855,0.142599\H,0,-1.38292
 9,1.099431,-0.036403\H,0,-0.340939,-1.734624,-0.075594\H,0,0.73201,-0.
 119964,-0.000084\\Version=ES64L-G09RevD.01\State=1-A\HF=-155.6887214\M
 P2=-155.9149722\RMSD=6.724e-09\PG=C01 [X(C4H6)]\\@

 Normal termination of Gaussian 09 at Wed Aug 26 14:45:32 2020.
