 Gaussian 09, Revision D.01,
 Gaussian 09:  ES64L-G09RevD.01 24-Apr-2013

 --------------------
 #p B2PLYPD3/Def2QZVP
 --------------------

 ---------
 butadiene
 ---------
 Symbolic Z-matrix:
 Charge =  0 Multiplicity = 1

                         Standard orientation:
 ---------------------------------------------------------------------
 Center     Atomic      Atomic             Coordinates (Angstroms)
 Number     Number       Type             X           Y           Z
 ---------------------------------------------------------------------
      1          6           0        1.825399   -0.106725    0.006290
      2          6           0        0.601698    0.397913   -0.024117
      3          6           0       -0.597064   -0.421224   -0.003404
      4          6           0       -1.832059    0.114790    0.015146
      5          1           0        2.699859    0.543718    0.037868
      6          1           0        2.014530   -1.162080   -0.005286
      7          1           0        0.487893    1.476238    0.032433
      8          1           0       -0.456718   -1.473719    0.002861
      9          1           0       -1.979585    1.178906   -0.025817
     10          1           0       -2.753821   -0.471595   -0.005544
 ---------------------------------------------------------------------

 SCF Done:  E(RB2PLYPD3) =  -155.700239634     A.U. after   11 cycles
 E2(B2PLYPD3) =    -0.2255798702D+00 E(B2PLYPD3) =    -0.15592581950417D+03

 The electronic state is 1-A.
 Alpha  occ. eigenvalues --  -10.62520 -10.62270 -10.61684 -10.61223  -0.93121
 Alpha  occ. eigenvalues --   -0.84823  -0.70069  -0.64543  -0.54540  -0.54084
 Alpha  occ. eigenvalues --   -0.46674  -0.45523  -0.41310  -0.38182  -0.27613
 Alpha virt. eigenvalues --    0.01807   0.07014   0.07466   0.08080   0.09461
 Alpha virt. eigenvalues --    0.11695   0.12541   0.14710   0.15841   0.16249
 Alpha virt. eigenvalues --    0.18770   0.20425   0.21810   0.22948   0.23839

 Mulliken charges:
               1
     1  C   -0.176567
     2  C   -0.023039
     3  C   -0.040936
     4  C   -0.171614
     5  H    0.081215
     6  H    0.065526
     7  H    0.056975
     8  H    0.062400
     9  H    0.064655
    10  H    0.081385
 Sum of Mulliken charges =   0.00000

 Dipole moment (field-independent basis, Debye):
    X=              0.0072    Y=             -0.0071    Z=              0.0099  Tot=              0.0142
 Quadrupole moment (field-independent basis, Debye-Ang):
   XX=            -23.4713   YY=            -23.0710   ZZ=            -29.2427
   XY=             -0.2257   XZ=              0.2074   YZ=              0.0493

 1\1\GINC-NODE30\SP\RB2PLYPD3-FC\def2QZVP\C4H6\BOITTIER\26-Aug-2020\0\\
 #p B2PLYPD3/Def2QZVP\\butadiene\\0,1\C,0,-3.828469,0.219457,0.027946\C
 ,0,-2.716598,-0.499284,0.01448\C,0,-1.389204,0.089304,0.00854\C,0,-0.2
 71629,-0.660737,0.04504\H,0,-4.806078,-0.26039,0.080683\H,0,-3.823394,
 1.290674,-0.0184\H,0,-2.799656,-1.577971,0.106513\H,0,-1.336568,1.1494
 48,-0.019869\H,0,-0.319507,-1.734728,0.039153\H,0,0.740959,-0.252071,0
 .005306\\Version=ES64L-G09RevD.01\State=1-A\HF=-155.7002396\MP2=-155.9
 258195\RMSD=5.194e-09\PG=C01 [X(C4H6)]\\@

 Normal termination of Gaussian 09 at Wed Aug 26 21:48:45 2020.
