 Gaussian 09, Revision D.01,
 Gaussian 09:  ES64L-G09RevD.01 24-Apr-2013

 --------------------
 #p B2PLYPD3/Def2QZVP
 --------------------

 ---------
 butadiene
 ---------
 Symbolic Z-matrix:
 Charge =  0 Multiplicity = 1

                         Standard orientation:
 ---------------------------------------------------------------------
 Center     Atomic      Atomic             Coordinates (Angstroms)
 Number     Number       Type             X           Y           Z
 ---------------------------------------------------------------------
      1          6           0        1.842806    0.086888   -0.002624
      2          6           0        0.606845   -0.382676    0.010820
      3          6           0       -0.598697    0.433495    0.004079
      4          6           0       -1.845195   -0.135639   -0.016378
      5          1           0        2.711923   -0.559591    0.014440
      6          1           0        1.966624    1.159409   -0.136791
      7          1           0        0.425196   -1.410583    0.053159
      8          1           0       -0.434547    1.496730    0.136770
      9          1           0       -1.955653   -1.190513   -0.035879
     10          1           0       -2.748103    0.492139   -0.007083
 ---------------------------------------------------------------------

 SCF Done:  E(RB2PLYPD3) =  -155.696039209     A.U. after   11 cycles
 E2(B2PLYPD3) =    -0.2261731828D+00 E(B2PLYPD3) =    -0.15592221239210D+03

 The electronic state is 1-A.
 Alpha  occ. eigenvalues --  -10.63074 -10.62152 -10.61750 -10.61307  -0.93004
 Alpha  occ. eigenvalues --   -0.84582  -0.70200  -0.64669  -0.54528  -0.53721
 Alpha  occ. eigenvalues --   -0.46843  -0.45954  -0.41365  -0.37856  -0.27471
 Alpha virt. eigenvalues --    0.01474   0.07032   0.07487   0.08129   0.09328
 Alpha virt. eigenvalues --    0.11731   0.12498   0.14679   0.15591   0.16140
 Alpha virt. eigenvalues --    0.18663   0.20210   0.21656   0.23199   0.23884

 Mulliken charges:
               1
     1  C   -0.180220
     2  C   -0.020117
     3  C   -0.041608
     4  C   -0.184420
     5  H    0.088552
     6  H    0.062347
     7  H    0.055745
     8  H    0.060298
     9  H    0.073168
    10  H    0.086255
 Sum of Mulliken charges =   0.00000

 Dipole moment (field-independent basis, Debye):
    X=             -0.0257    Y=             -0.0519    Z=              0.0281  Tot=              0.0644
 Quadrupole moment (field-independent basis, Debye-Ang):
   XX=            -23.6155   YY=            -23.1198   ZZ=            -29.2865
   XY=              0.1099   XZ=             -0.1771   YZ=             -0.0207

 1\1\GINC-NODE31\SP\RB2PLYPD3-FC\def2QZVP\C4H6\BOITTIER\26-Aug-2020\0\\
 #p B2PLYPD3/Def2QZVP\\butadiene\\0,1\C,0,-3.848249,0.204241,0.023148\C
 ,0,-2.717757,-0.481511,0.024594\C,0,-1.384403,0.10274,0.006394\C,0,-0.
 261386,-0.681763,0.044812\H,0,-4.820084,-0.274424,0.025869\H,0,-3.7752
 19,1.285041,0.124005\H,0,-2.725348,-1.526123,0.014156\H,0,-1.354142,1.
 173573,-0.159202\H,0,-0.343542,-1.73811,0.096999\H,0,0.740157,-0.22840
 3,0.016333\\Version=ES64L-G09RevD.01\State=1-A\HF=-155.6960392\MP2=-15
 5.9222124\RMSD=6.036e-09\PG=C01 [X(C4H6)]\\@

 Normal termination of Gaussian 09 at Wed Aug 26 10:05:34 2020.
