 Gaussian 09, Revision D.01,
 Gaussian 09:  ES64L-G09RevD.01 24-Apr-2013

 --------------------
 #p B2PLYPD3/Def2QZVP
 --------------------

 ---------
 butadiene
 ---------
 Symbolic Z-matrix:
 Charge =  0 Multiplicity = 1

                         Standard orientation:
 ---------------------------------------------------------------------
 Center     Atomic      Atomic             Coordinates (Angstroms)
 Number     Number       Type             X           Y           Z
 ---------------------------------------------------------------------
      1          6           0        1.844714    0.118471    0.001984
      2          6           0        0.608845   -0.402520   -0.018654
      3          6           0       -0.615407    0.386512   -0.015061
      4          6           0       -1.840619   -0.113211    0.001315
      5          1           0        2.697645   -0.523167    0.058996
      6          1           0        2.011180    1.204005    0.011432
      7          1           0        0.491291   -1.493246    0.012585
      8          1           0       -0.520643    1.475714    0.028048
      9          1           0       -2.002858   -1.162596    0.032677
     10          1           0       -2.661814    0.563777    0.038760
 ---------------------------------------------------------------------

 SCF Done:  E(RB2PLYPD3) =  -155.700101315     A.U. after   11 cycles
 E2(B2PLYPD3) =    -0.2254896053D+00 E(B2PLYPD3) =    -0.15592559092041D+03

 The electronic state is 1-A.
 Alpha  occ. eigenvalues --  -10.62764 -10.62308 -10.61655 -10.60862  -0.92940
 Alpha  occ. eigenvalues --   -0.85188  -0.70163  -0.63782  -0.54561  -0.54290
 Alpha  occ. eigenvalues --   -0.46465  -0.45851  -0.41147  -0.38088  -0.27784
 Alpha virt. eigenvalues --    0.01813   0.07025   0.07393   0.08031   0.09716
 Alpha virt. eigenvalues --    0.11715   0.12338   0.14776   0.15883   0.16082
 Alpha virt. eigenvalues --    0.18773   0.20518   0.21466   0.22777   0.24091

 Mulliken charges:
               1
     1  C   -0.175837
     2  C   -0.036830
     3  C   -0.019416
     4  C   -0.179697
     5  H    0.087971
     6  H    0.067407
     7  H    0.051564
     8  H    0.048951
     9  H    0.068620
    10  H    0.087268
 Sum of Mulliken charges =   0.00000

 Dipole moment (field-independent basis, Debye):
    X=             -0.0011    Y=             -0.0038    Z=              0.1457  Tot=              0.1457
 Quadrupole moment (field-independent basis, Debye-Ang):
   XX=            -23.6207   YY=            -22.9843   ZZ=            -29.2444
   XY=              0.0201   XZ=              0.0136   YZ=             -0.0209

 1\1\GINC-NODE26\SP\RB2PLYPD3-FC\def2QZVP\C4H6\BOITTIER\26-Aug-2020\0\\
 #p B2PLYPD3/Def2QZVP\\butadiene\\0,1\C,0,-3.846752,0.229076,0.012465\C
 ,0,-2.722596,-0.501725,0.050329\C,0,-1.377999,0.057606,0.026163\C,0,-0
 .26069,-0.651447,0.026396\H,0,-4.800003,-0.252748,-0.027538\H,0,-3.818
 411,1.326206,-0.02859\H,0,-2.800132,-1.59647,0.050776\H,0,-1.278553,1.
 144682,-0.048517\H,0,-0.286927,-1.713438,0.025607\H,0,0.667269,-0.1319
 38,-0.029096\\Version=ES64L-G09RevD.01\State=1-A\HF=-155.7001013\MP2=-
 155.9255909\RMSD=4.919e-09\PG=C01 [X(C4H6)]\\@

 Normal termination of Gaussian 09 at Wed Aug 26 18:53:02 2020.
