 Gaussian 09, Revision D.01,
 Gaussian 09:  ES64L-G09RevD.01 24-Apr-2013

 --------------------
 #p B2PLYPD3/Def2QZVP
 --------------------

 ---------
 butadiene
 ---------
 Symbolic Z-matrix:
 Charge =  0 Multiplicity = 1

                         Standard orientation:
 ---------------------------------------------------------------------
 Center     Atomic      Atomic             Coordinates (Angstroms)
 Number     Number       Type             X           Y           Z
 ---------------------------------------------------------------------
      1          6           0       -1.836224    0.110173   -0.043010
      2          6           0       -0.602189   -0.415654    0.006966
      3          6           0        0.588597    0.397210    0.014876
      4          6           0        1.829091   -0.095025   -0.022026
      5          1           0       -2.741738   -0.511690    0.121049
      6          1           0       -1.902943    1.231488   -0.079103
      7          1           0       -0.406016   -1.470565    0.104370
      8          1           0        0.496106    1.484295    0.171189
      9          1           0        1.966668   -1.200413   -0.050339
     10          1           0        2.712269    0.486668   -0.007999
 ---------------------------------------------------------------------

 SCF Done:  E(RB2PLYPD3) =  -155.694166709     A.U. after   11 cycles
 E2(B2PLYPD3) =    -0.2266332806D+00 E(B2PLYPD3) =    -0.15592079998920D+03

 The electronic state is 1-A.
 Alpha  occ. eigenvalues --  -10.62612 -10.62512 -10.62411 -10.61558  -0.93194
 Alpha  occ. eigenvalues --   -0.84647  -0.69873  -0.63828  -0.54649  -0.53383
 Alpha  occ. eigenvalues --   -0.46838  -0.44798  -0.41350  -0.37952  -0.27615
 Alpha virt. eigenvalues --    0.01541   0.07081   0.07212   0.07971   0.09482
 Alpha virt. eigenvalues --    0.11682   0.12459   0.14413   0.15665   0.16156
 Alpha virt. eigenvalues --    0.18710   0.19866   0.21536   0.22790   0.24007

 Mulliken charges:
               1
     1  C   -0.169144
     2  C   -0.035659
     3  C   -0.019784
     4  C   -0.178514
     5  H    0.088454
     6  H    0.063365
     7  H    0.057354
     8  H    0.050712
     9  H    0.052753
    10  H    0.090463
 Sum of Mulliken charges =   0.00000

 Dipole moment (field-independent basis, Debye):
    X=              0.0708    Y=             -0.0089    Z=              0.2586  Tot=              0.2683
 Quadrupole moment (field-independent basis, Debye-Ang):
   XX=            -23.6203   YY=            -23.2611   ZZ=            -29.3107
   XY=              0.0775   XZ=             -0.3165   YZ=             -0.0530

 1\1\GINC-NODE24\SP\RB2PLYPD3-FC\def2QZVP\C4H6\BOITTIER\26-Aug-2020\0\\
 #p B2PLYPD3/Def2QZVP\\butadiene\\0,1\C,0,-3.835376,0.225951,-0.014709\
 C,0,-2.717151,-0.513779,0.050135\C,0,-1.398465,0.068947,0.033377\C,0,-
 0.268297,-0.641456,0.010384\H,0,-4.837825,-0.215915,0.168145\H,0,-3.69
 7457,1.339186,-0.0839\H,0,-2.715346,-1.583502,0.178579\H,0,-1.290973,1
 .158797,0.157533\H,0,-0.334025,-1.753784,0.01469\H,0,0.705939,-0.22985
 2,0.006739\\Version=ES64L-G09RevD.01\State=1-A\HF=-155.6941667\MP2=-15
 5.9208\RMSD=7.150e-09\PG=C01 [X(C4H6)]\\@

 Normal termination of Gaussian 09 at Wed Aug 26 09:14:30 2020.
