 Gaussian 09, Revision D.01,
 Gaussian 09:  ES64L-G09RevD.01 24-Apr-2013

 --------------------
 #p B2PLYPD3/Def2QZVP
 --------------------

 ---------
 butadiene
 ---------
 Symbolic Z-matrix:
 Charge =  0 Multiplicity = 1

                         Standard orientation:
 ---------------------------------------------------------------------
 Center     Atomic      Atomic             Coordinates (Angstroms)
 Number     Number       Type             X           Y           Z
 ---------------------------------------------------------------------
      1          6           0       -1.850785    0.096203   -0.037282
      2          6           0       -0.593352   -0.381811    0.048209
      3          6           0        0.613023    0.409252    0.017858
      4          6           0        1.844710   -0.125317   -0.019009
      5          1           0       -2.719496   -0.574887   -0.060913
      6          1           0       -2.033444    1.161024   -0.086623
      7          1           0       -0.442391   -1.466076    0.145137
      8          1           0        0.433237    1.499751    0.141904
      9          1           0        2.042886   -1.174063   -0.144475
     10          1           0        2.637636    0.564292   -0.053680
 ---------------------------------------------------------------------

 SCF Done:  E(RB2PLYPD3) =  -155.696542509     A.U. after   11 cycles
 E2(B2PLYPD3) =    -0.2264232024D+00 E(B2PLYPD3) =    -0.15592296571161D+03

 The electronic state is 1-A.
 Alpha  occ. eigenvalues --  -10.62910 -10.62600 -10.61857 -10.61380  -0.92893
 Alpha  occ. eigenvalues --   -0.84717  -0.70568  -0.63598  -0.54397  -0.53958
 Alpha  occ. eigenvalues --   -0.46634  -0.45927  -0.41102  -0.37810  -0.27500
 Alpha virt. eigenvalues --    0.01373   0.07044   0.07332   0.08008   0.09547
 Alpha virt. eigenvalues --    0.11669   0.12300   0.14921   0.15671   0.15938
 Alpha virt. eigenvalues --    0.18727   0.20393   0.21581   0.22655   0.23647

 Mulliken charges:
               1
     1  C   -0.181723
     2  C   -0.025005
     3  C   -0.033368
     4  C   -0.180992
     5  H    0.087770
     6  H    0.064862
     7  H    0.051015
     8  H    0.053833
     9  H    0.077222
    10  H    0.086388
 Sum of Mulliken charges =   0.00000

 Dipole moment (field-independent basis, Debye):
    X=              0.0334    Y=             -0.0036    Z=             -0.0286  Tot=              0.0441
 Quadrupole moment (field-independent basis, Debye-Ang):
   XX=            -23.6702   YY=            -23.0673   ZZ=            -29.3017
   XY=             -0.2946   XZ=             -0.0990   YZ=              0.1060

 1\1\GINC-NODE33\SP\RB2PLYPD3-FC\def2QZVP\C4H6\BOITTIER\26-Aug-2020\0\\
 #p B2PLYPD3/Def2QZVP\\butadiene\\0,1\C,0,-3.855723,0.218655,-0.016615\
 C,0,-2.707024,-0.47999,0.07997\C,0,-1.376142,0.075644,0.034519\C,0,-0.
 263464,-0.676366,0.009913\H,0,-4.83282,-0.282091,-0.027271\H,0,-3.8401
 76,1.297679,-0.088084\H,0,-2.757163,-1.571338,0.199385\H,0,-1.352576,1
 .182925,0.135874\H,0,-0.261299,-1.746012,-0.093704\H,0,0.642365,-0.144
 714,-0.038178\\Version=ES64L-G09RevD.01\State=1-A\HF=-155.6965425\MP2=
 -155.9229657\RMSD=6.530e-09\PG=C01 [X(C4H6)]\\@

 Normal termination of Gaussian 09 at Wed Aug 26 10:30:50 2020.
