 Gaussian 09, Revision D.01,
 Gaussian 09:  ES64L-G09RevD.01 24-Apr-2013

 --------------------
 #p B2PLYPD3/Def2QZVP
 --------------------

 ---------
 butadiene
 ---------
 Symbolic Z-matrix:
 Charge =  0 Multiplicity = 1

                         Standard orientation:
 ---------------------------------------------------------------------
 Center     Atomic      Atomic             Coordinates (Angstroms)
 Number     Number       Type             X           Y           Z
 ---------------------------------------------------------------------
      1          6           0        1.849773   -0.126819    0.004709
      2          6           0        0.612170    0.422687   -0.024257
      3          6           0       -0.606579   -0.398481   -0.036885
      4          6           0       -1.862317    0.097652    0.013555
      5          1           0        2.715163    0.509438    0.030646
      6          1           0        2.043817   -1.177775    0.082505
      7          1           0        0.458907    1.528164    0.072847
      8          1           0       -0.454444   -1.462838   -0.009773
      9          1           0       -1.983386    1.174296   -0.018186
     10          1           0       -2.738339   -0.541511    0.099227
 ---------------------------------------------------------------------

 SCF Done:  E(RB2PLYPD3) =  -155.696861913     A.U. after   11 cycles
 E2(B2PLYPD3) =    -0.2266986831D+00 E(B2PLYPD3) =    -0.15592356059562D+03

 The electronic state is 1-A.
 Alpha  occ. eigenvalues --  -10.63502 -10.62727 -10.61823 -10.61771  -0.92401
 Alpha  occ. eigenvalues --   -0.84492  -0.70155  -0.63940  -0.54453  -0.53551
 Alpha  occ. eigenvalues --   -0.46717  -0.45664  -0.41263  -0.37611  -0.27438
 Alpha virt. eigenvalues --    0.01391   0.07004   0.07338   0.08060   0.09210
 Alpha virt. eigenvalues --    0.11652   0.12424   0.14625   0.15739   0.16146
 Alpha virt. eigenvalues --    0.18824   0.20309   0.21669   0.23167   0.23563

 Mulliken charges:
               1
     1  C   -0.175867
     2  C   -0.038085
     3  C   -0.027772
     4  C   -0.180796
     5  H    0.083523
     6  H    0.072003
     7  H    0.054746
     8  H    0.056533
     9  H    0.065170
    10  H    0.090545
 Sum of Mulliken charges =   0.00000

 Dipole moment (field-independent basis, Debye):
    X=              0.0491    Y=             -0.0389    Z=              0.1974  Tot=              0.2072
 Quadrupole moment (field-independent basis, Debye-Ang):
   XX=            -23.5007   YY=            -23.0755   ZZ=            -29.4385
   XY=             -0.2188   XZ=              0.0279   YZ=             -0.0782

 1\1\GINC-NODE27\SP\RB2PLYPD3-FC\def2QZVP\C4H6\BOITTIER\26-Aug-2020\0\\
 #p B2PLYPD3/Def2QZVP\\butadiene\\0,1\C,0,-3.849654,0.241971,0.028849\C
 ,0,-2.731138,-0.521707,0.01561\C,0,-1.384641,0.066296,-0.016396\C,0,-0
 .238428,-0.64614,0.048403\H,0,-4.815259,-0.227409,0.069901\H,0,-3.8512
 96,1.31232,0.079468\H,0,-2.778841,-1.633893,0.141174\H,0,-1.342815,1.1
 40999,-0.016731\H,0,-0.313039,-1.727457,0.044383\H,0,0.738525,-0.17297
 9,0.118864\\Version=ES64L-G09RevD.01\State=1-A\HF=-155.6968619\MP2=-15
 5.9235606\RMSD=5.853e-09\PG=C01 [X(C4H6)]\\@

 Normal termination of Gaussian 09 at Wed Aug 26 10:52:46 2020.
