 Gaussian 09, Revision D.01,
 Gaussian 09:  ES64L-G09RevD.01 24-Apr-2013

 --------------------
 #p B2PLYPD3/Def2QZVP
 --------------------

 ---------
 butadiene
 ---------
 Symbolic Z-matrix:
 Charge =  0 Multiplicity = 1

                         Standard orientation:
 ---------------------------------------------------------------------
 Center     Atomic      Atomic             Coordinates (Angstroms)
 Number     Number       Type             X           Y           Z
 ---------------------------------------------------------------------
      1          6           0       -1.875013    0.100355    0.010612
      2          6           0       -0.608567   -0.358279   -0.038979
      3          6           0        0.609732    0.402405   -0.044061
      4          6           0        1.857184   -0.110019    0.034762
      5          1           0       -2.579251   -0.731382    0.178654
      6          1           0       -2.178484    1.159022    0.111797
      7          1           0       -0.363924   -1.451087   -0.076597
      8          1           0        0.436189    1.514274   -0.147741
      9          1           0        1.966516   -1.162529   -0.048218
     10          1           0        2.818948    0.464928    0.208102
 ---------------------------------------------------------------------

 SCF Done:  E(RB2PLYPD3) =  -155.684494506     A.U. after   11 cycles
 E2(B2PLYPD3) =    -0.2278507785D+00 E(B2PLYPD3) =    -0.15591234528500D+03

 The electronic state is 1-A.
 Alpha  occ. eigenvalues --  -10.63203 -10.63131 -10.62451 -10.62440  -0.92876
 Alpha  occ. eigenvalues --   -0.84541  -0.70531  -0.63063  -0.53989  -0.53494
 Alpha  occ. eigenvalues --   -0.46549  -0.45592  -0.40628  -0.37550  -0.27480
 Alpha virt. eigenvalues --    0.00886   0.06852   0.07238   0.07845   0.09614
 Alpha virt. eigenvalues --    0.11470   0.12250   0.14731   0.15512   0.15887
 Alpha virt. eigenvalues --    0.18826   0.20638   0.21100   0.22116   0.23871

 Mulliken charges:
               1
     1  C   -0.178105
     2  C   -0.024252
     3  C   -0.023624
     4  C   -0.175237
     5  H    0.082645
     6  H    0.079482
     7  H    0.041528
     8  H    0.046034
     9  H    0.062326
    10  H    0.089204
 Sum of Mulliken charges =   0.00000

 Dipole moment (field-independent basis, Debye):
    X=              0.1082    Y=             -0.0153    Z=              0.1631  Tot=              0.1963
 Quadrupole moment (field-independent basis, Debye-Ang):
   XX=            -23.6650   YY=            -23.3627   ZZ=            -29.4053
   XY=             -0.5303   XZ=             -0.2464   YZ=              0.0824

 1\1\GINC-NODE15\SP\RB2PLYPD3-FC\def2QZVP\C4H6\BOITTIER\26-Aug-2020\0\\
 #p B2PLYPD3/Def2QZVP\\butadiene\\0,1\C,0,-3.874801,0.226925,0.036308\C
 ,0,-2.715183,-0.459216,0.001851\C,0,-1.377407,0.06265,-0.028641\C,0,-0
 .245588,-0.668622,0.067036\H,0,-4.719474,-0.45441,0.231976\H,0,-3.9768
 86,1.326167,0.102283\H,0,-2.67682,-1.579047,0.000549\H,0,-1.343256,1.1
 83452,-0.169199\H,0,-0.333047,-1.725347,0.019072\H,0,0.806882,-0.27596
 2,0.221068\\Version=ES64L-G09RevD.01\State=1-A\HF=-155.6844945\MP2=-15
 5.9123453\RMSD=4.126e-09\PG=C01 [X(C4H6)]\\@

 Normal termination of Gaussian 09 at Wed Aug 26 13:12:37 2020.
