 Gaussian 09, Revision D.01,
 Gaussian 09:  ES64L-G09RevD.01 24-Apr-2013

 --------------------
 #p B2PLYPD3/Def2QZVP
 --------------------

 ---------
 butadiene
 ---------
 Symbolic Z-matrix:
 Charge =  0 Multiplicity = 1

                         Standard orientation:
 ---------------------------------------------------------------------
 Center     Atomic      Atomic             Coordinates (Angstroms)
 Number     Number       Type             X           Y           Z
 ---------------------------------------------------------------------
      1          6           0       -1.841203   -0.132996   -0.074831
      2          6           0       -0.601318    0.412065    0.050432
      3          6           0        0.618983   -0.368040    0.035513
      4          6           0        1.844208    0.120196   -0.039345
      5          1           0       -2.752255    0.434709   -0.005180
      6          1           0       -1.911565   -1.200200   -0.025074
      7          1           0       -0.600407    1.549508    0.207608
      8          1           0        0.480075   -1.406889    0.164808
      9          1           0        2.076846    1.111372   -0.174596
     10          1           0        2.583279   -0.675850    0.001822
 ---------------------------------------------------------------------

 SCF Done:  E(RB2PLYPD3) =  -155.688520383     A.U. after   11 cycles
 E2(B2PLYPD3) =    -0.2261563189D+00 E(B2PLYPD3) =    -0.15591467670224D+03

 The electronic state is 1-A.
 Alpha  occ. eigenvalues --  -10.63308 -10.62045 -10.61552 -10.60808  -0.93067
 Alpha  occ. eigenvalues --   -0.85121  -0.70396  -0.63994  -0.55064  -0.53925
 Alpha  occ. eigenvalues --   -0.47297  -0.45025  -0.41389  -0.37571  -0.27675
 Alpha virt. eigenvalues --    0.01505   0.07040   0.07391   0.07933   0.09623
 Alpha virt. eigenvalues --    0.11669   0.12347   0.14798   0.15791   0.16144
 Alpha virt. eigenvalues --    0.18816   0.20232   0.21242   0.22422   0.24354

 Mulliken charges:
               1
     1  C   -0.172687
     2  C   -0.041230
     3  C   -0.022125
     4  C   -0.180013
     5  H    0.084882
     6  H    0.057952
     7  H    0.048866
     8  H    0.058904
     9  H    0.086527
    10  H    0.078925
 Sum of Mulliken charges =   0.00000

 Dipole moment (field-independent basis, Debye):
    X=              0.0027    Y=             -0.0213    Z=              0.1935  Tot=              0.1947
 Quadrupole moment (field-independent basis, Debye-Ang):
   XX=            -23.8074   YY=            -23.0203   ZZ=            -29.1867
   XY=             -0.0022   XZ=             -0.3928   YZ=             -0.1634

 1\1\GINC-NODE33\SP\RB2PLYPD3-FC\def2QZVP\C4H6\BOITTIER\26-Aug-2020\0\\
 #p B2PLYPD3/Def2QZVP\\butadiene\\0,1\C,0,-3.844177,0.240729,0.081867\C
 ,0,-2.71782,-0.514833,-0.020809\C,0,-1.380581,0.041679,-0.023058\C,0,-
 0.258747,-0.649339,0.072524\H,0,-4.839993,-0.162049,0.024621\H,0,-3.72
 8144,1.30194,-0.000107\H,0,-2.914495,-1.639397,-0.143924\H,0,-1.336995
 ,1.084468,-0.184032\H,0,-0.201747,-1.661291,0.238498\H,0,0.60733,0.004
 704,0.011314\\Version=ES64L-G09RevD.01\State=1-A\HF=-155.6885204\MP2=-
 155.9146767\RMSD=7.807e-09\PG=C01 [X(C4H6)]\\@

 Normal termination of Gaussian 09 at Wed Aug 26 14:43:32 2020.
