 Gaussian 09, Revision D.01,
 Gaussian 09:  ES64L-G09RevD.01 24-Apr-2013

 --------------------
 #p B2PLYPD3/Def2QZVP
 --------------------

 ---------
 butadiene
 ---------
 Symbolic Z-matrix:
 Charge =  0 Multiplicity = 1

                         Standard orientation:
 ---------------------------------------------------------------------
 Center     Atomic      Atomic             Coordinates (Angstroms)
 Number     Number       Type             X           Y           Z
 ---------------------------------------------------------------------
      1          6           0        1.840742    0.093911   -0.014773
      2          6           0        0.593875   -0.398320    0.005741
      3          6           0       -0.602303    0.419351    0.019970
      4          6           0       -1.825596   -0.113042   -0.027259
      5          1           0        2.727403   -0.493166    0.037997
      6          1           0        2.018754    1.153507   -0.080086
      7          1           0        0.403673   -1.472164    0.056875
      8          1           0       -0.485239    1.489523    0.084096
      9          1           0       -1.977785   -1.182979   -0.013934
     10          1           0       -2.727110    0.493877    0.012976
 ---------------------------------------------------------------------

 SCF Done:  E(RB2PLYPD3) =  -155.700280263     A.U. after   11 cycles
 E2(B2PLYPD3) =    -0.2257488936D+00 E(B2PLYPD3) =    -0.15592602915686D+03

 The electronic state is 1-A.
 Alpha  occ. eigenvalues --  -10.62692 -10.62431 -10.61553 -10.61341  -0.93076
 Alpha  occ. eigenvalues --   -0.84771  -0.70363  -0.64307  -0.54940  -0.53710
 Alpha  occ. eigenvalues --   -0.46969  -0.45455  -0.41248  -0.38103  -0.27581
 Alpha virt. eigenvalues --    0.01664   0.07054   0.07398   0.08119   0.09497
 Alpha virt. eigenvalues --    0.11660   0.12605   0.14694   0.15914   0.16206
 Alpha virt. eigenvalues --    0.18818   0.20520   0.21845   0.22947   0.23516

 Mulliken charges:
               1
     1  C   -0.176270
     2  C   -0.029447
     3  C   -0.029571
     4  C   -0.172534
     5  H    0.086372
     6  H    0.062573
     7  H    0.054484
     8  H    0.058761
     9  H    0.063382
    10  H    0.082251
 Sum of Mulliken charges =   0.00000

 Dipole moment (field-independent basis, Debye):
    X=             -0.0219    Y=              0.0195    Z=              0.1077  Tot=              0.1116
 Quadrupole moment (field-independent basis, Debye-Ang):
   XX=            -23.3043   YY=            -23.1972   ZZ=            -29.2440
   XY=              0.2847   XZ=             -0.0723   YZ=             -0.0670

 1\1\GINC-NODE02\SP\RB2PLYPD3-FC\def2QZVP\C4H6\BOITTIER\26-Aug-2020\0\\
 #p B2PLYPD3/Def2QZVP\\butadiene\\0,1\C,0,-3.843614,0.215699,0.032937\C
 ,0,-2.708532,-0.4977,0.026643\C,0,-1.382524,0.085512,-0.007957\C,0,-0.
 277732,-0.66125,0.054504\H,0,-4.823262,-0.199569,-0.005212\H,0,-3.8236
 13,1.291299,0.070113\H,0,-2.719114,-1.589171,0.004029\H,0,-1.301171,1.
 156922,-0.100393\H,0,-0.324815,-1.740908,0.069545\H,0,0.719801,-0.2316
 42,-0.000828\\Version=ES64L-G09RevD.01\State=1-A\HF=-155.7002803\MP2=-
 155.9260292\RMSD=2.772e-09\PG=C01 [X(C4H6)]\\@

 Normal termination of Gaussian 09 at Wed Aug 26 16:24:53 2020.
