 Gaussian 09, Revision D.01,
 Gaussian 09:  ES64L-G09RevD.01 24-Apr-2013

 --------------------
 #p B2PLYPD3/Def2QZVP
 --------------------

 ---------
 butadiene
 ---------
 Symbolic Z-matrix:
 Charge =  0 Multiplicity = 1

                         Standard orientation:
 ---------------------------------------------------------------------
 Center     Atomic      Atomic             Coordinates (Angstroms)
 Number     Number       Type             X           Y           Z
 ---------------------------------------------------------------------
      1          6           0        1.832834   -0.111403   -0.006559
      2          6           0        0.612589    0.415045    0.008455
      3          6           0       -0.597501   -0.395934    0.026495
      4          6           0       -1.839299    0.105704   -0.017399
      5          1           0        2.737978    0.468902   -0.010865
      6          1           0        1.904356   -1.190319   -0.029634
      7          1           0        0.456484    1.486349    0.002980
      8          1           0       -0.426909   -1.464710   -0.017897
      9          1           0       -2.016208    1.161058   -0.010566
     10          1           0       -2.707442   -0.541754    0.000036
 ---------------------------------------------------------------------

 SCF Done:  E(RB2PLYPD3) =  -155.700791387     A.U. after   11 cycles
 E2(B2PLYPD3) =    -0.2256123810D+00 E(B2PLYPD3) =    -0.15592640376834D+03

 The electronic state is 1-A.
 Alpha  occ. eigenvalues --  -10.62559 -10.62362 -10.61467 -10.61373  -0.93069
 Alpha  occ. eigenvalues --   -0.84928  -0.70162  -0.64275  -0.54816  -0.53786
 Alpha  occ. eigenvalues --   -0.46929  -0.45695  -0.41155  -0.38109  -0.27708
 Alpha virt. eigenvalues --    0.01794   0.07038   0.07407   0.08151   0.09522
 Alpha virt. eigenvalues --    0.11718   0.12563   0.14669   0.15806   0.16123
 Alpha virt. eigenvalues --    0.18738   0.20394   0.21751   0.23062   0.23888

 Mulliken charges:
               1
     1  C   -0.174905
     2  C   -0.026282
     3  C   -0.029148
     4  C   -0.179853
     5  H    0.090150
     6  H    0.060911
     7  H    0.052682
     8  H    0.053222
     9  H    0.067693
    10  H    0.085530
 Sum of Mulliken charges =   0.00000

 Dipole moment (field-independent basis, Debye):
    X=              0.0203    Y=              0.0250    Z=             -0.0346  Tot=              0.0473
 Quadrupole moment (field-independent basis, Debye-Ang):
   XX=            -23.4362   YY=            -23.1602   ZZ=            -29.2484
   XY=             -0.1318   XZ=             -0.0499   YZ=              0.0513

 1\1\GINC-NODE14\SP\RB2PLYPD3-FC\def2QZVP\C4H6\BOITTIER\26-Aug-2020\0\\
 #p B2PLYPD3/Def2QZVP\\butadiene\\0,1\C,0,-3.833389,0.22675,0.00893\C,0
 ,-2.728338,-0.51079,0.044532\C,0,-1.391544,0.068233,0.037963\C,0,-0.26
 1037,-0.650797,0.013903\H,0,-4.828518,-0.180192,0.022138\H,0,-3.708823
 ,1.299425,-0.050737\H,0,-2.768448,-1.592232,0.075604\H,0,-1.36633,1.14
 8132,-0.042895\H,0,-0.277756,-1.719908,0.056785\H,0,0.709888,-0.170717
 ,0.011463\\Version=ES64L-G09RevD.01\State=1-A\HF=-155.7007914\MP2=-155
 .9264038\RMSD=4.392e-09\PG=C01 [X(C4H6)]\\@

 Normal termination of Gaussian 09 at Wed Aug 26 22:04:07 2020.
