 Gaussian 09, Revision D.01,
 Gaussian 09:  ES64L-G09RevD.01 24-Apr-2013

 --------------------
 #p B2PLYPD3/Def2QZVP
 --------------------

 ---------
 butadiene
 ---------
 Symbolic Z-matrix:
 Charge =  0 Multiplicity = 1

                         Standard orientation:
 ---------------------------------------------------------------------
 Center     Atomic      Atomic             Coordinates (Angstroms)
 Number     Number       Type             X           Y           Z
 ---------------------------------------------------------------------
      1          6           0        1.837372   -0.104197    0.030529
      2          6           0        0.606754    0.364239   -0.033747
      3          6           0       -0.620326   -0.400368   -0.052804
      4          6           0       -1.839082    0.124657    0.054231
      5          1           0        2.649376    0.578066    0.002384
      6          1           0        2.107143   -1.128473    0.110033
      7          1           0        0.471740    1.429766   -0.079164
      8          1           0       -0.491462   -1.458357   -0.054124
      9          1           0       -1.906725    1.209797    0.056939
     10          1           0       -2.738378   -0.536790   -0.025316
 ---------------------------------------------------------------------

 SCF Done:  E(RB2PLYPD3) =  -155.697229223     A.U. after   11 cycles
 E2(B2PLYPD3) =    -0.2252037950D+00 E(B2PLYPD3) =    -0.15592243301766D+03

 The electronic state is 1-A.
 Alpha  occ. eigenvalues --  -10.62074 -10.61998 -10.61912 -10.60824  -0.93338
 Alpha  occ. eigenvalues --   -0.85334  -0.70321  -0.64300  -0.54791  -0.53993
 Alpha  occ. eigenvalues --   -0.46874  -0.45875  -0.40815  -0.38268  -0.27940
 Alpha virt. eigenvalues --    0.01761   0.06939   0.07574   0.08022   0.09946
 Alpha virt. eigenvalues --    0.11759   0.12364   0.14921   0.15695   0.16032
 Alpha virt. eigenvalues --    0.18832   0.20257   0.21593   0.22337   0.24367

 Mulliken charges:
               1
     1  C   -0.178930
     2  C   -0.021611
     3  C   -0.034681
     4  C   -0.171732
     5  H    0.082181
     6  H    0.067975
     7  H    0.048623
     8  H    0.055798
     9  H    0.065081
    10  H    0.087295
 Sum of Mulliken charges =   0.00000

 Dipole moment (field-independent basis, Debye):
    X=              0.0502    Y=             -0.0390    Z=             -0.0450  Tot=              0.0779
 Quadrupole moment (field-independent basis, Debye-Ang):
   XX=            -23.5461   YY=            -23.1419   ZZ=            -29.1268
   XY=             -0.0643   XZ=              0.2049   YZ=             -0.0793

 1\1\GINC-NODE38\SP\RB2PLYPD3-FC\def2QZVP\C4H6\BOITTIER\26-Aug-2020\0\\
 #p B2PLYPD3/Def2QZVP\\butadiene\\0,1\C,0,-3.843755,0.213562,0.052713\C
 ,0,-2.716262,-0.467636,0.000629\C,0,-1.372979,0.065962,-0.039058\C,0,-
 0.266362,-0.664319,0.081617\H,0,-4.764176,-0.314032,0.042925\H,0,-3.92
 6876,1.271199,0.105001\H,0,-2.772912,-1.541013,-0.016454\H,0,-1.311849
 ,1.12961,-0.068496\H,0,-0.392555,-1.743759,0.11318\H,0,0.735728,-0.175
 53,-0.015716\\Version=ES64L-G09RevD.01\State=1-A\HF=-155.6972292\MP2=-
 155.922433\RMSD=7.035e-09\PG=C01 [X(C4H6)]\\@

 Normal termination of Gaussian 09 at Wed Aug 26 22:20:06 2020.
