 Gaussian 09, Revision D.01,
 Gaussian 09:  ES64L-G09RevD.01 24-Apr-2013

 --------------------
 #p B2PLYPD3/Def2QZVP
 --------------------

 ---------
 butadiene
 ---------
 Symbolic Z-matrix:
 Charge =  0 Multiplicity = 1

                         Standard orientation:
 ---------------------------------------------------------------------
 Center     Atomic      Atomic             Coordinates (Angstroms)
 Number     Number       Type             X           Y           Z
 ---------------------------------------------------------------------
      1          6           0        1.839663    0.116976    0.007297
      2          6           0        0.621897   -0.413430   -0.018599
      3          6           0       -0.608145    0.392509   -0.019847
      4          6           0       -1.851049   -0.109560    0.006507
      5          1           0        2.720626   -0.489474    0.050125
      6          1           0        1.960453    1.206447    0.017576
      7          1           0        0.508149   -1.500661   -0.018709
      8          1           0       -0.464136    1.467526    0.024408
      9          1           0       -2.039757   -1.137096    0.060179
     10          1           0       -2.699533    0.534286    0.014274
 ---------------------------------------------------------------------

 SCF Done:  E(RB2PLYPD3) =  -155.700167171     A.U. after   11 cycles
 E2(B2PLYPD3) =    -0.2254153836D+00 E(B2PLYPD3) =    -0.15592558255450D+03

 The electronic state is 1-A.
 Alpha  occ. eigenvalues --  -10.62732 -10.62613 -10.61464 -10.61001  -0.92743
 Alpha  occ. eigenvalues --   -0.85097  -0.70232  -0.64088  -0.54770  -0.54044
 Alpha  occ. eigenvalues --   -0.46830  -0.45866  -0.41097  -0.37911  -0.27796
 Alpha virt. eigenvalues --    0.01844   0.07025   0.07449   0.08110   0.09518
 Alpha virt. eigenvalues --    0.11683   0.12501   0.14706   0.15838   0.16208
 Alpha virt. eigenvalues --    0.18819   0.20464   0.21746   0.22979   0.23834

 Mulliken charges:
               1
     1  C   -0.172522
     2  C   -0.032045
     3  C   -0.031710
     4  C   -0.178720
     5  H    0.088576
     6  H    0.062745
     7  H    0.053716
     8  H    0.054732
     9  H    0.069790
    10  H    0.085437
 Sum of Mulliken charges =   0.00000

 Dipole moment (field-independent basis, Debye):
    X=              0.0171    Y=             -0.0285    Z=              0.1125  Tot=              0.1173
 Quadrupole moment (field-independent basis, Debye-Ang):
   XX=            -23.3914   YY=            -23.0810   ZZ=            -29.2485
   XY=              0.1275   XZ=             -0.0070   YZ=             -0.0203

 1\1\GINC-NODE32\SP\RB2PLYPD3-FC\def2QZVP\C4H6\BOITTIER\26-Aug-2020\0\\
 #p B2PLYPD3/Def2QZVP\\butadiene\\0,1\C,0,-3.841185,0.227643,0.00819\C,
 0,-2.736801,-0.509495,0.051989\C,0,-1.383252,0.064965,0.030936\C,0,-0.
 249296,-0.650324,0.021696\H,0,-4.815951,-0.213797,-0.017767\H,0,-3.766
 734,1.32045,-0.03508\H,0,-2.817823,-1.599153,0.085016\H,0,-1.334344,1.
 146659,-0.045897\H,0,-0.246157,-1.696178,-0.000712\H,0,0.699953,-0.167
 847,-0.004097\\Version=ES64L-G09RevD.01\State=1-A\HF=-155.7001672\MP2=
 -155.9255826\RMSD=5.323e-09\PG=C01 [X(C4H6)]\\@

 Normal termination of Gaussian 09 at Wed Aug 26 16:32:20 2020.
