 Gaussian 09, Revision D.01,
 Gaussian 09:  ES64L-G09RevD.01 24-Apr-2013

 --------------------
 #p B2PLYPD3/Def2QZVP
 --------------------

 ---------
 butadiene
 ---------
 Symbolic Z-matrix:
 Charge =  0 Multiplicity = 1

                         Standard orientation:
 ---------------------------------------------------------------------
 Center     Atomic      Atomic             Coordinates (Angstroms)
 Number     Number       Type             X           Y           Z
 ---------------------------------------------------------------------
      1          6           0        1.850119    0.063170   -0.039410
      2          6           0        0.597648   -0.338293    0.033981
      3          6           0       -0.619096    0.427278    0.032374
      4          6           0       -1.855389   -0.148437   -0.092151
      5          1           0        2.790295   -0.574328   -0.012986
      6          1           0        2.150101    1.046104   -0.147484
      7          1           0        0.438569   -1.380901    0.286446
      8          1           0       -0.441406    1.547855    0.179130
      9          1           0       -2.089649   -1.150354   -0.086487
     10          1           0       -2.687604    0.489326    0.172614
 ---------------------------------------------------------------------

 SCF Done:  E(RB2PLYPD3) =  -155.678975820     A.U. after   12 cycles
 E2(B2PLYPD3) =    -0.2268059358D+00 E(B2PLYPD3) =    -0.15590578175547D+03

 The electronic state is 1-A.
 Alpha  occ. eigenvalues --  -10.63985 -10.62144 -10.61697 -10.61476  -0.93019
 Alpha  occ. eigenvalues --   -0.84862  -0.71367  -0.64068  -0.54757  -0.54046
 Alpha  occ. eigenvalues --   -0.47233  -0.45536  -0.40350  -0.37271  -0.27814
 Alpha virt. eigenvalues --    0.00846   0.06903   0.07463   0.07763   0.09746
 Alpha virt. eigenvalues --    0.11453   0.12623   0.14943   0.15570   0.16213
 Alpha virt. eigenvalues --    0.19013   0.19505   0.22100   0.22720   0.23013

 Mulliken charges:
               1
     1  C   -0.170300
     2  C   -0.012875
     3  C   -0.053413
     4  C   -0.163685
     5  H    0.074610
     6  H    0.060220
     7  H    0.059165
     8  H    0.057785
     9  H    0.073866
    10  H    0.074627
 Sum of Mulliken charges =   0.00000

 Dipole moment (field-independent basis, Debye):
    X=              0.0895    Y=              0.0048    Z=              0.3662  Tot=              0.3770
 Quadrupole moment (field-independent basis, Debye-Ang):
   XX=            -23.1194   YY=            -23.5934   ZZ=            -29.1080
   XY=              0.8339   XZ=             -0.6457   YZ=             -0.0009

 1\1\GINC-NODE12\SP\RB2PLYPD3-FC\def2QZVP\C4H6\BOITTIER\26-Aug-2020\0\\
 #p B2PLYPD3/Def2QZVP\\butadiene\\0,1\C,0,-3.862247,0.189146,0.059507\C
 ,0,-2.705644,-0.438172,-0.003624\C,0,-1.369023,0.090106,-0.034172\C,0,
 -0.258322,-0.69845,0.106882\H,0,-4.903747,-0.265068,0.059619\H,0,-3.97
 5454,1.213668,0.132776\H,0,-2.743362,-1.500468,-0.218518\H,0,-1.339329
 ,1.218386,-0.221004\H,0,-0.212162,-1.725931,0.136877\H,0,0.674153,-0.2
 3435,-0.183854\\Version=ES64L-G09RevD.01\State=1-A\HF=-155.6789758\MP2
 =-155.9057818\RMSD=3.240e-09\PG=C01 [X(C4H6)]\\@

 Normal termination of Gaussian 09 at Wed Aug 26 15:32:45 2020.
