 Gaussian 09, Revision D.01,
 Gaussian 09:  ES64L-G09RevD.01 24-Apr-2013

 --------------------
 #p B2PLYPD3/Def2QZVP
 --------------------

 ---------
 butadiene
 ---------
 Symbolic Z-matrix:
 Charge =  0 Multiplicity = 1

                         Standard orientation:
 ---------------------------------------------------------------------
 Center     Atomic      Atomic             Coordinates (Angstroms)
 Number     Number       Type             X           Y           Z
 ---------------------------------------------------------------------
      1          6           0        1.835291   -0.111609    0.016287
      2          6           0        0.598088    0.415506   -0.018936
      3          6           0       -0.601964   -0.396781   -0.040232
      4          6           0       -1.837638    0.091919    0.006947
      5          1           0        2.724794    0.488180    0.057134
      6          1           0        2.016499   -1.186498    0.018830
      7          1           0        0.449441    1.508080   -0.026211
      8          1           0       -0.419086   -1.455703    0.021117
      9          1           0       -1.993198    1.175745    0.058280
     10          1           0       -2.741114   -0.524008    0.086450
 ---------------------------------------------------------------------

 SCF Done:  E(RB2PLYPD3) =  -155.699439981     A.U. after   11 cycles
 E2(B2PLYPD3) =    -0.2260646944D+00 E(B2PLYPD3) =    -0.15592550467521D+03

 The electronic state is 1-A.
 Alpha  occ. eigenvalues --  -10.62920 -10.62349 -10.61766 -10.61738  -0.93038
 Alpha  occ. eigenvalues --   -0.84687  -0.70204  -0.64045  -0.54828  -0.53435
 Alpha  occ. eigenvalues --   -0.46980  -0.45246  -0.40980  -0.38199  -0.27627
 Alpha virt. eigenvalues --    0.01628   0.07017   0.07314   0.08102   0.09503
 Alpha virt. eigenvalues --    0.11643   0.12516   0.14620   0.15767   0.16238
 Alpha virt. eigenvalues --    0.18813   0.20424   0.21775   0.23046   0.23415

 Mulliken charges:
               1
     1  C   -0.175402
     2  C   -0.031030
     3  C   -0.025625
     4  C   -0.171144
     5  H    0.085195
     6  H    0.063295
     7  H    0.052922
     8  H    0.056445
     9  H    0.059915
    10  H    0.085429
 Sum of Mulliken charges =   0.00000

 Dipole moment (field-independent basis, Debye):
    X=              0.0284    Y=             -0.0143    Z=              0.1562  Tot=              0.1594
 Quadrupole moment (field-independent basis, Debye-Ang):
   XX=            -23.3319   YY=            -23.2382   ZZ=            -29.3038
   XY=             -0.2718   XZ=             -0.2105   YZ=             -0.0406

 1\1\GINC-NODE10\SP\RB2PLYPD3-FC\def2QZVP\C4H6\BOITTIER\26-Aug-2020\0\\
 #p B2PLYPD3/Def2QZVP\\butadiene\\0,1\C,0,-3.836182,0.23267,0.035961\C,
 0,-2.717173,-0.513835,0.018245\C,0,-1.388145,0.062943,-0.019164\C,0,-0
 .263473,-0.643456,0.04453\H,0,-4.820833,-0.191963,0.088686\H,0,-3.8164
 55,1.322265,0.010998\H,0,-2.772166,-1.614934,0.038806\H,0,-1.372929,1.
 138638,0.015054\H,0,-0.309991,-1.735754,0.123486\H,0,0.738024,-0.20250
 3,0.111762\\Version=ES64L-G09RevD.01\State=1-A\HF=-155.69944\MP2=-155.
 9255047\RMSD=5.391e-09\PG=C01 [X(C4H6)]\\@

 Normal termination of Gaussian 09 at Wed Aug 26 18:51:33 2020.
