 Gaussian 09, Revision D.01,
 Gaussian 09:  ES64L-G09RevD.01 24-Apr-2013

 --------------------
 #p B2PLYPD3/Def2QZVP
 --------------------

 ---------
 butadiene
 ---------
 Symbolic Z-matrix:
 Charge =  0 Multiplicity = 1

                         Standard orientation:
 ---------------------------------------------------------------------
 Center     Atomic      Atomic             Coordinates (Angstroms)
 Number     Number       Type             X           Y           Z
 ---------------------------------------------------------------------
      1          6           0       -1.857484    0.098589    0.027733
      2          6           0       -0.605046   -0.396618   -0.049181
      3          6           0        0.617926    0.419758   -0.023126
      4          6           0        1.860685   -0.112047    0.038769
      5          1           0       -2.709105   -0.525575   -0.007225
      6          1           0       -2.093629    1.155672    0.111292
      7          1           0       -0.529801   -1.493298   -0.027132
      8          1           0        0.433468    1.523143   -0.067320
      9          1           0        2.030478   -1.197843    0.078457
     10          1           0        2.772101    0.479811   -0.053244
 ---------------------------------------------------------------------

 SCF Done:  E(RB2PLYPD3) =  -155.695759329     A.U. after   11 cycles
 E2(B2PLYPD3) =    -0.2267992480D+00 E(B2PLYPD3) =    -0.15592255857713D+03

 The electronic state is 1-A.
 Alpha  occ. eigenvalues --  -10.63642 -10.63090 -10.62272 -10.61507  -0.92271
 Alpha  occ. eigenvalues --   -0.84504  -0.70259  -0.63656  -0.54598  -0.53353
 Alpha  occ. eigenvalues --   -0.46796  -0.45238  -0.41010  -0.37628  -0.27544
 Alpha virt. eigenvalues --    0.01328   0.07003   0.07319   0.07994   0.09313
 Alpha virt. eigenvalues --    0.11480   0.12455   0.14574   0.15860   0.16206
 Alpha virt. eigenvalues --    0.18948   0.20435   0.21728   0.22400   0.23538

 Mulliken charges:
               1
     1  C   -0.173813
     2  C   -0.028858
     3  C   -0.041509
     4  C   -0.166391
     5  H    0.084826
     6  H    0.060643
     7  H    0.055401
     8  H    0.058339
     9  H    0.065858
    10  H    0.085503
 Sum of Mulliken charges =   0.00000

 Dipole moment (field-independent basis, Debye):
    X=             -0.0246    Y=             -0.0176    Z=             -0.0143  Tot=              0.0335
 Quadrupole moment (field-independent basis, Debye-Ang):
   XX=            -23.1607   YY=            -23.2101   ZZ=            -29.4643
   XY=             -0.3163   XZ=             -0.2639   YZ=             -0.0621

 1\1\GINC-NODE30\SP\RB2PLYPD3-FC\def2QZVP\C4H6\BOITTIER\26-Aug-2020\0\\
 #p B2PLYPD3/Def2QZVP\\butadiene\\0,1\C,0,-3.863256,0.217435,0.049597\C
 ,0,-2.721196,-0.497997,-0.010416\C,0,-1.370889,0.084648,-0.012567\C,0,
 -0.244073,-0.660327,0.067405\H,0,-4.813697,-0.243591,0.036202\H,0,-3.9
 04323,1.301988,0.096827\H,0,-2.844862,-1.588868,0.049278\H,0,-1.353573
 ,1.201073,-0.09461\H,0,-0.272669,-1.756967,0.144343\H,0,0.758551,-0.24
 6137,-0.044994\\Version=ES64L-G09RevD.01\State=1-A\HF=-155.6957593\MP2
 =-155.9225586\RMSD=4.572e-09\PG=C01 [X(C4H6)]\\@

 Normal termination of Gaussian 09 at Wed Aug 26 09:30:19 2020.
