 Gaussian 09, Revision D.01,
 Gaussian 09:  ES64L-G09RevD.01 24-Apr-2013

 --------------------
 #p B2PLYPD3/Def2QZVP
 --------------------

 ---------
 butadiene
 ---------
 Symbolic Z-matrix:
 Charge =  0 Multiplicity = 1

                         Standard orientation:
 ---------------------------------------------------------------------
 Center     Atomic      Atomic             Coordinates (Angstroms)
 Number     Number       Type             X           Y           Z
 ---------------------------------------------------------------------
      1          6           0       -1.838533    0.080476   -0.021397
      2          6           0       -0.605701   -0.379273    0.055807
      3          6           0        0.598366    0.432252    0.015352
      4          6           0        1.828327   -0.134020   -0.032437
      5          1           0       -2.705639   -0.538833   -0.060412
      6          1           0       -1.925341    1.201696   -0.004580
      7          1           0       -0.442403   -1.421403   -0.069217
      8          1           0        0.503957    1.543377   -0.005167
      9          1           0        1.924383   -1.242366    0.036611
     10          1           0        2.750286    0.460920   -0.001181
 ---------------------------------------------------------------------

 SCF Done:  E(RB2PLYPD3) =  -155.693742641     A.U. after   11 cycles
 E2(B2PLYPD3) =    -0.2265278555D+00 E(B2PLYPD3) =    -0.15592027049644D+03

 The electronic state is 1-A.
 Alpha  occ. eigenvalues --  -10.63229 -10.62351 -10.61936 -10.61512  -0.93110
 Alpha  occ. eigenvalues --   -0.84753  -0.69658  -0.63804  -0.54853  -0.53331
 Alpha  occ. eigenvalues --   -0.46656  -0.44721  -0.41236  -0.38157  -0.27692
 Alpha virt. eigenvalues --    0.01677   0.07058   0.07244   0.08015   0.09371
 Alpha virt. eigenvalues --    0.11703   0.12476   0.14354   0.15505   0.16249
 Alpha virt. eigenvalues --    0.18655   0.19948   0.21249   0.23328   0.24022

 Mulliken charges:
               1
     1  C   -0.175614
     2  C   -0.018874
     3  C   -0.037148
     4  C   -0.173225
     5  H    0.093799
     6  H    0.055722
     7  H    0.056012
     8  H    0.051027
     9  H    0.062291
    10  H    0.086009
 Sum of Mulliken charges =   0.00000

 Dipole moment (field-independent basis, Debye):
    X=              0.0100    Y=             -0.0334    Z=             -0.0432  Tot=              0.0555
 Quadrupole moment (field-independent basis, Debye-Ang):
   XX=            -23.6006   YY=            -23.1899   ZZ=            -29.3542
   XY=              0.2185   XZ=              0.3372   YZ=              0.0828

 1\1\GINC-NODE31\SP\RB2PLYPD3-FC\def2QZVP\C4H6\BOITTIER\26-Aug-2020\0\\
 #p B2PLYPD3/Def2QZVP\\butadiene\\0,1\C,0,-3.844911,0.191995,-0.00809\C
 ,0,-2.713951,-0.478606,0.083716\C,0,-1.384368,0.104036,0.031501\C,0,-0
 .275194,-0.673477,0.00053\H,0,-4.808606,-0.263352,-0.0379\H,0,-3.73023
 3,1.310814,-0.014805\H,0,-2.739209,-1.535549,-0.019069\H,0,-1.278956,1
 .213494,-0.012365\H,0,-0.378509,-1.779472,0.092864\H,0,0.738128,-0.252
 052,0.023314\\Version=ES64L-G09RevD.01\State=1-A\HF=-155.6937426\MP2=-
 155.9202705\RMSD=6.241e-09\PG=C01 [X(C4H6)]\\@

 Normal termination of Gaussian 09 at Wed Aug 26 08:44:34 2020.
