 Gaussian 09, Revision D.01,
 Gaussian 09:  ES64L-G09RevD.01 24-Apr-2013

 --------------------
 #p B2PLYPD3/Def2QZVP
 --------------------

 ---------
 butadiene
 ---------
 Symbolic Z-matrix:
 Charge =  0 Multiplicity = 1

                         Standard orientation:
 ---------------------------------------------------------------------
 Center     Atomic      Atomic             Coordinates (Angstroms)
 Number     Number       Type             X           Y           Z
 ---------------------------------------------------------------------
      1          6           0       -1.801530   -0.136478   -0.003124
      2          6           0       -0.585708    0.423210   -0.024354
      3          6           0        0.582994   -0.336813    0.005524
      4          6           0        1.824995    0.077253    0.009355
      5          1           0       -2.739572    0.403176    0.091856
      6          1           0       -1.999198   -1.128190   -0.114822
      7          1           0       -0.503302    1.481851    0.044442
      8          1           0        0.454016   -1.448994    0.152662
      9          1           0        1.954534    1.108535   -0.001312
     10          1           0        2.709016   -0.579413   -0.097231
 ---------------------------------------------------------------------

 SCF Done:  E(RB2PLYPD3) =  -155.685981566     A.U. after   11 cycles
 E2(B2PLYPD3) =    -0.2253869852D+00 E(B2PLYPD3) =    -0.15591136855123D+03

 The electronic state is 1-A.
 Alpha  occ. eigenvalues --  -10.62144 -10.61811 -10.61076 -10.60708  -0.94235
 Alpha  occ. eigenvalues --   -0.85406  -0.71345  -0.64350  -0.55405  -0.54514
 Alpha  occ. eigenvalues --   -0.47446  -0.44950  -0.41255  -0.38562  -0.27488
 Alpha virt. eigenvalues --    0.01385   0.07025   0.07554   0.07932   0.10014
 Alpha virt. eigenvalues --    0.11726   0.12764   0.14823   0.15586   0.16559
 Alpha virt. eigenvalues --    0.18623   0.19715   0.22083   0.23133   0.23869

 Mulliken charges:
               1
     1  C   -0.169593
     2  C   -0.036503
     3  C   -0.006610
     4  C   -0.180158
     5  H    0.071556
     6  H    0.071884
     7  H    0.058804
     8  H    0.043166
     9  H    0.056759
    10  H    0.090696
 Sum of Mulliken charges =   0.00000

 Dipole moment (field-independent basis, Debye):
    X=             -0.1269    Y=             -0.0024    Z=              0.0300  Tot=              0.1305
 Quadrupole moment (field-independent basis, Debye-Ang):
   XX=            -23.1370   YY=            -23.4479   ZZ=            -28.9210
   XY=              0.1792   XZ=             -0.3150   YZ=              0.1506

 1\1\GINC-NODE39\SP\RB2PLYPD3-FC\def2QZVP\C4H6\BOITTIER\26-Aug-2020\0\\
 #p B2PLYPD3/Def2QZVP\\butadiene\\0,1\C,0,-3.800128,0.25019,0.014844\C,
 0,-2.706696,-0.520962,0.055535\C,0,-1.419046,0.012289,0.010918\C,0,-0.
 273343,-0.621156,0.022911\H,0,-4.820888,-0.111757,-0.070079\H,0,-3.813
 626,1.26389,0.100118\H,0,-2.818703,-1.578321,0.014397\H,0,-1.343205,1.
 125123,-0.165377\H,0,-0.333969,-1.658139,0.060698\H,0,0.71564,-0.13404
 8,0.116196\\Version=ES64L-G09RevD.01\State=1-A\HF=-155.6859816\MP2=-15
 5.9113686\RMSD=5.229e-09\PG=C01 [X(C4H6)]\\@

 Normal termination of Gaussian 09 at Wed Aug 26 15:56:00 2020.
