 Gaussian 09, Revision D.01,
 Gaussian 09:  ES64L-G09RevD.01 24-Apr-2013

 --------------------
 #p B2PLYPD3/Def2QZVP
 --------------------

 ---------
 butadiene
 ---------
 Symbolic Z-matrix:
 Charge =  0 Multiplicity = 1

                         Standard orientation:
 ---------------------------------------------------------------------
 Center     Atomic      Atomic             Coordinates (Angstroms)
 Number     Number       Type             X           Y           Z
 ---------------------------------------------------------------------
      1          6           0        1.842514    0.116931    0.023850
      2          6           0        0.621031   -0.362234   -0.041437
      3          6           0       -0.634109    0.398067   -0.087996
      4          6           0       -1.827980   -0.117671    0.067219
      5          1           0        2.525666   -0.703814    0.213888
      6          1           0        2.092893    1.178031    0.130158
      7          1           0        0.523609   -1.445455   -0.150428
      8          1           0       -0.538634    1.548521   -0.143998
      9          1           0       -1.927524   -1.229642   -0.044162
     10          1           0       -2.684741    0.441805    0.224730
 ---------------------------------------------------------------------

 SCF Done:  E(RB2PLYPD3) =  -155.684881523     A.U. after   11 cycles
 E2(B2PLYPD3) =    -0.2257033863D+00 E(B2PLYPD3) =    -0.15591058490949D+03

 The electronic state is 1-A.
 Alpha  occ. eigenvalues --  -10.62880 -10.62376 -10.61237 -10.61173  -0.93133
 Alpha  occ. eigenvalues --   -0.85931  -0.69809  -0.62809  -0.54624  -0.54215
 Alpha  occ. eigenvalues --   -0.46847  -0.45032  -0.40890  -0.37448  -0.28302
 Alpha virt. eigenvalues --    0.02159   0.06976   0.07167   0.07976   0.09669
 Alpha virt. eigenvalues --    0.11537   0.12295   0.14670   0.15553   0.16023
 Alpha virt. eigenvalues --    0.18834   0.19882   0.21249   0.22094   0.24832

 Mulliken charges:
               1
     1  C   -0.173802
     2  C   -0.016993
     3  C   -0.033393
     4  C   -0.168470
     5  H    0.077042
     6  H    0.076257
     7  H    0.048287
     8  H    0.039821
     9  H    0.058301
    10  H    0.092952
 Sum of Mulliken charges =   0.00000

 Dipole moment (field-independent basis, Debye):
    X=             -0.1321    Y=             -0.0011    Z=              0.1402  Tot=              0.1926
 Quadrupole moment (field-independent basis, Debye-Ang):
   XX=            -24.0943   YY=            -23.0430   ZZ=            -29.0505
   XY=             -0.0095   XZ=              0.2374   YZ=              0.2087

 1\1\GINC-NODE28\SP\RB2PLYPD3-FC\def2QZVP\C4H6\BOITTIER\26-Aug-2020\0\\
 #p B2PLYPD3/Def2QZVP\\butadiene\\0,1\C,0,-3.846159,0.217972,-0.015054\
 C,0,-2.72727,-0.464925,0.072238\C,0,-1.358375,0.065226,0.098116\C,0,-0
 .273432,-0.656505,-0.03382\H,0,-4.662704,-0.476715,-0.179668\H,0,-3.90
 7163,1.302155,-0.159103\H,0,-2.820729,-1.544022,0.219046\H,0,-1.250964
 ,1.215883,0.113884\H,0,-0.369829,-1.764179,0.116381\H,0,0.667755,-0.26
 1371,-0.206733\\Version=ES64L-G09RevD.01\State=1-A\HF=-155.6848815\MP2
 =-155.9105849\RMSD=5.363e-09\PG=C01 [X(C4H6)]\\@

 Normal termination of Gaussian 09 at Wed Aug 26 11:36:13 2020.
