 Gaussian 09, Revision D.01,
 Gaussian 09:  ES64L-G09RevD.01 24-Apr-2013

 --------------------
 #p B2PLYPD3/Def2QZVP
 --------------------

 ---------
 butadiene
 ---------
 Symbolic Z-matrix:
 Charge =  0 Multiplicity = 1

                         Standard orientation:
 ---------------------------------------------------------------------
 Center     Atomic      Atomic             Coordinates (Angstroms)
 Number     Number       Type             X           Y           Z
 ---------------------------------------------------------------------
      1          6           0       -1.813704    0.099601    0.097598
      2          6           0       -0.606721   -0.375233   -0.084991
      3          6           0        0.620596    0.454168   -0.086098
      4          6           0        1.812671   -0.149847    0.059406
      5          1           0       -2.667995   -0.592194    0.100604
      6          1           0       -2.033462    1.188324   -0.018004
      7          1           0       -0.419959   -1.497801   -0.074802
      8          1           0        0.551890    1.559279   -0.149320
      9          1           0        1.733758   -1.260934   -0.084304
     10          1           0        2.758717    0.431196    0.310339
 ---------------------------------------------------------------------

 SCF Done:  E(RB2PLYPD3) =  -155.683074750     A.U. after   12 cycles
 E2(B2PLYPD3) =    -0.2273670842D+00 E(B2PLYPD3) =    -0.15591044183456D+03

 The electronic state is 1-A.
 Alpha  occ. eigenvalues --  -10.63128 -10.63026 -10.62667 -10.61467  -0.92865
 Alpha  occ. eigenvalues --   -0.84880  -0.68386  -0.63175  -0.53998  -0.52974
 Alpha  occ. eigenvalues --   -0.46163  -0.44677  -0.40945  -0.37720  -0.27859
 Alpha virt. eigenvalues --    0.02141   0.06817   0.07067   0.07843   0.08986
 Alpha virt. eigenvalues --    0.11645   0.12342   0.14362   0.15530   0.16105
 Alpha virt. eigenvalues --    0.18618   0.19236   0.21075   0.23411   0.24420

 Mulliken charges:
               1
     1  C   -0.165774
     2  C   -0.025960
     3  C   -0.036427
     4  C   -0.174436
     5  H    0.078112
     6  H    0.064695
     7  H    0.044043
     8  H    0.058895
     9  H    0.064468
    10  H    0.092383
 Sum of Mulliken charges =   0.00000

 Dipole moment (field-independent basis, Debye):
    X=              0.0436    Y=              0.0724    Z=             -0.0457  Tot=              0.0961
 Quadrupole moment (field-independent basis, Debye-Ang):
   XX=            -24.1689   YY=            -23.0934   ZZ=            -29.3576
   XY=              0.2804   XZ=              0.5799   YZ=              0.0930

 1\1\GINC-NODE36\SP\RB2PLYPD3-FC\def2QZVP\C4H6\BOITTIER\26-Aug-2020\0\\
 #p B2PLYPD3/Def2QZVP\\butadiene\\0,1\C,0,-3.82333,0.19782,0.109337\C,0
 ,-2.716778,-0.485177,-0.047737\C,0,-1.36457,0.119028,-0.073885\C,0,-0.
 294702,-0.675683,0.101802\H,0,-4.784339,-0.335326,0.134207\H,0,-3.8517
 02,1.302764,-0.049631\H,0,-2.726861,-1.621858,0.00702\H,0,-1.241279,1.
 216055,-0.180275\H,0,-0.564631,-1.761192,0.000797\H,0,0.737792,-0.2574
 44,0.335498\\Version=ES64L-G09RevD.01\State=1-A\HF=-155.6830748\MP2=-1
 55.9104418\RMSD=2.243e-09\PG=C01 [X(C4H6)]\\@

 Normal termination of Gaussian 09 at Wed Aug 26 14:50:34 2020.
