 Gaussian 09, Revision D.01,
 Gaussian 09:  ES64L-G09RevD.01 24-Apr-2013

 --------------------
 #p B2PLYPD3/Def2QZVP
 --------------------

 ---------
 butadiene
 ---------
 Symbolic Z-matrix:
 Charge =  0 Multiplicity = 1

                         Standard orientation:
 ---------------------------------------------------------------------
 Center     Atomic      Atomic             Coordinates (Angstroms)
 Number     Number       Type             X           Y           Z
 ---------------------------------------------------------------------
      1          6           0        1.806238   -0.111353    0.022921
      2          6           0        0.597088    0.435361   -0.068991
      3          6           0       -0.597148   -0.359934   -0.081585
      4          6           0       -1.824470    0.068417    0.071763
      5          1           0        2.901997    0.359564    0.297783
      6          1           0        1.838080   -1.264158    0.141086
      7          1           0        0.527320    1.493528   -0.218722
      8          1           0       -0.423970   -1.420813   -0.143558
      9          1           0       -2.070071    1.167926    0.189097
     10          1           0       -2.663607   -0.530988    0.069662
 ---------------------------------------------------------------------

 SCF Done:  E(RB2PLYPD3) =  -155.675173264     A.U. after   11 cycles
 E2(B2PLYPD3) =    -0.2267267832D+00 E(B2PLYPD3) =    -0.15590190004764D+03

 The electronic state is 1-A.
 Alpha  occ. eigenvalues --  -10.63733 -10.62569 -10.62119 -10.61136  -0.93751
 Alpha  occ. eigenvalues --   -0.85027  -0.69502  -0.64069  -0.54924  -0.53194
 Alpha  occ. eigenvalues --   -0.47483  -0.43191  -0.40583  -0.38342  -0.28050
 Alpha virt. eigenvalues --    0.01746   0.06794   0.07305   0.07731   0.09658
 Alpha virt. eigenvalues --    0.11239   0.12633   0.14002   0.15501   0.16767
 Alpha virt. eigenvalues --    0.18886   0.19570   0.21670   0.22506   0.22984

 Mulliken charges:
               1
     1  C   -0.153819
     2  C   -0.031009
     3  C   -0.030452
     4  C   -0.166626
     5  H    0.078029
     6  H    0.038584
     7  H    0.068632
     8  H    0.055406
     9  H    0.052283
    10  H    0.088971
 Sum of Mulliken charges =   0.00000

 Dipole moment (field-independent basis, Debye):
    X=             -0.0554    Y=             -0.0030    Z=              0.1731  Tot=              0.1818
 Quadrupole moment (field-independent basis, Debye-Ang):
   XX=            -23.2746   YY=            -23.6823   ZZ=            -29.1053
   XY=             -0.0064   XZ=              0.5334   YZ=             -0.0022

 1\1\GINC-NODE18\SP\RB2PLYPD3-FC\def2QZVP\C4H6\BOITTIER\26-Aug-2020\0\\
 #p B2PLYPD3/Def2QZVP\\butadiene\\0,1\C,0,-3.808991,0.227095,0.056728\C
 ,0,-2.720143,-0.531871,-0.031405\C,0,-1.401105,0.032304,-0.057807\C,0,
 -0.271563,-0.610559,0.097693\H,0,-4.970762,-0.032848,0.340837\H,0,-3.6
 29709,1.36778,0.159833\H,0,-2.845059,-1.586812,-0.167423\H,0,-1.378466
 ,1.106127,-0.133218\H,0,-0.229741,-1.734872,0.228763\H,0,0.662695,-0.1
 74151,0.085356\\Version=ES64L-G09RevD.01\State=1-A\HF=-155.6751733\MP2
 =-155.9019\RMSD=9.878e-09\PG=C01 [X(C4H6)]\\@

 Normal termination of Gaussian 09 at Wed Aug 26 13:44:22 2020.
