 Gaussian 09, Revision D.01,
 Gaussian 09:  ES64L-G09RevD.01 24-Apr-2013

 --------------------
 #p B2PLYPD3/Def2QZVP
 --------------------

 ---------
 butadiene
 ---------
 Symbolic Z-matrix:
 Charge =  0 Multiplicity = 1

                         Standard orientation:
 ---------------------------------------------------------------------
 Center     Atomic      Atomic             Coordinates (Angstroms)
 Number     Number       Type             X           Y           Z
 ---------------------------------------------------------------------
      1          6           0        1.861788   -0.142351    0.031658
      2          6           0        0.630790    0.452254   -0.053289
      3          6           0       -0.598973   -0.370542   -0.038832
      4          6           0       -1.881238    0.072607    0.053892
      5          1           0        2.714450    0.432555   -0.032300
      6          1           0        2.096073   -1.146308    0.201219
      7          1           0        0.530653    1.477332   -0.128304
      8          1           0       -0.504147   -1.455520   -0.059854
      9          1           0       -2.099998    1.153766    0.260874
     10          1           0       -2.811231   -0.533625   -0.202204
 ---------------------------------------------------------------------

 SCF Done:  E(RB2PLYPD3) =  -155.681932902     A.U. after   12 cycles
 E2(B2PLYPD3) =    -0.2271963727D+00 E(B2PLYPD3) =    -0.15590912927450D+03

 The electronic state is 1-A.
 Alpha  occ. eigenvalues --  -10.63290 -10.63168 -10.62740 -10.61407  -0.92093
 Alpha  occ. eigenvalues --   -0.84304  -0.70798  -0.64543  -0.54463  -0.53596
 Alpha  occ. eigenvalues --   -0.47382  -0.45220  -0.41403  -0.36911  -0.27191
 Alpha virt. eigenvalues --    0.00804   0.06924   0.07533   0.08127   0.09023
 Alpha virt. eigenvalues --    0.11445   0.12417   0.14690   0.15835   0.16364
 Alpha virt. eigenvalues --    0.19141   0.19982   0.21617   0.22466   0.23183

 Mulliken charges:
               1
     1  C   -0.163039
     2  C   -0.061521
     3  C   -0.032972
     4  C   -0.176871
     5  H    0.077718
     6  H    0.074276
     7  H    0.079598
     8  H    0.064667
     9  H    0.054536
    10  H    0.083607
 Sum of Mulliken charges =   0.00000

 Dipole moment (field-independent basis, Debye):
    X=              0.2052    Y=              0.0152    Z=             -0.0246  Tot=              0.2072
 Quadrupole moment (field-independent basis, Debye-Ang):
   XX=            -23.1093   YY=            -23.3104   ZZ=            -29.3267
   XY=             -0.3651   XZ=              0.4314   YZ=              0.0518

 1\1\GINC-NODE24\SP\RB2PLYPD3-FC\def2QZVP\C4H6\BOITTIER\26-Aug-2020\0\\
 #p B2PLYPD3/Def2QZVP\\butadiene\\0,1\C,0,-3.856388,0.258814,0.053641\C
 ,0,-2.751692,-0.548008,-0.015727\C,0,-1.394829,0.042207,-0.025032\C,0,
 -0.211661,-0.619973,0.078963\H,0,-4.798272,-0.156223,0.006302\H,0,-3.9
 06874,1.292692,0.195478\H,0,-2.836429,-1.576154,-0.062366\H,0,-1.29472
 9,1.125714,-0.076059\H,0,-0.188074,-1.716792,0.315677\H,0,0.810075,-0.
 196614,-0.194556\\Version=ES64L-G09RevD.01\State=1-A\HF=-155.6819329\M
 P2=-155.9091293\RMSD=5.882e-09\PG=C01 [X(C4H6)]\\@

 Normal termination of Gaussian 09 at Wed Aug 26 13:11:35 2020.
