 Gaussian 09, Revision D.01,
 Gaussian 09:  ES64L-G09RevD.01 24-Apr-2013

 --------------------
 #p B2PLYPD3/Def2QZVP
 --------------------

 ---------
 butadiene
 ---------
 Symbolic Z-matrix:
 Charge =  0 Multiplicity = 1

                         Standard orientation:
 ---------------------------------------------------------------------
 Center     Atomic      Atomic             Coordinates (Angstroms)
 Number     Number       Type             X           Y           Z
 ---------------------------------------------------------------------
      1          6           0        1.843655   -0.140969   -0.021254
      2          6           0        0.627499    0.447289    0.043874
      3          6           0       -0.607153   -0.392940    0.060454
      4          6           0       -1.864623    0.079066   -0.052468
      5          1           0        2.745795    0.513339   -0.048861
      6          1           0        2.086164   -1.157170   -0.059514
      7          1           0        0.515119    1.445367   -0.085158
      8          1           0       -0.475719   -1.460765   -0.008370
      9          1           0       -2.045309    1.135148    0.068105
     10          1           0       -2.822323   -0.430594   -0.049837
 ---------------------------------------------------------------------

 SCF Done:  E(RB2PLYPD3) =  -155.686103861     A.U. after   11 cycles
 E2(B2PLYPD3) =    -0.2263020004D+00 E(B2PLYPD3) =    -0.15591240586165D+03

 The electronic state is 1-A.
 Alpha  occ. eigenvalues --  -10.63051 -10.62795 -10.62001 -10.61558  -0.92358
 Alpha  occ. eigenvalues --   -0.84599  -0.70364  -0.65475  -0.54715  -0.53664
 Alpha  occ. eigenvalues --   -0.48036  -0.44684  -0.40824  -0.37424  -0.27676
 Alpha virt. eigenvalues --    0.01462   0.06981   0.07584   0.08258   0.08798
 Alpha virt. eigenvalues --    0.11535   0.12694   0.14478   0.15697   0.16421
 Alpha virt. eigenvalues --    0.19115   0.19957   0.22271   0.22970   0.23584

 Mulliken charges:
               1
     1  C   -0.163489
     2  C   -0.052902
     3  C   -0.038942
     4  C   -0.165881
     5  H    0.068384
     6  H    0.078487
     7  H    0.082113
     8  H    0.062721
     9  H    0.050655
    10  H    0.078855
 Sum of Mulliken charges =   0.00000

 Dipole moment (field-independent basis, Debye):
    X=              0.0785    Y=             -0.0029    Z=             -0.0921  Tot=              0.1210
 Quadrupole moment (field-independent basis, Debye-Ang):
   XX=            -23.0030   YY=            -23.2896   ZZ=            -29.3134
   XY=             -0.5019   XZ=             -0.2926   YZ=              0.0690

 1\1\GINC-NODE36\SP\RB2PLYPD3-FC\def2QZVP\C4H6\BOITTIER\26-Aug-2020\0\\
 #p B2PLYPD3/Def2QZVP\\butadiene\\0,1\C,0,-3.840872,0.250404,-0.013363\
 C,0,-2.748952,-0.542434,0.078523\C,0,-1.384234,0.064274,0.069775\C,0,-
 0.23133,-0.628159,-0.020335\H,0,-4.84528,-0.233169,-0.020978\H,0,-3.89
 8386,1.291456,-0.08979\H,0,-2.816621,-1.548614,-0.013459\H,0,-1.323316
 ,1.135165,-0.038596\H,0,-0.241576,-1.694381,0.139536\H,0,0.801902,-0.2
 9764,-0.032151\\Version=ES64L-G09RevD.01\State=1-A\HF=-155.6861039\MP2
 =-155.9124059\RMSD=6.552e-09\PG=C01 [X(C4H6)]\\@

 Normal termination of Gaussian 09 at Wed Aug 26 15:59:35 2020.
