 Gaussian 09, Revision D.01,
 Gaussian 09:  ES64L-G09RevD.01 24-Apr-2013

 --------------------
 #p B2PLYPD3/Def2QZVP
 --------------------

 ---------
 butadiene
 ---------
 Symbolic Z-matrix:
 Charge =  0 Multiplicity = 1

                         Standard orientation:
 ---------------------------------------------------------------------
 Center     Atomic      Atomic             Coordinates (Angstroms)
 Number     Number       Type             X           Y           Z
 ---------------------------------------------------------------------
      1          6           0       -1.818408   -0.140108   -0.024836
      2          6           0       -0.595829    0.437750    0.057507
      3          6           0        0.589130   -0.390405    0.023950
      4          6           0        1.829885    0.092667   -0.027501
      5          1           0       -2.692154    0.555996   -0.071008
      6          1           0       -1.951042   -1.228261   -0.018171
      7          1           0       -0.496467    1.543747   -0.063592
      8          1           0        0.392090   -1.447019    0.018157
      9          1           0        2.053058    1.146770    0.010591
     10          1           0        2.665842   -0.570662   -0.050700
 ---------------------------------------------------------------------

 SCF Done:  E(RB2PLYPD3) =  -155.695359539     A.U. after   11 cycles
 E2(B2PLYPD3) =    -0.2266150261D+00 E(B2PLYPD3) =    -0.15592197456511D+03

 The electronic state is 1-A.
 Alpha  occ. eigenvalues --  -10.62950 -10.62336 -10.62256 -10.61098  -0.93030
 Alpha  occ. eigenvalues --   -0.84513  -0.69833  -0.63940  -0.54080  -0.53933
 Alpha  occ. eigenvalues --   -0.45945  -0.45769  -0.41296  -0.38112  -0.27381
 Alpha virt. eigenvalues --    0.01657   0.07027   0.07220   0.08001   0.09245
 Alpha virt. eigenvalues --    0.11790   0.12267   0.14830   0.15479   0.16140
 Alpha virt. eigenvalues --    0.18618   0.20035   0.21623   0.23276   0.23982

 Mulliken charges:
               1
     1  C   -0.180983
     2  C   -0.030512
     3  C   -0.028092
     4  C   -0.179775
     5  H    0.080662
     6  H    0.073383
     7  H    0.058469
     8  H    0.055538
     9  H    0.068273
    10  H    0.083037
 Sum of Mulliken charges =   0.00000

 Dipole moment (field-independent basis, Debye):
    X=             -0.0169    Y=             -0.0062    Z=             -0.0972  Tot=              0.0989
 Quadrupole moment (field-independent basis, Debye-Ang):
   XX=            -24.0227   YY=            -22.8259   ZZ=            -29.3806
   XY=              0.2589   XZ=              0.1950   YZ=             -0.0985

 1\1\GINC-NODE06\SP\RB2PLYPD3-FC\def2QZVP\C4H6\BOITTIER\26-Aug-2020\0\\
 #p B2PLYPD3/Def2QZVP\\butadiene\\0,1\C,0,-3.813896,0.257667,0.047485\C
 ,0,-2.71887,-0.537589,-0.014856\C,0,-1.401692,0.059149,-0.008471\C,0,-
 0.270616,-0.641916,0.059741\H,0,-4.800442,-0.263953,0.116514\H,0,-3.74
 4267,1.350828,0.004315\H,0,-2.823835,-1.638382,0.143265\H,0,-1.401097,
 1.133584,-0.038165\H,0,-0.245246,-1.719756,0.057084\H,0,0.673154,-0.14
 3254,0.061123\\Version=ES64L-G09RevD.01\State=1-A\HF=-155.6953595\MP2=
 -155.9219746\RMSD=7.364e-09\PG=C01 [X(C4H6)]\\@

 Normal termination of Gaussian 09 at Wed Aug 26 11:01:46 2020.
