 Gaussian 09, Revision D.01,
 Gaussian 09:  ES64L-G09RevD.01 24-Apr-2013

 --------------------
 #p B2PLYPD3/Def2QZVP
 --------------------

 ---------
 butadiene
 ---------
 Symbolic Z-matrix:
 Charge =  0 Multiplicity = 1

                         Standard orientation:
 ---------------------------------------------------------------------
 Center     Atomic      Atomic             Coordinates (Angstroms)
 Number     Number       Type             X           Y           Z
 ---------------------------------------------------------------------
      1          6           0       -1.841493   -0.126391    0.025752
      2          6           0       -0.617973    0.445645   -0.036757
      3          6           0        0.589539   -0.390191   -0.009540
      4          6           0        1.852011    0.088986    0.001194
      5          1           0       -2.730299    0.487162    0.003631
      6          1           0       -1.920094   -1.220386    0.069822
      7          1           0       -0.423454    1.486295   -0.044718
      8          1           0        0.442424   -1.475347   -0.063961
      9          1           0        2.061851    1.182427    0.135021
     10          1           0        2.677064   -0.568444    0.016313
 ---------------------------------------------------------------------

 SCF Done:  E(RB2PLYPD3) =  -155.696004971     A.U. after   11 cycles
 E2(B2PLYPD3) =    -0.2266500320D+00 E(B2PLYPD3) =    -0.15592265500321D+03

 The electronic state is 1-A.
 Alpha  occ. eigenvalues --  -10.62841 -10.62744 -10.62110 -10.61704  -0.92576
 Alpha  occ. eigenvalues --   -0.84423  -0.70045  -0.64159  -0.54508  -0.53389
 Alpha  occ. eigenvalues --   -0.46903  -0.45450  -0.41290  -0.37714  -0.27444
 Alpha virt. eigenvalues --    0.01514   0.07027   0.07292   0.08158   0.09160
 Alpha virt. eigenvalues --    0.11693   0.12334   0.14616   0.15789   0.16080
 Alpha virt. eigenvalues --    0.18715   0.20290   0.21518   0.22637   0.24191

 Mulliken charges:
               1
     1  C   -0.171254
     2  C   -0.042793
     3  C   -0.024753
     4  C   -0.183710
     5  H    0.088381
     6  H    0.070515
     7  H    0.064659
     8  H    0.051352
     9  H    0.059996
    10  H    0.087606
 Sum of Mulliken charges =   0.00000

 Dipole moment (field-independent basis, Debye):
    X=             -0.0572    Y=              0.0045    Z=              0.0793  Tot=              0.0979
 Quadrupole moment (field-independent basis, Debye-Ang):
   XX=            -23.7388   YY=            -22.9816   ZZ=            -29.4250
   XY=              0.1414   XZ=              0.1641   YZ=              0.0950

 1\1\GINC-NODE13\SP\RB2PLYPD3-FC\def2QZVP\C4H6\BOITTIER\26-Aug-2020\0\\
 #p B2PLYPD3/Def2QZVP\\butadiene\\0,1\C,0,-3.836861,0.247035,-0.005943\
 C,0,-2.738424,-0.537691,0.070045\C,0,-1.398478,0.062159,0.023437\C,0,-
 0.245061,-0.640115,0.024037\H,0,-4.822832,-0.192798,0.030411\H,0,-3.71
 4132,1.335629,-0.07557\H,0,-2.737582,-1.595902,0.102339\H,0,-1.344313,
 1.15687,0.052474\H,0,-0.239409,-1.756275,-0.084184\H,0,0.686291,-0.145
 328,-0.00635\\Version=ES64L-G09RevD.01\State=1-A\HF=-155.696005\MP2=-1
 55.922655\RMSD=6.478e-09\PG=C01 [X(C4H6)]\\@

 Normal termination of Gaussian 09 at Wed Aug 26 11:06:19 2020.
