 Gaussian 09, Revision D.01,
 Gaussian 09:  ES64L-G09RevD.01 24-Apr-2013

 --------------------
 #p B2PLYPD3/Def2QZVP
 --------------------

 ---------
 butadiene
 ---------
 Symbolic Z-matrix:
 Charge =  0 Multiplicity = 1

                         Standard orientation:
 ---------------------------------------------------------------------
 Center     Atomic      Atomic             Coordinates (Angstroms)
 Number     Number       Type             X           Y           Z
 ---------------------------------------------------------------------
      1          6           0        1.843083    0.104176   -0.000135
      2          6           0        0.609153   -0.394782    0.002049
      3          6           0       -0.600448    0.410959   -0.021348
      4          6           0       -1.841784   -0.121143    0.004139
      5          1           0        2.707378   -0.533641   -0.013509
      6          1           0        2.023969    1.161057    0.074262
      7          1           0        0.476089   -1.461402   -0.036171
      8          1           0       -0.501207    1.488115    0.000479
      9          1           0       -2.045319   -1.180883    0.071172
     10          1           0       -2.720935    0.531490   -0.004461
 ---------------------------------------------------------------------

 SCF Done:  E(RB2PLYPD3) =  -155.700410684     A.U. after   11 cycles
 E2(B2PLYPD3) =    -0.2258280192D+00 E(B2PLYPD3) =    -0.15592623870280D+03

 The electronic state is 1-A.
 Alpha  occ. eigenvalues --  -10.62774 -10.62351 -10.61875 -10.61247  -0.92878
 Alpha  occ. eigenvalues --   -0.84773  -0.70205  -0.64297  -0.54512  -0.54034
 Alpha  occ. eigenvalues --   -0.46537  -0.45701  -0.41322  -0.38015  -0.27554
 Alpha virt. eigenvalues --    0.01605   0.06993   0.07478   0.08045   0.09514
 Alpha virt. eigenvalues --    0.11662   0.12406   0.14792   0.15824   0.16244
 Alpha virt. eigenvalues --    0.18827   0.20428   0.21739   0.22809   0.23719

 Mulliken charges:
               1
     1  C   -0.174971
     2  C   -0.029672
     3  C   -0.037041
     4  C   -0.175727
     5  H    0.084332
     6  H    0.065900
     7  H    0.058249
     8  H    0.059220
     9  H    0.069084
    10  H    0.080625
 Sum of Mulliken charges =   0.00000

 Dipole moment (field-independent basis, Debye):
    X=             -0.0007    Y=             -0.0081    Z=              0.0780  Tot=              0.0785
 Quadrupole moment (field-independent basis, Debye-Ang):
   XX=            -23.4701   YY=            -23.0418   ZZ=            -29.2941
   XY=              0.2024   XZ=             -0.0629   YZ=              0.0650

 1\1\GINC-NODE39\SP\RB2PLYPD3-FC\def2QZVP\C4H6\BOITTIER\26-Aug-2020\0\\
 #p B2PLYPD3/Def2QZVP\\butadiene\\0,1\C,0,-3.845307,0.219112,0.017146\C
 ,0,-2.721295,-0.493539,0.033674\C,0,-1.38638,0.081698,0.031522\C,0,-0.
 261154,-0.665653,0.025894\H,0,-4.810172,-0.251944,0.050862\H,0,-3.8334
 53,1.288184,-0.093287\H,0,-2.78211,-1.564796,0.108211\H,0,-1.290322,1.
 157777,-0.026939\H,0,-0.251902,-1.746363,-0.004892\H,0,0.721092,-0.181
 967,0.013659\\Version=ES64L-G09RevD.01\State=1-A\HF=-155.7004107\MP2=-
 155.9262387\RMSD=5.368e-09\PG=C01 [X(C4H6)]\\@

 Normal termination of Gaussian 09 at Wed Aug 26 19:55:51 2020.
