 Gaussian 09, Revision D.01,
 Gaussian 09:  ES64L-G09RevD.01 24-Apr-2013

 --------------------
 #p B2PLYPD3/Def2QZVP
 --------------------

 ---------
 butadiene
 ---------
 Symbolic Z-matrix:
 Charge =  0 Multiplicity = 1

                         Standard orientation:
 ---------------------------------------------------------------------
 Center     Atomic      Atomic             Coordinates (Angstroms)
 Number     Number       Type             X           Y           Z
 ---------------------------------------------------------------------
      1          6           0       -1.823257   -0.128494   -0.022660
      2          6           0       -0.599242    0.432665    0.007884
      3          6           0        0.600951   -0.401830    0.027688
      4          6           0        1.849992    0.096325   -0.044832
      5          1           0       -2.776612    0.493165   -0.002181
      6          1           0       -1.983795   -1.200483   -0.074609
      7          1           0       -0.514925    1.513451    0.136565
      8          1           0        0.393558   -1.445108    0.124294
      9          1           0        1.973461    1.185176   -0.032971
     10          1           0        2.737642   -0.538202    0.040421
 ---------------------------------------------------------------------

 SCF Done:  E(RB2PLYPD3) =  -155.695335093     A.U. after   11 cycles
 E2(B2PLYPD3) =    -0.2267889528D+00 E(B2PLYPD3) =    -0.15592212404581D+03

 The electronic state is 1-A.
 Alpha  occ. eigenvalues --  -10.62924 -10.62669 -10.62351 -10.61921  -0.92779
 Alpha  occ. eigenvalues --   -0.84336  -0.69564  -0.64332  -0.54221  -0.53309
 Alpha  occ. eigenvalues --   -0.46613  -0.45264  -0.41245  -0.37720  -0.27546
 Alpha virt. eigenvalues --    0.01595   0.06999   0.07320   0.07922   0.09196
 Alpha virt. eigenvalues --    0.11649   0.12409   0.14486   0.15745   0.16084
 Alpha virt. eigenvalues --    0.18747   0.20179   0.21559   0.22953   0.23641

 Mulliken charges:
               1
     1  C   -0.175260
     2  C   -0.029991
     3  C   -0.038363
     4  C   -0.172570
     5  H    0.075730
     6  H    0.066755
     7  H    0.062159
     8  H    0.060621
     9  H    0.064703
    10  H    0.086215
 Sum of Mulliken charges =   0.00000

 Dipole moment (field-independent basis, Debye):
    X=             -0.0683    Y=             -0.0299    Z=              0.2029  Tot=              0.2162
 Quadrupole moment (field-independent basis, Debye-Ang):
   XX=            -23.6843   YY=            -23.0907   ZZ=            -29.4236
   XY=              0.2091   XZ=              0.1951   YZ=              0.0602

 1\1\GINC-NODE13\SP\RB2PLYPD3-FC\def2QZVP\C4H6\BOITTIER\26-Aug-2020\0\\
 #p B2PLYPD3/Def2QZVP\\butadiene\\0,1\C,0,-3.825424,0.240494,0.039522\C
 ,0,-2.722721,-0.532668,0.021877\C,0,-1.391852,0.071147,-0.015982\C,0,-
 0.252802,-0.642316,0.068023\H,0,-4.875284,-0.199405,0.03248\H,0,-3.789
 924,1.324736,0.067633\H,0,-2.835058,-1.613498,-0.08278\H,0,-1.408154,1
 .132353,-0.135771\H,0,-0.327658,-1.73558,0.080351\H,0,0.734363,-0.1802
 3,-0.03095\\Version=ES64L-G09RevD.01\State=1-A\HF=-155.6953351\MP2=-15
 5.922124\RMSD=3.406e-09\PG=C01 [X(C4H6)]\\@

 Normal termination of Gaussian 09 at Wed Aug 26 09:59:10 2020.
