 Gaussian 09, Revision D.01,
 Gaussian 09:  ES64L-G09RevD.01 24-Apr-2013

 --------------------
 #p B2PLYPD3/Def2QZVP
 --------------------

 ---------
 butadiene
 ---------
 Symbolic Z-matrix:
 Charge =  0 Multiplicity = 1

                         Standard orientation:
 ---------------------------------------------------------------------
 Center     Atomic      Atomic             Coordinates (Angstroms)
 Number     Number       Type             X           Y           Z
 ---------------------------------------------------------------------
      1          6           0       -1.849349    0.123753    0.001679
      2          6           0       -0.614402   -0.413540   -0.023844
      3          6           0        0.610206    0.382428   -0.006507
      4          6           0        1.847792   -0.107222    0.006425
      5          1           0       -2.738519   -0.502822    0.090506
      6          1           0       -1.958760    1.197410    0.010987
      7          1           0       -0.489735   -1.478327   -0.011309
      8          1           0        0.504584    1.483590   -0.019400
      9          1           0        2.015640   -1.148310    0.018128
     10          1           0        2.701307    0.535937    0.044572
 ---------------------------------------------------------------------

 SCF Done:  E(RB2PLYPD3) =  -155.699897555     A.U. after   11 cycles
 E2(B2PLYPD3) =    -0.2257343746D+00 E(B2PLYPD3) =    -0.15592563192918D+03

 The electronic state is 1-A.
 Alpha  occ. eigenvalues --  -10.62713 -10.62645 -10.61841 -10.60971  -0.92808
 Alpha  occ. eigenvalues --   -0.84989  -0.70191  -0.64123  -0.54469  -0.54226
 Alpha  occ. eigenvalues --   -0.46646  -0.45795  -0.41249  -0.37969  -0.27680
 Alpha virt. eigenvalues --    0.01655   0.06994   0.07487   0.08033   0.09587
 Alpha virt. eigenvalues --    0.11685   0.12478   0.14679   0.15915   0.16087
 Alpha virt. eigenvalues --    0.18820   0.20573   0.21498   0.22848   0.23934

 Mulliken charges:
               1
     1  C   -0.173947
     2  C   -0.039937
     3  C   -0.020708
     4  C   -0.179681
     5  H    0.087580
     6  H    0.068658
     7  H    0.057833
     8  H    0.047189
     9  H    0.065546
    10  H    0.087468
 Sum of Mulliken charges =   0.00000

 Dipole moment (field-independent basis, Debye):
    X=              0.0063    Y=             -0.0281    Z=              0.1047  Tot=              0.1086
 Quadrupole moment (field-independent basis, Debye-Ang):
   XX=            -23.4520   YY=            -23.0922   ZZ=            -29.2833
   XY=             -0.0255   XZ=             -0.1511   YZ=             -0.0540

 1\1\GINC-NODE03\SP\RB2PLYPD3-FC\def2QZVP\C4H6\BOITTIER\26-Aug-2020\0\\
 #p B2PLYPD3/Def2QZVP\\butadiene\\0,1\C,0,-3.849713,0.233709,0.023711\C
 ,0,-2.728725,-0.513124,0.016241\C,0,-1.383091,0.054981,0.008908\C,0,-0
 .25093,-0.644225,0.03835\H,0,-4.834813,-0.223425,0.131956\H,0,-3.76844
 ,1.309608,-0.001441\H,0,-2.793312,-1.582291,0.062951\H,0,-1.293358,1.1
 56572,-0.039312\H,0,-0.268843,-1.697703,0.083499\H,0,0.702621,-0.16048
 1,0.056459\\Version=ES64L-G09RevD.01\State=1-A\HF=-155.6998976\MP2=-15
 5.9256319\RMSD=5.820e-09\PG=C01 [X(C4H6)]\\@

 Normal termination of Gaussian 09 at Wed Aug 26 16:27:59 2020.
