 Gaussian 09, Revision D.01,
 Gaussian 09:  ES64L-G09RevD.01 24-Apr-2013

 --------------------
 #p B2PLYPD3/Def2QZVP
 --------------------

 ---------
 butadiene
 ---------
 Symbolic Z-matrix:
 Charge =  0 Multiplicity = 1

                         Standard orientation:
 ---------------------------------------------------------------------
 Center     Atomic      Atomic             Coordinates (Angstroms)
 Number     Number       Type             X           Y           Z
 ---------------------------------------------------------------------
      1          6           0       -1.833786    0.100326   -0.007914
      2          6           0       -0.596515   -0.386150    0.010798
      3          6           0        0.605530    0.403875   -0.010758
      4          6           0        1.827950   -0.115973   -0.009783
      5          1           0       -2.686446   -0.521692    0.035372
      6          1           0       -1.988952    1.159411   -0.044918
      7          1           0       -0.468573   -1.464633    0.023542
      8          1           0        0.463491    1.484055    0.067366
      9          1           0        1.970692   -1.192318   -0.024041
     10          1           0        2.690709    0.522713    0.048623
 ---------------------------------------------------------------------

 SCF Done:  E(RB2PLYPD3) =  -155.700940914     A.U. after   11 cycles
 E2(B2PLYPD3) =    -0.2252762501D+00 E(B2PLYPD3) =    -0.15592621716456D+03

 The electronic state is 1-A.
 Alpha  occ. eigenvalues --  -10.62326 -10.62150 -10.61409 -10.60940  -0.93353
 Alpha  occ. eigenvalues --   -0.85179  -0.70434  -0.64017  -0.54887  -0.54195
 Alpha  occ. eigenvalues --   -0.46855  -0.45662  -0.41189  -0.38358  -0.27712
 Alpha virt. eigenvalues --    0.01789   0.07068   0.07403   0.08100   0.09786
 Alpha virt. eigenvalues --    0.11747   0.12478   0.14814   0.15737   0.16232
 Alpha virt. eigenvalues --    0.18737   0.20375   0.21739   0.22883   0.23999

 Mulliken charges:
               1
     1  C   -0.179842
     2  C   -0.021980
     3  C   -0.027697
     4  C   -0.177480
     5  H    0.089071
     6  H    0.062458
     7  H    0.048416
     8  H    0.051987
     9  H    0.067506
    10  H    0.087561
 Sum of Mulliken charges =   0.00000

 Dipole moment (field-independent basis, Debye):
    X=              0.0093    Y=             -0.0018    Z=              0.0947  Tot=              0.0952
 Quadrupole moment (field-independent basis, Debye-Ang):
   XX=            -23.4952   YY=            -23.1184   ZZ=            -29.1524
   XY=             -0.0711   XZ=              0.1217   YZ=              0.0500

 1\1\GINC-NODE27\SP\RB2PLYPD3-FC\def2QZVP\C4H6\BOITTIER\26-Aug-2020\0\\
 #p B2PLYPD3/Def2QZVP\\butadiene\\0,1\C,0,-3.837906,0.215779,0.011771\C
 ,0,-2.709292,-0.486298,0.045961\C,0,-1.383988,0.071947,0.007905\C,0,-0
 .276063,-0.66069,0.025158\H,0,-4.789116,-0.240086,0.068292\H,0,-3.7985
 75,1.28418,-0.052103\H,0,-2.778958,-1.569442,0.085994\H,0,-1.327707,1.
 161593,0.058632\H,0,-0.330837,-1.745092,0.038184\H,0,0.688293,-0.18772
 1,0.069908\\Version=ES64L-G09RevD.01\State=1-A\HF=-155.7009409\MP2=-15
 5.9262172\RMSD=2.751e-09\PG=C01 [X(C4H6)]\\@

 Normal termination of Gaussian 09 at Wed Aug 26 20:17:37 2020.
