 Gaussian 09, Revision D.01,
 Gaussian 09:  ES64L-G09RevD.01 24-Apr-2013

 --------------------
 #p B2PLYPD3/Def2QZVP
 --------------------

 ---------
 butadiene
 ---------
 Symbolic Z-matrix:
 Charge =  0 Multiplicity = 1

                         Standard orientation:
 ---------------------------------------------------------------------
 Center     Atomic      Atomic             Coordinates (Angstroms)
 Number     Number       Type             X           Y           Z
 ---------------------------------------------------------------------
      1          6           0       -1.834322   -0.115065    0.010609
      2          6           0       -0.598970    0.410473   -0.005126
      3          6           0        0.607241   -0.402760   -0.021595
      4          6           0        1.836649    0.104901    0.000202
      5          1           0       -2.719036    0.520876   -0.006077
      6          1           0       -1.985064   -1.175091    0.057767
      7          1           0       -0.477395    1.484472   -0.044230
      8          1           0        0.414312   -1.476997   -0.028625
      9          1           0        1.974609    1.167300    0.072353
     10          1           0        2.728988   -0.505860    0.044270
 ---------------------------------------------------------------------

 SCF Done:  E(RB2PLYPD3) =  -155.700802722     A.U. after   11 cycles
 E2(B2PLYPD3) =    -0.2257405875D+00 E(B2PLYPD3) =    -0.15592654330932D+03

 The electronic state is 1-A.
 Alpha  occ. eigenvalues --  -10.62576 -10.62513 -10.61567 -10.61381  -0.93021
 Alpha  occ. eigenvalues --   -0.84841  -0.70140  -0.64243  -0.54584  -0.53899
 Alpha  occ. eigenvalues --   -0.46740  -0.45750  -0.41141  -0.38121  -0.27648
 Alpha virt. eigenvalues --    0.01743   0.07025   0.07398   0.08102   0.09492
 Alpha virt. eigenvalues --    0.11718   0.12517   0.14714   0.15882   0.16068
 Alpha virt. eigenvalues --    0.18749   0.20526   0.21666   0.23029   0.23711

 Mulliken charges:
               1
     1  C   -0.180264
     2  C   -0.028305
     3  C   -0.029145
     4  C   -0.173312
     5  H    0.084890
     6  H    0.066515
     7  H    0.055425
     8  H    0.053185
     9  H    0.064849
    10  H    0.086162
 Sum of Mulliken charges =   0.00000

 Dipole moment (field-independent basis, Debye):
    X=             -0.0054    Y=              0.0062    Z=              0.0744  Tot=              0.0749
 Quadrupole moment (field-independent basis, Debye-Ang):
   XX=            -23.4899   YY=            -23.1218   ZZ=            -29.2659
   XY=              0.1971   XZ=              0.2110   YZ=             -0.0423

 1\1\GINC-NODE27\SP\RB2PLYPD3-FC\def2QZVP\C4H6\BOITTIER\26-Aug-2020\0\\
 #p B2PLYPD3/Def2QZVP\\butadiene\\0,1\C,0,-3.836513,0.230008,0.008536\C
 ,0,-2.716754,-0.50999,0.041306\C,0,-1.383093,0.07124,0.032119\C,0,-0.2
 66148,-0.651287,0.026804\H,0,-4.821697,-0.23419,0.045283\H,0,-3.792966
 ,1.297787,-0.072429\H,0,-2.79156,-1.586469,0.114659\H,0,-1.378159,1.16
 2335,0.004852\H,0,-0.323357,-1.722827,-0.011407\H,0,0.721821,-0.214081
 ,-0.036506\\Version=ES64L-G09RevD.01\State=1-A\HF=-155.7008027\MP2=-15
 5.9265433\RMSD=4.561e-09\PG=C01 [X(C4H6)]\\@

 Normal termination of Gaussian 09 at Wed Aug 26 16:14:03 2020.
