 Gaussian 09, Revision D.01,
 Gaussian 09:  ES64L-G09RevD.01 24-Apr-2013

 --------------------
 #p B2PLYPD3/Def2QZVP
 --------------------

 ---------
 butadiene
 ---------
 Symbolic Z-matrix:
 Charge =  0 Multiplicity = 1

                         Standard orientation:
 ---------------------------------------------------------------------
 Center     Atomic      Atomic             Coordinates (Angstroms)
 Number     Number       Type             X           Y           Z
 ---------------------------------------------------------------------
      1          6           0       -1.823396    0.123649   -0.001086
      2          6           0       -0.594329   -0.419084   -0.011846
      3          6           0        0.606634    0.367234   -0.030929
      4          6           0        1.819206   -0.099889    0.014555
      5          1           0       -2.753391   -0.492679    0.088551
      6          1           0       -1.938841    1.237050    0.070376
      7          1           0       -0.464111   -1.465221    0.005283
      8          1           0        0.470310    1.457540   -0.098022
      9          1           0        1.971413   -1.156207   -0.051935
     10          1           0        2.665931    0.588058    0.161586
 ---------------------------------------------------------------------

 SCF Done:  E(RB2PLYPD3) =  -155.694320589     A.U. after   11 cycles
 E2(B2PLYPD3) =    -0.2256856483D+00 E(B2PLYPD3) =    -0.15592000623734D+03

 The electronic state is 1-A.
 Alpha  occ. eigenvalues --  -10.62490 -10.62218 -10.61784 -10.60939  -0.93654
 Alpha  occ. eigenvalues --   -0.85104  -0.69705  -0.64151  -0.54246  -0.54102
 Alpha  occ. eigenvalues --   -0.46696  -0.45145  -0.41191  -0.38341  -0.27781
 Alpha virt. eigenvalues --    0.01857   0.06940   0.07386   0.07954   0.09755
 Alpha virt. eigenvalues --    0.11777   0.12382   0.14603   0.15607   0.16150
 Alpha virt. eigenvalues --    0.18614   0.20292   0.21500   0.22698   0.24101

 Mulliken charges:
               1
     1  C   -0.168483
     2  C   -0.044464
     3  C   -0.005501
     4  C   -0.183349
     5  H    0.082033
     6  H    0.062460
     7  H    0.057874
     8  H    0.047031
     9  H    0.065235
    10  H    0.087163
 Sum of Mulliken charges =   0.00000

 Dipole moment (field-independent basis, Debye):
    X=              0.0077    Y=             -0.0355    Z=              0.1319  Tot=              0.1368
 Quadrupole moment (field-independent basis, Debye-Ang):
   XX=            -23.8093   YY=            -23.1354   ZZ=            -29.1519
   XY=              0.0292   XZ=             -0.0819   YZ=              0.1115

 1\1\GINC-NODE34\SP\RB2PLYPD3-FC\def2QZVP\C4H6\BOITTIER\26-Aug-2020\0\\
 #p B2PLYPD3/Def2QZVP\\butadiene\\0,1\C,0,-3.823898,0.236778,0.022791\C
 ,0,-2.712287,-0.517939,0.025077\C,0,-1.389733,0.039323,-0.010743\C,0,-
 0.280588,-0.636823,0.046068\H,0,-4.849135,-0.200393,0.125536\H,0,-3.73
 733,1.354117,0.069216\H,0,-2.771952,-1.569813,0.065725\H,0,-1.32831,1.
 134627,-0.102336\H,0,-0.320727,-1.704512,0.003362\H,0,0.676374,-0.1090
 17,0.178267\\Version=ES64L-G09RevD.01\State=1-A\HF=-155.6943206\MP2=-1
 55.9200062\RMSD=7.596e-09\PG=C01 [X(C4H6)]\\@

 Normal termination of Gaussian 09 at Wed Aug 26 10:59:47 2020.
