 Gaussian 09, Revision D.01,
 Gaussian 09:  ES64L-G09RevD.01 24-Apr-2013

 --------------------
 #p B2PLYPD3/Def2QZVP
 --------------------

 ---------
 butadiene
 ---------
 Symbolic Z-matrix:
 Charge =  0 Multiplicity = 1

                         Standard orientation:
 ---------------------------------------------------------------------
 Center     Atomic      Atomic             Coordinates (Angstroms)
 Number     Number       Type             X           Y           Z
 ---------------------------------------------------------------------
      1          6           0        1.865005    0.109482    0.027406
      2          6           0        0.612967   -0.366629   -0.079745
      3          6           0       -0.621434    0.406500   -0.067141
      4          6           0       -1.839984   -0.153273    0.014753
      5          1           0        2.637166   -0.643155    0.204584
      6          1           0        2.086525    1.197102    0.060926
      7          1           0        0.510496   -1.445361   -0.042788
      8          1           0       -0.632450    1.495531    0.102357
      9          1           0       -2.031908   -1.131165    0.201788
     10          1           0       -2.669153    0.550570    0.101497
 ---------------------------------------------------------------------

 SCF Done:  E(RB2PLYPD3) =  -155.687678772     A.U. after   11 cycles
 E2(B2PLYPD3) =    -0.2265013373D+00 E(B2PLYPD3) =    -0.15591418010950D+03

 The electronic state is 1-A.
 Alpha  occ. eigenvalues --  -10.62889 -10.62669 -10.62044 -10.60988  -0.92749
 Alpha  occ. eigenvalues --   -0.85109  -0.70173  -0.63967  -0.55046  -0.53471
 Alpha  occ. eigenvalues --   -0.46462  -0.45423  -0.41398  -0.37690  -0.27558
 Alpha virt. eigenvalues --    0.01327   0.06918   0.07462   0.07840   0.09413
 Alpha virt. eigenvalues --    0.11672   0.12269   0.14812   0.15649   0.16308
 Alpha virt. eigenvalues --    0.18769   0.19714   0.21853   0.22963   0.24003

 Mulliken charges:
               1
     1  C   -0.176552
     2  C   -0.032402
     3  C   -0.032450
     4  C   -0.170267
     5  H    0.083551
     6  H    0.073585
     7  H    0.054251
     8  H    0.055528
     9  H    0.073522
    10  H    0.071235
 Sum of Mulliken charges =   0.00000

 Dipole moment (field-independent basis, Debye):
    X=             -0.0631    Y=             -0.0347    Z=              0.4869  Tot=              0.4922
 Quadrupole moment (field-independent basis, Debye-Ang):
   XX=            -24.0734   YY=            -22.9100   ZZ=            -29.2185
   XY=             -0.0033   XZ=             -0.0958   YZ=             -0.0878

 1\1\GINC-NODE08\SP\RB2PLYPD3-FC\def2QZVP\C4H6\BOITTIER\26-Aug-2020\0\\
 #p B2PLYPD3/Def2QZVP\\butadiene\\0,1\C,0,-3.868599,0.213597,-0.018266\
 C,0,-2.716894,-0.468456,0.100656\C,0,-1.367845,0.080001,0.070739\C,0,-
 0.26419,-0.683031,0.002598\H,0,-4.759444,-0.398672,-0.178295\H,0,-3.89
 9624,1.322052,-0.077244\H,0,-2.801852,-1.549276,0.088903\H,0,-1.170038
 ,1.146657,-0.124082\H,0,-0.244184,-1.683413,-0.161492\H,0,0.673496,-0.
 134716,-0.100054\\Version=ES64L-G09RevD.01\State=1-A\HF=-155.6876788\M
 P2=-155.9141801\RMSD=8.990e-09\PG=C01 [X(C4H6)]\\@

 Normal termination of Gaussian 09 at Wed Aug 26 14:19:32 2020.
