 Gaussian 09, Revision D.01,
 Gaussian 09:  ES64L-G09RevD.01 24-Apr-2013

 --------------------
 #p B2PLYPD3/Def2QZVP
 --------------------

 ---------
 butadiene
 ---------
 Symbolic Z-matrix:
 Charge =  0 Multiplicity = 1

                         Standard orientation:
 ---------------------------------------------------------------------
 Center     Atomic      Atomic             Coordinates (Angstroms)
 Number     Number       Type             X           Y           Z
 ---------------------------------------------------------------------
      1          6           0       -1.862755   -0.086398    0.022785
      2          6           0       -0.605161    0.369147   -0.031810
      3          6           0        0.605708   -0.421242   -0.005131
      4          6           0        1.843402    0.122005    0.004302
      5          1           0       -2.770308    0.541073    0.040758
      6          1           0       -2.004255   -1.150072    0.077259
      7          1           0       -0.435440    1.468052   -0.150597
      8          1           0        0.497034   -1.475888   -0.084786
      9          1           0        2.052427    1.195891    0.187130
     10          1           0        2.773376   -0.480127   -0.010644
 ---------------------------------------------------------------------

 SCF Done:  E(RB2PLYPD3) =  -155.694881089     A.U. after   11 cycles
 E2(B2PLYPD3) =    -0.2267276167D+00 E(B2PLYPD3) =    -0.15592160870525D+03

 The electronic state is 1-A.
 Alpha  occ. eigenvalues --  -10.62920 -10.62849 -10.62535 -10.61797  -0.92861
 Alpha  occ. eigenvalues --   -0.84532  -0.70228  -0.63937  -0.54552  -0.53450
 Alpha  occ. eigenvalues --   -0.47179  -0.44777  -0.40906  -0.37942  -0.27576
 Alpha virt. eigenvalues --    0.01241   0.06970   0.07428   0.07914   0.09484
 Alpha virt. eigenvalues --    0.11542   0.12462   0.14530   0.15787   0.16184
 Alpha virt. eigenvalues --    0.18832   0.20349   0.21611   0.22649   0.23183

 Mulliken charges:
               1
     1  C   -0.176671
     2  C   -0.022084
     3  C   -0.043349
     4  C   -0.167243
     5  H    0.090890
     6  H    0.060760
     7  H    0.050734
     8  H    0.063022
     9  H    0.066307
    10  H    0.077636
 Sum of Mulliken charges =   0.00000

 Dipole moment (field-independent basis, Debye):
    X=              0.0473    Y=             -0.0354    Z=              0.0405  Tot=              0.0716
 Quadrupole moment (field-independent basis, Debye-Ang):
   XX=            -23.1281   YY=            -23.4249   ZZ=            -29.3480
   XY=              0.1826   XZ=              0.0843   YZ=              0.1196

 1\1\GINC-NODE01\SP\RB2PLYPD3-FC\def2QZVP\C4H6\BOITTIER\26-Aug-2020\0\\
 #p B2PLYPD3/Def2QZVP\\butadiene\\0,1\C,0,-3.867407,0.203151,-0.001733\
 C,0,-2.712244,-0.470168,0.063733\C,0,-1.378925,0.08846,0.021003\C,0,-0
 .259327,-0.668892,0.024332\H,0,-4.873168,-0.250845,-0.006909\H,0,-3.81
 5215,1.273503,-0.079279\H,0,-2.742823,-1.578875,0.206361\H,0,-1.295658
 ,1.146891,0.077776\H,0,-0.247666,-1.766524,-0.135092\H,0,0.763916,-0.2
 43917,0.027048\\Version=ES64L-G09RevD.01\State=1-A\HF=-155.6948811\MP2
 =-155.9216087\RMSD=6.346e-09\PG=C01 [X(C4H6)]\\@

 Normal termination of Gaussian 09 at Wed Aug 26 09:53:32 2020.
