 Gaussian 09, Revision D.01,
 Gaussian 09:  ES64L-G09RevD.01 24-Apr-2013

 --------------------
 #p B2PLYPD3/Def2QZVP
 --------------------

 ---------
 butadiene
 ---------
 Symbolic Z-matrix:
 Charge =  0 Multiplicity = 1

                         Standard orientation:
 ---------------------------------------------------------------------
 Center     Atomic      Atomic             Coordinates (Angstroms)
 Number     Number       Type             X           Y           Z
 ---------------------------------------------------------------------
      1          6           0       -1.841905    0.095783    0.063498
      2          6           0       -0.611534   -0.345422   -0.042134
      3          6           0        0.597891    0.392185   -0.070626
      4          6           0        1.841596   -0.122474    0.082470
      5          1           0       -2.574361   -0.650820   -0.170710
      6          1           0       -2.057861    1.200579    0.270027
      7          1           0       -0.451454   -1.403098   -0.109179
      8          1           0        0.553834    1.450813   -0.252165
      9          1           0        1.871295   -1.222089    0.087651
     10          1           0        2.742264    0.504190   -0.024870
 ---------------------------------------------------------------------

 SCF Done:  E(RB2PLYPD3) =  -155.685493541     A.U. after   12 cycles
 E2(B2PLYPD3) =    -0.2265916553D+00 E(B2PLYPD3) =    -0.15591208519651D+03

 The electronic state is 1-A.
 Alpha  occ. eigenvalues --  -10.62262 -10.62131 -10.61796 -10.61602  -0.93668
 Alpha  occ. eigenvalues --   -0.85164  -0.70265  -0.63667  -0.54294  -0.53911
 Alpha  occ. eigenvalues --   -0.46702  -0.45530  -0.41114  -0.37861  -0.27645
 Alpha virt. eigenvalues --    0.01131   0.07005   0.07454   0.07821   0.10048
 Alpha virt. eigenvalues --    0.11750   0.12128   0.14612   0.15491   0.16201
 Alpha virt. eigenvalues --    0.18799   0.19659   0.21068   0.21858   0.24721

 Mulliken charges:
               1
     1  C   -0.182255
     2  C   -0.016012
     3  C   -0.037334
     4  C   -0.174417
     5  H    0.089445
     6  H    0.074046
     7  H    0.046100
     8  H    0.052247
     9  H    0.058812
    10  H    0.089369
 Sum of Mulliken charges =   0.00000

 Dipole moment (field-independent basis, Debye):
    X=              0.0330    Y=              0.0157    Z=             -0.2563  Tot=              0.2589
 Quadrupole moment (field-independent basis, Debye-Ang):
   XX=            -24.0680   YY=            -23.2268   ZZ=            -29.0991
   XY=              0.2613   XZ=             -0.0780   YZ=              0.2185

 1\1\GINC-NODE15\SP\RB2PLYPD3-FC\def2QZVP\C4H6\BOITTIER\26-Aug-2020\0\\
 #p B2PLYPD3/Def2QZVP\\butadiene\\0,1\C,0,-3.846141,0.205882,0.080752\C
 ,0,-2.714131,-0.449177,-0.014552\C,0,-1.393043,0.060982,-0.059816\C,0,
 -0.259936,-0.662858,0.105228\H,0,-4.700484,-0.403814,-0.136344\H,0,-3.
 861607,1.335856,0.261822\H,0,-2.744731,-1.519709,-0.057264\H,0,-1.2490
 77,1.106212,-0.265629\H,0,-0.426008,-1.749852,0.135669\H,0,0.73729,-0.
 208776,-0.016356\\Version=ES64L-G09RevD.01\State=1-A\HF=-155.6854935\M
 P2=-155.9120852\RMSD=3.439e-09\PG=C01 [X(C4H6)]\\@

 Normal termination of Gaussian 09 at Wed Aug 26 14:58:28 2020.
