 Gaussian 09, Revision D.01,
 Gaussian 09:  ES64L-G09RevD.01 24-Apr-2013

 --------------------
 #p B2PLYPD3/Def2QZVP
 --------------------

 ---------
 butadiene
 ---------
 Symbolic Z-matrix:
 Charge =  0 Multiplicity = 1

                         Standard orientation:
 ---------------------------------------------------------------------
 Center     Atomic      Atomic             Coordinates (Angstroms)
 Number     Number       Type             X           Y           Z
 ---------------------------------------------------------------------
      1          6           0        1.843026   -0.123433   -0.005901
      2          6           0        0.592043    0.400740    0.031710
      3          6           0       -0.621164   -0.379729   -0.045811
      4          6           0       -1.828557    0.090638   -0.044071
      5          1           0        2.739310    0.515223    0.014880
      6          1           0        2.131397   -1.132831   -0.113292
      7          1           0        0.483347    1.493090    0.082817
      8          1           0       -0.454069   -1.446908    0.244052
      9          1           0       -2.004928    1.181257    0.009607
     10          1           0       -2.807140   -0.539126    0.146371
 ---------------------------------------------------------------------

 SCF Done:  E(RB2PLYPD3) =  -155.682524789     A.U. after   11 cycles
 E2(B2PLYPD3) =    -0.2267006944D+00 E(B2PLYPD3) =    -0.15590922548302D+03

 The electronic state is 1-A.
 Alpha  occ. eigenvalues --  -10.63229 -10.62422 -10.62257 -10.61926  -0.93269
 Alpha  occ. eigenvalues --   -0.84897  -0.70120  -0.63548  -0.54334  -0.53601
 Alpha  occ. eigenvalues --   -0.47036  -0.44637  -0.40238  -0.37822  -0.28019
 Alpha virt. eigenvalues --    0.01485   0.06908   0.07311   0.07679   0.09393
 Alpha virt. eigenvalues --    0.11481   0.12449   0.14603   0.15199   0.16510
 Alpha virt. eigenvalues --    0.18927   0.19611   0.21763   0.22904   0.23378

 Mulliken charges:
               1
     1  C   -0.171033
     2  C   -0.043659
     3  C   -0.019208
     4  C   -0.157229
     5  H    0.074314
     6  H    0.071248
     7  H    0.055071
     8  H    0.061126
     9  H    0.055810
    10  H    0.073560
 Sum of Mulliken charges =   0.00000

 Dipole moment (field-independent basis, Debye):
    X=              0.0544    Y=              0.0299    Z=              0.3064  Tot=              0.3126
 Quadrupole moment (field-independent basis, Debye-Ang):
   XX=            -23.1958   YY=            -23.5989   ZZ=            -29.2049
   XY=             -0.4902   XZ=             -0.8099   YZ=             -0.1374

 1\1\GINC-NODE05\SP\RB2PLYPD3-FC\def2QZVP\C4H6\BOITTIER\26-Aug-2020\0\\
 #p B2PLYPD3/Def2QZVP\\butadiene\\0,1\C,0,-3.844424,0.237956,0.009836\C
 ,0,-2.709027,-0.502853,0.06646\C,0,-1.374329,0.044087,-0.013854\C,0,-0
 .271891,-0.636571,0.005656\H,0,-4.841494,-0.22779,0.03371\H,0,-3.945,1
 .28078,-0.116572\H,0,-2.799868,-1.595786,0.13647\H,0,-1.347241,1.12885
 8,0.256978\H,0,-0.295873,-1.739982,0.07877\H,0,0.803419,-0.190695,0.19
 3798\\Version=ES64L-G09RevD.01\State=1-A\HF=-155.6825248\MP2=-155.9092
 255\RMSD=8.932e-09\PG=C01 [X(C4H6)]\\@

 Normal termination of Gaussian 09 at Wed Aug 26 16:13:02 2020.
