 Gaussian 09, Revision D.01,
 Gaussian 09:  ES64L-G09RevD.01 24-Apr-2013

 --------------------
 #p B2PLYPD3/Def2QZVP
 --------------------

 ---------
 butadiene
 ---------
 Symbolic Z-matrix:
 Charge =  0 Multiplicity = 1

                         Standard orientation:
 ---------------------------------------------------------------------
 Center     Atomic      Atomic             Coordinates (Angstroms)
 Number     Number       Type             X           Y           Z
 ---------------------------------------------------------------------
      1          6           0       -1.837532    0.103411    0.028793
      2          6           0       -0.601901   -0.393044   -0.039944
      3          6           0        0.605029    0.423891   -0.024041
      4          6           0        1.830375   -0.118838    0.013786
      5          1           0       -2.668056   -0.540733    0.037743
      6          1           0       -1.980307    1.165833    0.012871
      7          1           0       -0.489873   -1.471455   -0.013629
      8          1           0        0.476942    1.511002   -0.008843
      9          1           0        1.932008   -1.212906    0.052789
     10          1           0        2.753458    0.455735    0.047507
 ---------------------------------------------------------------------

 SCF Done:  E(RB2PLYPD3) =  -155.699739026     A.U. after   11 cycles
 E2(B2PLYPD3) =    -0.2257966743D+00 E(B2PLYPD3) =    -0.15592553570021D+03

 The electronic state is 1-A.
 Alpha  occ. eigenvalues --  -10.62825 -10.62388 -10.61858 -10.60907  -0.92958
 Alpha  occ. eigenvalues --   -0.84922  -0.69987  -0.64071  -0.54759  -0.53956
 Alpha  occ. eigenvalues --   -0.46595  -0.45425  -0.41437  -0.38071  -0.27636
 Alpha virt. eigenvalues --    0.01807   0.07059   0.07367   0.08084   0.09460
 Alpha virt. eigenvalues --    0.11691   0.12534   0.14581   0.15903   0.16199
 Alpha virt. eigenvalues --    0.18725   0.20390   0.21591   0.22955   0.24043

 Mulliken charges:
               1
     1  C   -0.180945
     2  C   -0.022943
     3  C   -0.036087
     4  C   -0.170423
     5  H    0.088811
     6  H    0.065694
     7  H    0.052663
     8  H    0.055165
     9  H    0.061645
    10  H    0.086421
 Sum of Mulliken charges =   0.00000

 Dipole moment (field-independent basis, Debye):
    X=              0.0155    Y=             -0.0033    Z=              0.0728  Tot=              0.0745
 Quadrupole moment (field-independent basis, Debye-Ang):
   XX=            -23.5391   YY=            -23.0519   ZZ=            -29.2857
   XY=              0.0131   XZ=              0.1055   YZ=             -0.0533

 1\1\GINC-NODE27\SP\RB2PLYPD3-FC\def2QZVP\C4H6\BOITTIER\26-Aug-2020\0\\
 #p B2PLYPD3/Def2QZVP\\butadiene\\0,1\C,0,-3.841385,0.214688,0.047313\C
 ,0,-2.714631,-0.4967,-0.000964\C,0,-1.381068,0.09139,-0.009651\C,0,-0.
 272346,-0.660022,0.050127\H,0,-4.773636,-0.269932,0.075976\H,0,-3.7920
 1,1.284347,-0.005334\H,0,-2.797081,-1.576229,0.062531\H,0,-1.312724,1.
 183762,-0.032\H,0,-0.367779,-1.752656,0.126809\H,0,0.738682,-0.258899,
 0.066747\\Version=ES64L-G09RevD.01\State=1-A\HF=-155.699739\MP2=-155.9
 255357\RMSD=3.291e-09\PG=C01 [X(C4H6)]\\@

 Normal termination of Gaussian 09 at Wed Aug 26 09:08:11 2020.
