 Gaussian 09, Revision D.01,
 Gaussian 09:  ES64L-G09RevD.01 24-Apr-2013

 --------------------
 #p B2PLYPD3/Def2QZVP
 --------------------

 ---------
 butadiene
 ---------
 Symbolic Z-matrix:
 Charge =  0 Multiplicity = 1

                         Standard orientation:
 ---------------------------------------------------------------------
 Center     Atomic      Atomic             Coordinates (Angstroms)
 Number     Number       Type             X           Y           Z
 ---------------------------------------------------------------------
      1          6           0        1.822893   -0.132191    0.050829
      2          6           0        0.576147    0.456355   -0.083895
      3          6           0       -0.597276   -0.369003   -0.034435
      4          6           0       -1.838254    0.060966    0.072802
      5          1           0        2.842270    0.395648   -0.046597
      6          1           0        1.908569   -1.177006    0.238609
      7          1           0        0.505889    1.559971   -0.036235
      8          1           0       -0.243214   -1.433882   -0.197802
      9          1           0       -2.084664    1.144778    0.141726
     10          1           0       -2.709906   -0.586269   -0.131503
 ---------------------------------------------------------------------

 SCF Done:  E(RB2PLYPD3) =  -155.680417716     A.U. after   12 cycles
 E2(B2PLYPD3) =    -0.2282814490D+00 E(B2PLYPD3) =    -0.15590869916532D+03

 The electronic state is 1-A.
 Alpha  occ. eigenvalues --  -10.63480 -10.63007 -10.62911 -10.61951  -0.93116
 Alpha  occ. eigenvalues --   -0.84102  -0.70026  -0.63658  -0.54372  -0.52860
 Alpha  occ. eigenvalues --   -0.46482  -0.45020  -0.40658  -0.37875  -0.27297
 Alpha virt. eigenvalues --    0.00814   0.07010   0.07164   0.07878   0.09248
 Alpha virt. eigenvalues --    0.11519   0.12391   0.14518   0.15439   0.16261
 Alpha virt. eigenvalues --    0.18966   0.19858   0.21433   0.22465   0.22781

 Mulliken charges:
               1
     1  C   -0.174581
     2  C   -0.037095
     3  C   -0.016921
     4  C   -0.170912
     5  H    0.079391
     6  H    0.063462
     7  H    0.060851
     8  H    0.050330
     9  H    0.062306
    10  H    0.083168
 Sum of Mulliken charges =   0.00000

 Dipole moment (field-independent basis, Debye):
    X=              0.1050    Y=              0.0362    Z=             -0.0959  Tot=              0.1467
 Quadrupole moment (field-independent basis, Debye-Ang):
   XX=            -23.4111   YY=            -23.5423   ZZ=            -29.3987
   XY=             -0.6029   XZ=              0.4981   YZ=              0.1402

 1\1\GINC-NODE40\SP\RB2PLYPD3-FC\def2QZVP\C4H6\BOITTIER\26-Aug-2020\0\\
 #p B2PLYPD3/Def2QZVP\\butadiene\\0,1\C,0,-3.820605,0.262348,0.071737\C
 ,0,-2.708477,-0.555191,-0.04537\C,0,-1.399951,0.034621,-0.023864\C,0,-
 0.261789,-0.618585,0.095761\H,0,-4.922011,-0.066085,-0.007472\H,0,-3.7
 06028,1.309898,0.22585\H,0,-2.847605,-1.650139,0.037747\H,0,-1.547662,
 1.14156,-0.221057\H,0,-0.224047,-1.726725,0.199292\H,0,0.714932,-0.154
 528,-0.130284\\Version=ES64L-G09RevD.01\State=1-A\HF=-155.6804177\MP2=
 -155.9086992\RMSD=5.364e-09\PG=C01 [X(C4H6)]\\@

 Normal termination of Gaussian 09 at Wed Aug 26 12:58:20 2020.
