 Gaussian 09, Revision D.01,
 Gaussian 09:  ES64L-G09RevD.01 24-Apr-2013

 --------------------
 #p B2PLYPD3/Def2QZVP
 --------------------

 ---------
 butadiene
 ---------
 Symbolic Z-matrix:
 Charge =  0 Multiplicity = 1

                         Standard orientation:
 ---------------------------------------------------------------------
 Center     Atomic      Atomic             Coordinates (Angstroms)
 Number     Number       Type             X           Y           Z
 ---------------------------------------------------------------------
      1          6           0        1.838142    0.115217   -0.012719
      2          6           0        0.604068   -0.419266   -0.004026
      3          6           0       -0.592388    0.392437    0.016279
      4          6           0       -1.832286   -0.103269   -0.003495
      5          1           0        2.692151   -0.504461    0.051608
      6          1           0        1.952297    1.205429   -0.002664
      7          1           0        0.439212   -1.475899    0.015465
      8          1           0       -0.470720    1.448755   -0.024983
      9          1           0       -2.050104   -1.159055   -0.031974
     10          1           0       -2.668053    0.574520    0.016316
 ---------------------------------------------------------------------

 SCF Done:  E(RB2PLYPD3) =  -155.699852283     A.U. after   11 cycles
 E2(B2PLYPD3) =    -0.2256477866D+00 E(B2PLYPD3) =    -0.15592550006971D+03

 The electronic state is 1-A.
 Alpha  occ. eigenvalues --  -10.62376 -10.62068 -10.61535 -10.61295  -0.93132
 Alpha  occ. eigenvalues --   -0.84829  -0.70345  -0.64499  -0.54749  -0.53975
 Alpha  occ. eigenvalues --   -0.46529  -0.46009  -0.41546  -0.38086  -0.27481
 Alpha virt. eigenvalues --    0.01647   0.07032   0.07448   0.08175   0.09538
 Alpha virt. eigenvalues --    0.11769   0.12405   0.14831   0.15796   0.16120
 Alpha virt. eigenvalues --    0.18709   0.20476   0.21622   0.22891   0.24176

 Mulliken charges:
               1
     1  C   -0.177533
     2  C   -0.036615
     3  C   -0.024267
     4  C   -0.181406
     5  H    0.089307
     6  H    0.066389
     7  H    0.058025
     8  H    0.056573
     9  H    0.067170
    10  H    0.082358
 Sum of Mulliken charges =   0.00000

 Dipole moment (field-independent basis, Debye):
    X=             -0.0066    Y=             -0.0175    Z=              0.0324  Tot=              0.0374
 Quadrupole moment (field-independent basis, Debye-Ang):
   XX=            -23.6927   YY=            -22.9540   ZZ=            -29.2421
   XY=              0.1570   XZ=              0.2187   YZ=             -0.0457

 1\1\GINC-NODE26\SP\RB2PLYPD3-FC\def2QZVP\C4H6\BOITTIER\26-Aug-2020\0\\
 #p B2PLYPD3/Def2QZVP\\butadiene\\0,1\C,0,-3.835629,0.236503,0.027647\C
 ,0,-2.720432,-0.515118,0.036998\C,0,-1.395503,0.062779,-0.000128\C,0,-
 0.267435,-0.651063,0.0367\H,0,-4.788832,-0.217642,-0.023607\H,0,-3.748
 05,1.328536,-0.010931\H,0,-2.752054,-1.584212,0.045348\H,0,-1.321452,1
 .124214,0.013442\H,0,-0.246773,-1.727782,0.093164\H,0,0.678372,-0.1386
 56,0.002282\\Version=ES64L-G09RevD.01\State=1-A\HF=-155.6998523\MP2=-1
 55.9255001\RMSD=4.888e-09\PG=C01 [X(C4H6)]\\@

 Normal termination of Gaussian 09 at Wed Aug 26 21:09:23 2020.
