 Gaussian 09, Revision D.01,
 Gaussian 09:  ES64L-G09RevD.01 24-Apr-2013

 --------------------
 #p B2PLYPD3/Def2QZVP
 --------------------

 ---------
 butadiene
 ---------
 Symbolic Z-matrix:
 Charge =  0 Multiplicity = 1

                         Standard orientation:
 ---------------------------------------------------------------------
 Center     Atomic      Atomic             Coordinates (Angstroms)
 Number     Number       Type             X           Y           Z
 ---------------------------------------------------------------------
      1          6           0        1.847902   -0.102331    0.011788
      2          6           0        0.601387    0.355058   -0.080563
      3          6           0       -0.633871   -0.360717   -0.023742
      4          6           0       -1.830320    0.105824    0.053987
      5          1           0        2.725016    0.521620   -0.021591
      6          1           0        2.140128   -1.157741    0.369312
      7          1           0        0.489262    1.493174   -0.045879
      8          1           0       -0.590591   -1.468202   -0.187123
      9          1           0       -2.003124    1.151810    0.230580
     10          1           0       -2.671277   -0.527661   -0.114122
 ---------------------------------------------------------------------

 SCF Done:  E(RB2PLYPD3) =  -155.683166423     A.U. after   11 cycles
 E2(B2PLYPD3) =    -0.2257703806D+00 E(B2PLYPD3) =    -0.15590893680323D+03

 The electronic state is 1-A.
 Alpha  occ. eigenvalues --  -10.63201 -10.62376 -10.61912 -10.60650  -0.93611
 Alpha  occ. eigenvalues --   -0.85713  -0.70589  -0.62692  -0.55458  -0.53538
 Alpha  occ. eigenvalues --   -0.47836  -0.44389  -0.39848  -0.38259  -0.28152
 Alpha virt. eigenvalues --    0.01393   0.07021   0.07310   0.07714   0.10001
 Alpha virt. eigenvalues --    0.11408   0.12399   0.14982   0.15583   0.16378
 Alpha virt. eigenvalues --    0.18993   0.19882   0.21767   0.21980   0.23411

 Mulliken charges:
               1
     1  C   -0.160319
     2  C   -0.042838
     3  C   -0.010058
     4  C   -0.170430
     5  H    0.084076
     6  H    0.059620
     7  H    0.044013
     8  H    0.046398
     9  H    0.060917
    10  H    0.088621
 Sum of Mulliken charges =   0.00000

 Dipole moment (field-independent basis, Debye):
    X=             -0.0363    Y=              0.0543    Z=              0.1627  Tot=              0.1753
 Quadrupole moment (field-independent basis, Debye-Ang):
   XX=            -23.0613   YY=            -23.7604   ZZ=            -28.9068
   XY=              0.0742   XZ=              0.7422   YZ=              0.1165

 1\1\GINC-NODE22\SP\RB2PLYPD3-FC\def2QZVP\C4H6\BOITTIER\26-Aug-2020\0\\
 #p B2PLYPD3/Def2QZVP\\butadiene\\0,1\C,0,-3.854348,0.213053,0.044901\C
 ,0,-2.709432,-0.460989,-0.034898\C,0,-1.366572,0.02655,-0.013512\C,0,-
 0.270486,-0.640945,0.077248\H,0,-4.828218,-0.246644,0.041402\H,0,-3.95
 1206,1.316749,0.36047\H,0,-2.799682,-1.598726,0.045682\H,0,-1.215536,1
 .116919,-0.221772\H,0,-0.283022,-1.693237,0.295553\H,0,0.66704,-0.1733
 95,-0.12078\\Version=ES64L-G09RevD.01\State=1-A\HF=-155.6831664\MP2=-1
 55.9089368\RMSD=9.211e-09\PG=C01 [X(C4H6)]\\@

 Normal termination of Gaussian 09 at Wed Aug 26 12:41:38 2020.
