 Gaussian 09, Revision D.01,
 Gaussian 09:  ES64L-G09RevD.01 24-Apr-2013

 --------------------
 #p B2PLYPD3/Def2QZVP
 --------------------

 ---------
 butadiene
 ---------
 Symbolic Z-matrix:
 Charge =  0 Multiplicity = 1

                         Standard orientation:
 ---------------------------------------------------------------------
 Center     Atomic      Atomic             Coordinates (Angstroms)
 Number     Number       Type             X           Y           Z
 ---------------------------------------------------------------------
      1          6           0       -1.850879    0.111821    0.065674
      2          6           0       -0.605803   -0.428191   -0.067874
      3          6           0        0.601410    0.387877   -0.105305
      4          6           0        1.852706   -0.105894    0.028274
      5          1           0       -2.732353   -0.565591   -0.030946
      6          1           0       -2.045793    1.219829    0.257106
      7          1           0       -0.368626   -1.429954   -0.073110
      8          1           0        0.491336    1.514750   -0.124214
      9          1           0        2.126120   -1.187935    0.268839
     10          1           0        2.544710    0.655225    0.177714
 ---------------------------------------------------------------------

 SCF Done:  E(RB2PLYPD3) =  -155.678852111     A.U. after   12 cycles
 E2(B2PLYPD3) =    -0.2279028056D+00 E(B2PLYPD3) =    -0.15590675491692D+03

 The electronic state is 1-A.
 Alpha  occ. eigenvalues --  -10.63154 -10.63147 -10.62583 -10.61805  -0.92614
 Alpha  occ. eigenvalues --   -0.84270  -0.70185  -0.63569  -0.53881  -0.53205
 Alpha  occ. eigenvalues --   -0.46727  -0.45255  -0.40923  -0.37568  -0.27257
 Alpha virt. eigenvalues --    0.00974   0.06850   0.07181   0.07993   0.09220
 Alpha virt. eigenvalues --    0.11395   0.12168   0.14884   0.15635   0.16045
 Alpha virt. eigenvalues --    0.18756   0.19959   0.21059   0.22043   0.24168

 Mulliken charges:
               1
     1  C   -0.171121
     2  C   -0.052098
     3  C   -0.021558
     4  C   -0.174568
     5  H    0.082607
     6  H    0.073753
     7  H    0.072228
     8  H    0.045526
     9  H    0.064052
    10  H    0.081179
 Sum of Mulliken charges =   0.00000

 Dipole moment (field-independent basis, Debye):
    X=             -0.0389    Y=              0.0077    Z=              0.3338  Tot=              0.3362
 Quadrupole moment (field-independent basis, Debye-Ang):
   XX=            -24.3370   YY=            -22.8859   ZZ=            -29.4019
   XY=             -0.3836   XZ=              0.6877   YZ=              0.1604

 1\1\GINC-NODE01\SP\RB2PLYPD3-FC\def2QZVP\C4H6\BOITTIER\26-Aug-2020\0\\
 #p B2PLYPD3/Def2QZVP\\butadiene\\0,1\C,0,-3.848542,0.245563,0.084014\C
 ,0,-2.725965,-0.520173,-0.030579\C,0,-1.387392,0.055058,-0.076024\C,0,
 -0.250827,-0.660924,0.075583\H,0,-4.840817,-0.257095,-0.005123\H,0,-3.
 83347,1.374178,0.252295\H,0,-2.680194,-1.5485,-0.014514\H,0,-1.284847,
 1.182024,-0.117845\H,0,-0.185167,-1.769808,0.339218\H,0,0.570812,-0.03
 9568,0.214618\\Version=ES64L-G09RevD.01\State=1-A\HF=-155.6788521\MP2=
 -155.9067549\RMSD=5.258e-09\PG=C01 [X(C4H6)]\\@

 Normal termination of Gaussian 09 at Wed Aug 26 15:54:31 2020.
