 Gaussian 09, Revision D.01,
 Gaussian 09:  ES64L-G09RevD.01 24-Apr-2013

 --------------------
 #p B2PLYPD3/Def2QZVP
 --------------------

 ---------
 butadiene
 ---------
 Symbolic Z-matrix:
 Charge =  0 Multiplicity = 1

                         Standard orientation:
 ---------------------------------------------------------------------
 Center     Atomic      Atomic             Coordinates (Angstroms)
 Number     Number       Type             X           Y           Z
 ---------------------------------------------------------------------
      1          6           0       -1.824568   -0.095591    0.005715
      2          6           0       -0.584271    0.383782   -0.021159
      3          6           0        0.613395   -0.440275   -0.021355
      4          6           0        1.816426    0.130321    0.036742
      5          1           0       -2.700484    0.547666   -0.013937
      6          1           0       -2.058597   -1.161309    0.126230
      7          1           0       -0.496090    1.511479   -0.076338
      8          1           0        0.460201   -1.517455   -0.023072
      9          1           0        1.899079    1.197136    0.119126
     10          1           0        2.769999   -0.446933   -0.131667
 ---------------------------------------------------------------------

 SCF Done:  E(RB2PLYPD3) =  -155.694807510     A.U. after   11 cycles
 E2(B2PLYPD3) =    -0.2263047248D+00 E(B2PLYPD3) =    -0.15592111223461D+03

 The electronic state is 1-A.
 Alpha  occ. eigenvalues --  -10.62868 -10.62751 -10.61927 -10.61455  -0.93069
 Alpha  occ. eigenvalues --   -0.84781  -0.69576  -0.63746  -0.54259  -0.53717
 Alpha  occ. eigenvalues --   -0.46658  -0.44831  -0.41016  -0.38097  -0.27680
 Alpha virt. eigenvalues --    0.01808   0.06998   0.07242   0.07896   0.09388
 Alpha virt. eigenvalues --    0.11649   0.12432   0.14611   0.15749   0.16216
 Alpha virt. eigenvalues --    0.18711   0.20018   0.21850   0.22413   0.24050

 Mulliken charges:
               1
     1  C   -0.176508
     2  C   -0.022522
     3  C   -0.039192
     4  C   -0.164097
     5  H    0.081513
     6  H    0.059075
     7  H    0.048355
     8  H    0.064814
     9  H    0.068183
    10  H    0.080380
 Sum of Mulliken charges =   0.00000

 Dipole moment (field-independent basis, Debye):
    X=              0.0052    Y=             -0.0046    Z=             -0.0208  Tot=              0.0219
 Quadrupole moment (field-independent basis, Debye-Ang):
   XX=            -23.6525   YY=            -23.1159   ZZ=            -29.2974
   XY=              0.1924   XZ=             -0.3833   YZ=              0.0031

 1\1\GINC-NODE18\SP\RB2PLYPD3-FC\def2QZVP\C4H6\BOITTIER\26-Aug-2020\0\\
 #p B2PLYPD3/Def2QZVP\\butadiene\\0,1\C,0,-3.832803,0.205061,0.007198\C
 ,0,-2.698946,-0.488429,0.055108\C,0,-1.372595,0.106484,0.036529\C,0,-0
 .291831,-0.672618,0.002085\H,0,-4.810126,-0.26932,0.041804\H,0,-3.8713
 72,1.291259,-0.146862\H,0,-2.815015,-1.611359,0.144983\H,0,-1.329546,1
 .193187,0.004718\H,0,-0.402432,-1.738934,-0.047416\H,0,0.750072,-0.271
 297,0.157862\\Version=ES64L-G09RevD.01\State=1-A\HF=-155.6948075\MP2=-
 155.9211122\RMSD=6.385e-09\PG=C01 [X(C4H6)]\\@

 Normal termination of Gaussian 09 at Wed Aug 26 22:17:33 2020.
