 Gaussian 09, Revision D.01,
 Gaussian 09:  ES64L-G09RevD.01 24-Apr-2013

 --------------------
 #p B2PLYPD3/Def2QZVP
 --------------------

 ---------
 butadiene
 ---------
 Symbolic Z-matrix:
 Charge =  0 Multiplicity = 1

                         Standard orientation:
 ---------------------------------------------------------------------
 Center     Atomic      Atomic             Coordinates (Angstroms)
 Number     Number       Type             X           Y           Z
 ---------------------------------------------------------------------
      1          6           0       -1.836997   -0.117436    0.002409
      2          6           0       -0.612682    0.416157   -0.027048
      3          6           0        0.600451   -0.388425   -0.006066
      4          6           0        1.848888    0.095414    0.009379
      5          1           0       -2.732185    0.491846    0.037224
      6          1           0       -1.985593   -1.194652    0.070450
      7          1           0       -0.491978    1.490832    0.007201
      8          1           0        0.409391   -1.444282   -0.037109
      9          1           0        2.036643    1.162299    0.046031
     10          1           0        2.765760   -0.540304    0.004161
 ---------------------------------------------------------------------

 SCF Done:  E(RB2PLYPD3) =  -155.699595544     A.U. after   11 cycles
 E2(B2PLYPD3) =    -0.2259673452D+00 E(B2PLYPD3) =    -0.15592556288952D+03

 The electronic state is 1-A.
 Alpha  occ. eigenvalues --  -10.62599 -10.62537 -10.62000 -10.61714  -0.92953
 Alpha  occ. eigenvalues --   -0.84708  -0.70083  -0.64279  -0.54615  -0.53524
 Alpha  occ. eigenvalues --   -0.46979  -0.45385  -0.40930  -0.38105  -0.27694
 Alpha virt. eigenvalues --    0.01637   0.06965   0.07409   0.08076   0.09528
 Alpha virt. eigenvalues --    0.11640   0.12464   0.14615   0.15793   0.16192
 Alpha virt. eigenvalues --    0.18842   0.20478   0.21685   0.22914   0.23452

 Mulliken charges:
               1
     1  C   -0.173011
     2  C   -0.030047
     3  C   -0.031938
     4  C   -0.173472
     5  H    0.084812
     6  H    0.062916
     7  H    0.056220
     8  H    0.056878
     9  H    0.064375
    10  H    0.083266
 Sum of Mulliken charges =   0.00000

 Dipole moment (field-independent basis, Debye):
    X=             -0.0453    Y=              0.0203    Z=              0.0975  Tot=              0.1094
 Quadrupole moment (field-independent basis, Debye-Ang):
   XX=            -23.3169   YY=            -23.2334   ZZ=            -29.3158
   XY=              0.2419   XZ=             -0.1890   YZ=              0.0537

 1\1\GINC-NODE29\SP\RB2PLYPD3-FC\def2QZVP\C4H6\BOITTIER\26-Aug-2020\0\\
 #p B2PLYPD3/Def2QZVP\\butadiene\\0,1\C,0,-3.837284,0.233147,0.011213\C
 ,0,-2.729691,-0.512196,0.058531\C,0,-1.391028,0.058764,0.020199\C,0,-0
 .250783,-0.643216,0.021398\H,0,-4.828005,-0.204808,-0.010373\H,0,-3.78
 861,1.317289,-0.085599\H,0,-2.805509,-1.591496,0.052935\H,0,-1.387816,
 1.132209,0.022865\H,0,-0.259251,-1.727053,0.013405\H,0,0.765997,-0.183
 976,0.01277\\Version=ES64L-G09RevD.01\State=1-A\HF=-155.6995955\MP2=-1
 55.9255629\RMSD=3.623e-09\PG=C01 [X(C4H6)]\\@

 Normal termination of Gaussian 09 at Wed Aug 26 18:42:32 2020.
