 Gaussian 09, Revision D.01,
 Gaussian 09:  ES64L-G09RevD.01 24-Apr-2013

 --------------------
 #p B2PLYPD3/Def2QZVP
 --------------------

 ---------
 butadiene
 ---------
 Symbolic Z-matrix:
 Charge =  0 Multiplicity = 1

                         Standard orientation:
 ---------------------------------------------------------------------
 Center     Atomic      Atomic             Coordinates (Angstroms)
 Number     Number       Type             X           Y           Z
 ---------------------------------------------------------------------
      1          6           0       -1.824452   -0.119864    0.016572
      2          6           0       -0.600222    0.409001   -0.010742
      3          6           0        0.599505   -0.378717   -0.019571
      4          6           0        1.836230    0.095197    0.025412
      5          1           0       -2.703244    0.498691   -0.055374
      6          1           0       -2.003236   -1.191925    0.088304
      7          1           0       -0.492541    1.491529   -0.028796
      8          1           0        0.458029   -1.445600   -0.074385
      9          1           0        1.978508    1.146813    0.028391
     10          1           0        2.696114   -0.533203   -0.028166
 ---------------------------------------------------------------------

 SCF Done:  E(RB2PLYPD3) =  -155.700570023     A.U. after   11 cycles
 E2(B2PLYPD3) =    -0.2252532131D+00 E(B2PLYPD3) =    -0.15592582323654D+03

 The electronic state is 1-A.
 Alpha  occ. eigenvalues --  -10.62405 -10.61983 -10.61547 -10.60864  -0.93404
 Alpha  occ. eigenvalues --   -0.85146  -0.70477  -0.64201  -0.54931  -0.54196
 Alpha  occ. eigenvalues --   -0.46926  -0.45556  -0.41254  -0.38350  -0.27677
 Alpha virt. eigenvalues --    0.01715   0.07042   0.07472   0.08079   0.09827
 Alpha virt. eigenvalues --    0.11729   0.12513   0.14817   0.15879   0.16194
 Alpha virt. eigenvalues --    0.18806   0.20516   0.21716   0.22692   0.23902

 Mulliken charges:
               1
     1  C   -0.174942
     2  C   -0.031813
     3  C   -0.021217
     4  C   -0.178281
     5  H    0.084070
     6  H    0.065970
     7  H    0.053418
     8  H    0.051648
     9  H    0.062811
    10  H    0.088336
 Sum of Mulliken charges =   0.00000

 Dipole moment (field-independent basis, Debye):
    X=             -0.0360    Y=             -0.0028    Z=             -0.0828  Tot=              0.0904
 Quadrupole moment (field-independent basis, Debye-Ang):
   XX=            -23.4110   YY=            -23.1555   ZZ=            -29.1335
   XY=              0.0986   XZ=             -0.0644   YZ=             -0.0450

 1\1\GINC-NODE31\SP\RB2PLYPD3-FC\def2QZVP\C4H6\BOITTIER\26-Aug-2020\0\\
 #p B2PLYPD3/Def2QZVP\\butadiene\\0,1\C,0,-3.82571,0.233396,0.001612\C,
 0,-2.71745,-0.507333,0.049187\C,0,-1.394852,0.049855,0.035088\C,0,-0.2
 64608,-0.641487,0.008635\H,0,-4.801753,-0.213026,0.091672\H,0,-3.80758
 6,1.317182,-0.105641\H,0,-2.807589,-1.590279,0.102963\H,0,-1.340524,1.
 125926,0.054573\H,0,-0.315197,-1.701004,0.040459\H,0,0.695071,-0.17786
 3,0.043663\\Version=ES64L-G09RevD.01\State=1-A\HF=-155.70057\MP2=-155.
 9258232\RMSD=4.416e-09\PG=C01 [X(C4H6)]\\@

 Normal termination of Gaussian 09 at Wed Aug 26 18:58:58 2020.
