 Gaussian 09, Revision D.01,
 Gaussian 09:  ES64L-G09RevD.01 24-Apr-2013

 --------------------
 #p B2PLYPD3/Def2QZVP
 --------------------

 ---------
 butadiene
 ---------
 Symbolic Z-matrix:
 Charge =  0 Multiplicity = 1

                         Standard orientation:
 ---------------------------------------------------------------------
 Center     Atomic      Atomic             Coordinates (Angstroms)
 Number     Number       Type             X           Y           Z
 ---------------------------------------------------------------------
      1          6           0        1.836626   -0.098189    0.008925
      2          6           0        0.596443    0.397200    0.015130
      3          6           0       -0.602389   -0.389013   -0.015598
      4          6           0       -1.837513    0.102142   -0.014865
      5          1           0        2.744493    0.480534   -0.040514
      6          1           0        2.029462   -1.143961   -0.105529
      7          1           0        0.461015    1.444499    0.065732
      8          1           0       -0.436997   -1.436247    0.118951
      9          1           0       -2.105418    1.160852   -0.048042
     10          1           0       -2.651554   -0.578522    0.047852
 ---------------------------------------------------------------------

 SCF Done:  E(RB2PLYPD3) =  -155.697699885     A.U. after   11 cycles
 E2(B2PLYPD3) =    -0.2252784681D+00 E(B2PLYPD3) =    -0.15592297835336D+03

 The electronic state is 1-A.
 Alpha  occ. eigenvalues --  -10.62117 -10.62020 -10.61422 -10.61304  -0.93402
 Alpha  occ. eigenvalues --   -0.85025  -0.70891  -0.64571  -0.55194  -0.53955
 Alpha  occ. eigenvalues --   -0.47229  -0.45577  -0.41044  -0.38263  -0.27668
 Alpha virt. eigenvalues --    0.01535   0.07040   0.07541   0.08185   0.09703
 Alpha virt. eigenvalues --    0.11641   0.12551   0.14954   0.15654   0.16319
 Alpha virt. eigenvalues --    0.18900   0.20254   0.21993   0.22863   0.23606

 Mulliken charges:
               1
     1  C   -0.169547
     2  C   -0.031204
     3  C   -0.031849
     4  C   -0.178308
     5  H    0.080185
     6  H    0.057934
     7  H    0.058934
     8  H    0.061129
     9  H    0.070199
    10  H    0.082526
 Sum of Mulliken charges =   0.00000

 Dipole moment (field-independent basis, Debye):
    X=             -0.0166    Y=              0.0102    Z=              0.0251  Tot=              0.0318
 Quadrupole moment (field-independent basis, Debye-Ang):
   XX=            -23.1972   YY=            -23.2747   ZZ=            -29.0885
   XY=             -0.3991   XZ=             -0.4335   YZ=             -0.0723

 1\1\GINC-NODE36\SP\RB2PLYPD3-FC\def2QZVP\C4H6\BOITTIER\26-Aug-2020\0\\
 #p B2PLYPD3/Def2QZVP\\butadiene\\0,1\C,0,-3.839091,0.224661,0.022899\C
 ,0,-2.712784,-0.492492,0.047951\C,0,-1.388553,0.055907,0.003848\C,0,-0
 .266427,-0.656286,0.023298\H,0,-4.838784,-0.176118,-0.016804\H,0,-3.83
 3861,1.284784,-0.118652\H,0,-2.774673,-1.545063,0.125409\H,0,-1.356206
 ,1.118714,0.111326\H,0,-0.200237,-1.746851,0.017981\H,0,0.660047,-0.13
 7583,0.073238\\Version=ES64L-G09RevD.01\State=1-A\HF=-155.6976999\MP2=
 -155.9229784\RMSD=2.619e-09\PG=C01 [X(C4H6)]\\@

 Normal termination of Gaussian 09 at Wed Aug 26 09:44:16 2020.
