 Gaussian 09, Revision D.01,
 Gaussian 09:  ES64L-G09RevD.01 24-Apr-2013

 --------------------
 #p B2PLYPD3/Def2QZVP
 --------------------

 ---------
 butadiene
 ---------
 Symbolic Z-matrix:
 Charge =  0 Multiplicity = 1

                         Standard orientation:
 ---------------------------------------------------------------------
 Center     Atomic      Atomic             Coordinates (Angstroms)
 Number     Number       Type             X           Y           Z
 ---------------------------------------------------------------------
      1          6           0        1.898716   -0.092806   -0.039837
      2          6           0        0.612327    0.354111    0.040728
      3          6           0       -0.646531   -0.432838    0.011967
      4          6           0       -1.860562    0.135332   -0.079438
      5          1           0        2.759511    0.593774    0.066130
      6          1           0        2.050961   -1.091646   -0.202831
      7          1           0        0.336988    1.423695    0.186978
      8          1           0       -0.503584   -1.459991    0.285097
      9          1           0       -1.911681    1.236767   -0.053806
     10          1           0       -2.755897   -0.485391    0.117913
 ---------------------------------------------------------------------

 SCF Done:  E(RB2PLYPD3) =  -155.685077677     A.U. after   11 cycles
 E2(B2PLYPD3) =    -0.2273186409D+00 E(B2PLYPD3) =    -0.15591239631771D+03

 The electronic state is 1-A.
 Alpha  occ. eigenvalues --  -10.63470 -10.62917 -10.62430 -10.61852  -0.92322
 Alpha  occ. eigenvalues --   -0.84617  -0.70273  -0.63861  -0.54217  -0.53344
 Alpha  occ. eigenvalues --   -0.47357  -0.46071  -0.40609  -0.36774  -0.27877
 Alpha virt. eigenvalues --    0.01053   0.07000   0.07454   0.07886   0.09212
 Alpha virt. eigenvalues --    0.11691   0.12374   0.14620   0.15324   0.15895
 Alpha virt. eigenvalues --    0.18996   0.19704   0.21350   0.22567   0.23603

 Mulliken charges:
               1
     1  C   -0.192351
     2  C   -0.029678
     3  C   -0.037621
     4  C   -0.170127
     5  H    0.095879
     6  H    0.078480
     7  H    0.044034
     8  H    0.062057
     9  H    0.063825
    10  H    0.085501
 Sum of Mulliken charges =   0.00000

 Dipole moment (field-independent basis, Debye):
    X=             -0.0236    Y=             -0.0536    Z=              0.3795  Tot=              0.3840
 Quadrupole moment (field-independent basis, Debye-Ang):
   XX=            -23.5334   YY=            -23.4827   ZZ=            -29.3196
   XY=             -0.2207   XZ=             -0.6357   YZ=              0.0278

 1\1\GINC-NODE24\SP\RB2PLYPD3-FC\def2QZVP\C4H6\BOITTIER\26-Aug-2020\0\\
 #p B2PLYPD3/Def2QZVP\\butadiene\\0,1\C,0,-3.905773,0.20475,-0.021258\C
 ,0,-2.717964,-0.458736,0.078328\C,0,-1.340508,0.094473,0.040724\C,0,-0
 .244694,-0.679684,-0.029397\H,0,-4.873962,-0.317648,0.094066\H,0,-3.87
 9972,1.210732,-0.207699\H,0,-2.634939,-1.556316,0.250481\H,0,-1.301877
 ,1.136868,0.289715\H,0,-0.387642,-1.772123,0.021316\H,0,0.74505,-0.221
 083,0.160234\\Version=ES64L-G09RevD.01\State=1-A\HF=-155.6850777\MP2=-
 155.9123963\RMSD=8.593e-09\PG=C01 [X(C4H6)]\\@

 Normal termination of Gaussian 09 at Wed Aug 26 11:28:11 2020.
