 Gaussian 09, Revision D.01,
 Gaussian 09:  ES64L-G09RevD.01 24-Apr-2013

 --------------------
 #p B2PLYPD3/Def2QZVP
 --------------------

 ---------
 butadiene
 ---------
 Symbolic Z-matrix:
 Charge =  0 Multiplicity = 1

                         Standard orientation:
 ---------------------------------------------------------------------
 Center     Atomic      Atomic             Coordinates (Angstroms)
 Number     Number       Type             X           Y           Z
 ---------------------------------------------------------------------
      1          6           0        1.840651    0.100697    0.017406
      2          6           0        0.608202   -0.376022   -0.024801
      3          6           0       -0.605534    0.411385   -0.038902
      4          6           0       -1.840595   -0.129759    0.010561
      5          1           0        2.694285   -0.560184    0.068335
      6          1           0        2.032253    1.164952    0.020800
      7          1           0        0.509359   -1.464472   -0.030286
      8          1           0       -0.517540    1.493179    0.021507
      9          1           0       -2.003590   -1.169827    0.054832
     10          1           0       -2.731109    0.498545    0.079232
 ---------------------------------------------------------------------

 SCF Done:  E(RB2PLYPD3) =  -155.699838924     A.U. after   11 cycles
 E2(B2PLYPD3) =    -0.2256488700D+00 E(B2PLYPD3) =    -0.15592548779360D+03

 The electronic state is 1-A.
 Alpha  occ. eigenvalues --  -10.62795 -10.62303 -10.61579 -10.61217  -0.93032
 Alpha  occ. eigenvalues --   -0.85018  -0.70292  -0.64077  -0.54574  -0.54243
 Alpha  occ. eigenvalues --   -0.46560  -0.45593  -0.41209  -0.38197  -0.27654
 Alpha virt. eigenvalues --    0.01640   0.06991   0.07496   0.07968   0.09702
 Alpha virt. eigenvalues --    0.11664   0.12444   0.14761   0.15823   0.16282
 Alpha virt. eigenvalues --    0.18832   0.20383   0.21743   0.22707   0.23874

 Mulliken charges:
               1
     1  C   -0.175599
     2  C   -0.022741
     3  C   -0.037487
     4  C   -0.173972
     5  H    0.085596
     6  H    0.064015
     7  H    0.050635
     8  H    0.057770
     9  H    0.070183
    10  H    0.081602
 Sum of Mulliken charges =   0.00000

 Dipole moment (field-independent basis, Debye):
    X=             -0.0188    Y=             -0.0167    Z=              0.1529  Tot=              0.1549
 Quadrupole moment (field-independent basis, Debye-Ang):
   XX=            -23.4375   YY=            -23.0942   ZZ=            -29.2395
   XY=              0.0814   XZ=             -0.1527   YZ=              0.0283

 1\1\GINC-NODE14\SP\RB2PLYPD3-FC\def2QZVP\C4H6\BOITTIER\26-Aug-2020\0\\
 #p B2PLYPD3/Def2QZVP\\butadiene\\0,1\C,0,-3.845801,0.209109,-0.000766\
 C,0,-2.717083,-0.476936,0.056773\C,0,-1.383016,0.083011,0.04729\C,0,-0
 .263589,-0.669658,0.015187\H,0,-4.803234,-0.291299,-0.031792\H,0,-3.84
 5886,1.289871,-0.037029\H,0,-2.812564,-1.564999,0.09582\H,0,-1.278307,
 1.160935,-0.046444\H,0,-0.287608,-1.723007,0.003047\H,0,0.723782,-0.21
 1467,-0.072307\\Version=ES64L-G09RevD.01\State=1-A\HF=-155.6998389\MP2
 =-155.9254878\RMSD=5.364e-09\PG=C01 [X(C4H6)]\\@

 Normal termination of Gaussian 09 at Wed Aug 26 15:49:28 2020.
