 Gaussian 09, Revision D.01,
 Gaussian 09:  ES64L-G09RevD.01 24-Apr-2013

 --------------------
 #p B2PLYPD3/Def2QZVP
 --------------------

 ---------
 butadiene
 ---------
 Symbolic Z-matrix:
 Charge =  0 Multiplicity = 1

                         Standard orientation:
 ---------------------------------------------------------------------
 Center     Atomic      Atomic             Coordinates (Angstroms)
 Number     Number       Type             X           Y           Z
 ---------------------------------------------------------------------
      1          6           0       -1.835597   -0.072484   -0.022194
      2          6           0       -0.586603    0.351892   -0.012750
      3          6           0        0.591664   -0.454527   -0.027225
      4          6           0        1.812996    0.125710    0.015921
      5          1           0       -2.638983    0.596035    0.078848
      6          1           0       -2.069808   -1.103437    0.165311
      7          1           0       -0.445758    1.432056   -0.101587
      8          1           0        0.408383   -1.450514    0.026921
      9          1           0        1.920186    1.191190    0.186397
     10          1           0        2.931223   -0.368876   -0.078402
 ---------------------------------------------------------------------

 SCF Done:  E(RB2PLYPD3) =  -155.676553417     A.U. after   12 cycles
 E2(B2PLYPD3) =    -0.2266567556D+00 E(B2PLYPD3) =    -0.15590321017276D+03

 The electronic state is 1-A.
 Alpha  occ. eigenvalues --  -10.63656 -10.62355 -10.62035 -10.60594  -0.93774
 Alpha  occ. eigenvalues --   -0.84752  -0.70306  -0.65024  -0.54843  -0.53555
 Alpha  occ. eigenvalues --   -0.47815  -0.43934  -0.41030  -0.38390  -0.27537
 Alpha virt. eigenvalues --    0.01206   0.06795   0.07490   0.07997   0.09379
 Alpha virt. eigenvalues --    0.11463   0.12617   0.14566   0.15538   0.16707
 Alpha virt. eigenvalues --    0.18583   0.19469   0.22040   0.22707   0.24276

 Mulliken charges:
               1
     1  C   -0.174490
     2  C   -0.009853
     3  C   -0.047147
     4  C   -0.157197
     5  H    0.079554
     6  H    0.052960
     7  H    0.050599
     8  H    0.072025
     9  H    0.066133
    10  H    0.067417
 Sum of Mulliken charges =   0.00000

 Dipole moment (field-independent basis, Debye):
    X=              0.0657    Y=              0.0614    Z=              0.2440  Tot=              0.2600
 Quadrupole moment (field-independent basis, Debye-Ang):
   XX=            -23.4293   YY=            -23.4787   ZZ=            -29.1416
   XY=              0.4277   XZ=             -0.4275   YZ=             -0.0160

 1\1\GINC-NODE38\SP\RB2PLYPD3-FC\def2QZVP\C4H6\BOITTIER\26-Aug-2020\0\\
 #p B2PLYPD3/Def2QZVP\\butadiene\\0,1\C,0,-3.841707,0.192233,0.029421\C
 ,0,-2.693143,-0.456484,0.041182\C,0,-1.385704,0.117457,0.035636\C,0,-0
 .293259,-0.68033,0.018724\H,0,-4.755235,-0.318714,-0.053985\H,0,-3.880
 671,1.241836,-0.193497\H,0,-2.755108,-1.54042,0.166586\H,0,-1.381038,1
 .127762,-0.052548\H,0,-0.38571,-1.752327,-0.115717\H,0,0.897369,-0.398
 813,0.102978\\Version=ES64L-G09RevD.01\State=1-A\HF=-155.6765534\MP2=-
 155.9032102\RMSD=4.086e-09\PG=C01 [X(C4H6)]\\@

 Normal termination of Gaussian 09 at Wed Aug 26 14:07:01 2020.
