 Gaussian 09, Revision D.01,
 Gaussian 09:  ES64L-G09RevD.01 24-Apr-2013

 --------------------
 #p B2PLYPD3/Def2QZVP
 --------------------

 ---------
 butadiene
 ---------
 Symbolic Z-matrix:
 Charge =  0 Multiplicity = 1

                         Standard orientation:
 ---------------------------------------------------------------------
 Center     Atomic      Atomic             Coordinates (Angstroms)
 Number     Number       Type             X           Y           Z
 ---------------------------------------------------------------------
      1          6           0        1.826790   -0.104372   -0.047484
      2          6           0        0.600333    0.381757    0.032278
      3          6           0       -0.593651   -0.418847    0.073610
      4          6           0       -1.835646    0.119092   -0.034024
      5          1           0        2.700513    0.553560   -0.032496
      6          1           0        1.976369   -1.162840    0.007782
      7          1           0        0.489419    1.491663    0.046393
      8          1           0       -0.470262   -1.497651   -0.041599
      9          1           0       -1.905459    1.191837   -0.033491
     10          1           0       -2.777539   -0.442350   -0.092864
 ---------------------------------------------------------------------

 SCF Done:  E(RB2PLYPD3) =  -155.696175053     A.U. after   11 cycles
 E2(B2PLYPD3) =    -0.2264453459D+00 E(B2PLYPD3) =    -0.15592262039917D+03

 The electronic state is 1-A.
 Alpha  occ. eigenvalues --  -10.62906 -10.62489 -10.62077 -10.61193  -0.93219
 Alpha  occ. eigenvalues --   -0.84776  -0.70057  -0.63861  -0.54403  -0.54035
 Alpha  occ. eigenvalues --   -0.46406  -0.45246  -0.41298  -0.38310  -0.27520
 Alpha virt. eigenvalues --    0.01486   0.07035   0.07363   0.07954   0.09465
 Alpha virt. eigenvalues --    0.11689   0.12612   0.14560   0.15565   0.16339
 Alpha virt. eigenvalues --    0.18740   0.19871   0.21731   0.23137   0.23965

 Mulliken charges:
               1
     1  C   -0.176879
     2  C   -0.016330
     3  C   -0.036832
     4  C   -0.172438
     5  H    0.085022
     6  H    0.064219
     7  H    0.045217
     8  H    0.057286
     9  H    0.063115
    10  H    0.087620
 Sum of Mulliken charges =   0.00000

 Dipole moment (field-independent basis, Debye):
    X=             -0.0411    Y=              0.0061    Z=             -0.0576  Tot=              0.0710
 Quadrupole moment (field-independent basis, Debye-Ang):
   XX=            -23.4366   YY=            -23.2366   ZZ=            -29.3075
   XY=              0.0378   XZ=              0.3776   YZ=              0.1062

 1\1\GINC-NODE33\SP\RB2PLYPD3-FC\def2QZVP\C4H6\BOITTIER\26-Aug-2020\0\\
 #p B2PLYPD3/Def2QZVP\\butadiene\\0,1\C,0,-3.832068,0.20975,-0.027075\C
 ,0,-2.711358,-0.48437,0.068246\C,0,-1.393525,0.091337,0.080524\C,0,-0.
 268111,-0.662869,-0.009655\H,0,-4.80894,-0.280874,0.011649\H,0,-3.7901
 84,1.27918,-0.008434\H,0,-2.799954,-1.595128,0.12077\H,0,-1.323476,1.1
 70302,-0.07194\H,0,-0.390624,-1.730214,0.028047\H,0,0.758323,-0.280782
 ,-0.088925\\Version=ES64L-G09RevD.01\State=1-A\HF=-155.6961751\MP2=-15
 5.9226204\RMSD=7.566e-09\PG=C01 [X(C4H6)]\\@

 Normal termination of Gaussian 09 at Wed Aug 26 08:51:32 2020.
