 Gaussian 09, Revision D.01,
 Gaussian 09:  ES64L-G09RevD.01 24-Apr-2013

 --------------------
 #p B2PLYPD3/Def2QZVP
 --------------------

 ---------
 butadiene
 ---------
 Symbolic Z-matrix:
 Charge =  0 Multiplicity = 1

                         Standard orientation:
 ---------------------------------------------------------------------
 Center     Atomic      Atomic             Coordinates (Angstroms)
 Number     Number       Type             X           Y           Z
 ---------------------------------------------------------------------
      1          6           0        1.870898   -0.136850   -0.054976
      2          6           0        0.617490    0.439802    0.064983
      3          6           0       -0.607625   -0.364794    0.007555
      4          6           0       -1.851259    0.106651   -0.037234
      5          1           0        2.714782    0.476040   -0.028845
      6          1           0        1.985178   -1.226881    0.061986
      7          1           0        0.430185    1.522757   -0.015469
      8          1           0       -0.553085   -1.417178    0.095917
      9          1           0       -2.177976    1.093705    0.042078
     10          1           0       -2.576109   -0.717298   -0.037629
 ---------------------------------------------------------------------

 SCF Done:  E(RB2PLYPD3) =  -155.686591206     A.U. after   12 cycles
 E2(B2PLYPD3) =    -0.2269546859D+00 E(B2PLYPD3) =    -0.15591354589218D+03

 The electronic state is 1-A.
 Alpha  occ. eigenvalues --  -10.63640 -10.62247 -10.62083 -10.61036  -0.92503
 Alpha  occ. eigenvalues --   -0.84667  -0.70469  -0.64311  -0.54618  -0.53589
 Alpha  occ. eigenvalues --   -0.46889  -0.45651  -0.41153  -0.37550  -0.27402
 Alpha virt. eigenvalues --    0.01115   0.06930   0.07492   0.08060   0.09175
 Alpha virt. eigenvalues --    0.11618   0.12336   0.15043   0.15364   0.16375
 Alpha virt. eigenvalues --    0.18769   0.19693   0.21787   0.22482   0.24799

 Mulliken charges:
               1
     1  C   -0.171496
     2  C   -0.059450
     3  C   -0.009345
     4  C   -0.181193
     5  H    0.088349
     6  H    0.071947
     7  H    0.061380
     8  H    0.054327
     9  H    0.076040
    10  H    0.069441
 Sum of Mulliken charges =   0.00000

 Dipole moment (field-independent basis, Debye):
    X=              0.0054    Y=              0.0202    Z=              0.1751  Tot=              0.1763
 Quadrupole moment (field-independent basis, Debye-Ang):
   XX=            -23.9036   YY=            -22.8214   ZZ=            -29.3956
   XY=             -0.3235   XZ=             -0.0917   YZ=             -0.1936

 1\1\GINC-NODE18\SP\RB2PLYPD3-FC\def2QZVP\C4H6\BOITTIER\26-Aug-2020\0\\
 #p B2PLYPD3/Def2QZVP\\butadiene\\0,1\C,0,-3.86364,0.258745,-0.034331\C
 ,0,-2.734212,-0.531482,0.099389\C,0,-1.384447,0.038365,0.028751\C,0,-0
 .245961,-0.649854,-0.004318\H,0,-4.803958,-0.19174,0.002047\H,0,-3.779
 821,1.35363,0.061112\H,0,-2.744869,-1.631828,0.040459\H,0,-1.248677,1.
 08492,0.096455\H,0,-0.101987,-1.677832,0.094896\H,0,0.615265,0.030119,
 -0.019322\\Version=ES64L-G09RevD.01\State=1-A\HF=-155.6865912\MP2=-155
 .9135459\RMSD=2.522e-09\PG=C01 [X(C4H6)]\\@

 Normal termination of Gaussian 09 at Wed Aug 26 15:04:12 2020.
