 Gaussian 09, Revision D.01,
 Gaussian 09:  ES64L-G09RevD.01 24-Apr-2013

 --------------------
 #p B2PLYPD3/Def2QZVP
 --------------------

 ---------
 butadiene
 ---------
 Symbolic Z-matrix:
 Charge =  0 Multiplicity = 1

                         Standard orientation:
 ---------------------------------------------------------------------
 Center     Atomic      Atomic             Coordinates (Angstroms)
 Number     Number       Type             X           Y           Z
 ---------------------------------------------------------------------
      1          6           0        1.827005    0.086802    0.048015
      2          6           0        0.588364   -0.387098   -0.036132
      3          6           0       -0.604428    0.424279   -0.044875
      4          6           0       -1.815348   -0.126316    0.020130
      5          1           0        2.682337   -0.559730   -0.066620
      6          1           0        1.995839    1.181515    0.106306
      7          1           0        0.416839   -1.429680   -0.044240
      8          1           0       -0.433241    1.492232   -0.091387
      9          1           0       -1.980025   -1.208985    0.092954
     10          1           0       -2.655305    0.538648    0.080160
 ---------------------------------------------------------------------

 SCF Done:  E(RB2PLYPD3) =  -155.697884771     A.U. after   11 cycles
 E2(B2PLYPD3) =    -0.2256211781D+00 E(B2PLYPD3) =    -0.15592350594937D+03

 The electronic state is 1-A.
 Alpha  occ. eigenvalues --  -10.62298 -10.61755 -10.61590 -10.61443  -0.93402
 Alpha  occ. eigenvalues --   -0.84908  -0.70071  -0.64324  -0.54536  -0.53845
 Alpha  occ. eigenvalues --   -0.46909  -0.45582  -0.41143  -0.38249  -0.27636
 Alpha virt. eigenvalues --    0.01814   0.07036   0.07321   0.08162   0.09616
 Alpha virt. eigenvalues --    0.11828   0.12310   0.14835   0.15657   0.16182
 Alpha virt. eigenvalues --    0.18671   0.20004   0.21698   0.22881   0.24049

 Mulliken charges:
               1
     1  C   -0.178990
     2  C   -0.023975
     3  C   -0.032949
     4  C   -0.177053
     5  H    0.086604
     6  H    0.057925
     7  H    0.055967
     8  H    0.056845
     9  H    0.071779
    10  H    0.083848
 Sum of Mulliken charges =   0.00000

 Dipole moment (field-independent basis, Debye):
    X=             -0.0655    Y=             -0.0130    Z=              0.0127  Tot=              0.0680
 Quadrupole moment (field-independent basis, Debye-Ang):
   XX=            -23.9111   YY=            -22.9608   ZZ=            -29.1841
   XY=              0.2128   XZ=             -0.4250   YZ=              0.0522

 1\1\GINC-NODE28\SP\RB2PLYPD3-FC\def2QZVP\C4H6\BOITTIER\26-Aug-2020\0\\
 #p B2PLYPD3/Def2QZVP\\butadiene\\0,1\C,0,-3.832201,0.208939,-0.024445\
 C,0,-2.702613,-0.484431,0.071274\C,0,-1.379858,0.091119,0.056303\C,0,-
 0.292684,-0.676433,0.00507\H,0,-4.791988,-0.264091,0.10893\H,0,-3.7951
 6,1.313995,-0.112643\H,0,-2.727642,-1.540129,0.10787\H,0,-1.349444,1.1
 73139,0.073607\H,0,-0.332393,-1.772403,-0.038125\H,0,0.65576,-0.180976
 ,-0.074211\\Version=ES64L-G09RevD.01\State=1-A\HF=-155.6978848\MP2=-15
 5.9235059\RMSD=6.238e-09\PG=C01 [X(C4H6)]\\@

 Normal termination of Gaussian 09 at Wed Aug 26 10:06:44 2020.
