 Gaussian 09, Revision D.01,
 Gaussian 09:  ES64L-G09RevD.01 24-Apr-2013

 --------------------
 #p B2PLYPD3/Def2QZVP
 --------------------

 ---------
 butadiene
 ---------
 Symbolic Z-matrix:
 Charge =  0 Multiplicity = 1

                         Standard orientation:
 ---------------------------------------------------------------------
 Center     Atomic      Atomic             Coordinates (Angstroms)
 Number     Number       Type             X           Y           Z
 ---------------------------------------------------------------------
      1          6           0        1.830987   -0.127254    0.002966
      2          6           0        0.588092    0.427846    0.008727
      3          6           0       -0.600000   -0.383967   -0.025883
      4          6           0       -1.841610    0.097230   -0.012795
      5          1           0        2.734870    0.498986    0.070267
      6          1           0        2.018537   -1.181687   -0.044413
      7          1           0        0.545935    1.494804   -0.036685
      8          1           0       -0.394412   -1.447700    0.033756
      9          1           0       -2.068275    1.115691    0.013187
     10          1           0       -2.701470   -0.563219    0.125800
 ---------------------------------------------------------------------

 SCF Done:  E(RB2PLYPD3) =  -155.696230382     A.U. after   11 cycles
 E2(B2PLYPD3) =    -0.2261654725D+00 E(B2PLYPD3) =    -0.15592239585460D+03

 The electronic state is 1-A.
 Alpha  occ. eigenvalues --  -10.62633 -10.62478 -10.61958 -10.61143  -0.93089
 Alpha  occ. eigenvalues --   -0.84607  -0.70469  -0.64654  -0.54554  -0.54146
 Alpha  occ. eigenvalues --   -0.46291  -0.45805  -0.41507  -0.38095  -0.27323
 Alpha virt. eigenvalues --    0.01363   0.06983   0.07533   0.08034   0.09426
 Alpha virt. eigenvalues --    0.11679   0.12515   0.14849   0.15748   0.16294
 Alpha virt. eigenvalues --    0.18852   0.20380   0.21810   0.23011   0.23551

 Mulliken charges:
               1
     1  C   -0.178374
     2  C   -0.035591
     3  C   -0.028030
     4  C   -0.173420
     5  H    0.077720
     6  H    0.066543
     7  H    0.063193
     8  H    0.059530
     9  H    0.070330
    10  H    0.078099
 Sum of Mulliken charges =   0.00000

 Dipole moment (field-independent basis, Debye):
    X=              0.0458    Y=              0.0314    Z=              0.1293  Tot=              0.1407
 Quadrupole moment (field-independent basis, Debye-Ang):
   XX=            -23.5073   YY=            -23.0767   ZZ=            -29.2653
   XY=             -0.3790   XZ=             -0.3573   YZ=             -0.0762

 1\1\GINC-NODE07\SP\RB2PLYPD3-FC\def2QZVP\C4H6\BOITTIER\26-Aug-2020\0\\
 #p B2PLYPD3/Def2QZVP\\butadiene\\0,1\C,0,-3.831112,0.246503,0.019744\C
 ,0,-2.710737,-0.526247,0.043724\C,0,-1.394177,0.053578,-0.003948\C,0,-
 0.261548,-0.64613,0.025674\H,0,-4.834321,-0.202148,0.097167\H,0,-3.822
 594,1.316068,-0.052417\H,0,-2.864459,-1.583682,0.022747\H,0,-1.401722,
 1.138061,0.030588\H,0,-0.225025,-1.687988,0.075803\H,0,0.704579,-0.151
 038,0.153116\\Version=ES64L-G09RevD.01\State=1-A\HF=-155.6962304\MP2=-
 155.9223959\RMSD=6.327e-09\PG=C01 [X(C4H6)]\\@

 Normal termination of Gaussian 09 at Wed Aug 26 10:38:45 2020.
