 Gaussian 09, Revision D.01,
 Gaussian 09:  ES64L-G09RevD.01 24-Apr-2013

 --------------------
 #p B2PLYPD3/Def2QZVP
 --------------------

 ---------
 butadiene
 ---------
 Symbolic Z-matrix:
 Charge =  0 Multiplicity = 1

                         Standard orientation:
 ---------------------------------------------------------------------
 Center     Atomic      Atomic             Coordinates (Angstroms)
 Number     Number       Type             X           Y           Z
 ---------------------------------------------------------------------
      1          6           0        1.844956   -0.132403    0.018240
      2          6           0        0.611750    0.443520   -0.007666
      3          6           0       -0.621230   -0.375916   -0.014027
      4          6           0       -1.855340    0.085488   -0.003633
      5          1           0        2.766803    0.465200    0.025665
      6          1           0        2.059827   -1.223943    0.042332
      7          1           0        0.527153    1.502162   -0.132140
      8          1           0       -0.458159   -1.468477   -0.070151
      9          1           0       -2.043266    1.159514    0.139244
     10          1           0       -2.733177   -0.558590    0.037567
 ---------------------------------------------------------------------

 SCF Done:  E(RB2PLYPD3) =  -155.695367654     A.U. after   11 cycles
 E2(B2PLYPD3) =    -0.2263886969D+00 E(B2PLYPD3) =    -0.15592175635071D+03

 The electronic state is 1-A.
 Alpha  occ. eigenvalues --  -10.63287 -10.62740 -10.62590 -10.61444  -0.92452
 Alpha  occ. eigenvalues --   -0.84670  -0.69717  -0.63890  -0.54465  -0.53367
 Alpha  occ. eigenvalues --   -0.47084  -0.44808  -0.40721  -0.37730  -0.27842
 Alpha virt. eigenvalues --    0.01683   0.06981   0.07367   0.07979   0.09247
 Alpha virt. eigenvalues --    0.11504   0.12416   0.14468   0.15757   0.16212
 Alpha virt. eigenvalues --    0.18915   0.20294   0.21678   0.22764   0.23307

 Mulliken charges:
               1
     1  C   -0.168016
     2  C   -0.052317
     3  C   -0.024876
     4  C   -0.168991
     5  H    0.078099
     6  H    0.066399
     7  H    0.070175
     8  H    0.054730
     9  H    0.060312
    10  H    0.084485
 Sum of Mulliken charges =   0.00000

 Dipole moment (field-independent basis, Debye):
    X=              0.0775    Y=             -0.0095    Z=              0.0271  Tot=              0.0826
 Quadrupole moment (field-independent basis, Debye-Ang):
   XX=            -23.3101   YY=            -23.1912   ZZ=            -29.3872
   XY=             -0.2433   XZ=             -0.2904   YZ=              0.0045

 1\1\GINC-NODE40\SP\RB2PLYPD3-FC\def2QZVP\C4H6\BOITTIER\26-Aug-2020\0\\
 #p B2PLYPD3/Def2QZVP\\butadiene\\0,1\C,0,-3.845442,0.246835,0.031639\C
 ,0,-2.734797,-0.540311,0.026912\C,0,-1.375404,0.045557,0.003143\C,0,-0
 .24341,-0.628099,0.031539\H,0,-4.859114,-0.176312,0.051663\H,0,-3.8620
 99,1.359437,0.024629\H,0,-2.840529,-1.600126,-0.067883\H,0,-1.340969,1
 .147681,-0.08386\H,0,-0.250016,-1.713999,0.204855\H,0,0.735287,-0.1500
 31,0.05865\\Version=ES64L-G09RevD.01\State=1-A\HF=-155.6953677\MP2=-15
 5.9217564\RMSD=6.228e-09\PG=C01 [X(C4H6)]\\@

 Normal termination of Gaussian 09 at Wed Aug 26 09:05:48 2020.
