 Gaussian 09, Revision D.01,
 Gaussian 09:  ES64L-G09RevD.01 24-Apr-2013

 --------------------
 #p B2PLYPD3/Def2QZVP
 --------------------

 ---------
 butadiene
 ---------
 Symbolic Z-matrix:
 Charge =  0 Multiplicity = 1

                         Standard orientation:
 ---------------------------------------------------------------------
 Center     Atomic      Atomic             Coordinates (Angstroms)
 Number     Number       Type             X           Y           Z
 ---------------------------------------------------------------------
      1          6           0       -1.840415   -0.110977   -0.043705
      2          6           0       -0.595351    0.412116    0.013610
      3          6           0        0.614757   -0.401048    0.041707
      4          6           0        1.845430    0.098884   -0.029241
      5          1           0       -2.759195    0.503527    0.011950
      6          1           0       -2.061150   -1.192178   -0.058771
      7          1           0       -0.502441    1.492375    0.188884
      8          1           0        0.398234   -1.440074    0.108938
      9          1           0        2.000787    1.156482   -0.132168
     10          1           0        2.777231   -0.513985   -0.013058
 ---------------------------------------------------------------------

 SCF Done:  E(RB2PLYPD3) =  -155.695740734     A.U. after   11 cycles
 E2(B2PLYPD3) =    -0.2263954355D+00 E(B2PLYPD3) =    -0.15592213616979D+03

 The electronic state is 1-A.
 Alpha  occ. eigenvalues --  -10.63026 -10.62466 -10.62298 -10.61855  -0.92851
 Alpha  occ. eigenvalues --   -0.84506  -0.70034  -0.64205  -0.54492  -0.53398
 Alpha  occ. eigenvalues --   -0.47079  -0.45118  -0.40862  -0.37779  -0.27699
 Alpha virt. eigenvalues --    0.01555   0.07004   0.07390   0.07947   0.09379
 Alpha virt. eigenvalues --    0.11556   0.12458   0.14529   0.15640   0.16260
 Alpha virt. eigenvalues --    0.18911   0.20158   0.21846   0.22572   0.23406

 Mulliken charges:
               1
     1  C   -0.176514
     2  C   -0.032305
     3  C   -0.037304
     4  C   -0.166755
     5  H    0.079118
     6  H    0.060315
     7  H    0.061206
     8  H    0.062071
     9  H    0.067242
    10  H    0.082926
 Sum of Mulliken charges =   0.00000

 Dipole moment (field-independent basis, Debye):
    X=             -0.0103    Y=             -0.0136    Z=              0.1325  Tot=              0.1336
 Quadrupole moment (field-independent basis, Debye-Ang):
   XX=            -23.2331   YY=            -23.3398   ZZ=            -29.3260
   XY=              0.3765   XZ=             -0.3064   YZ=              0.0407

 1\1\GINC-NODE15\SP\RB2PLYPD3-FC\def2QZVP\C4H6\BOITTIER\26-Aug-2020\0\\
 #p B2PLYPD3/Def2QZVP\\butadiene\\0,1\C,0,-3.844444,0.229686,0.055116\C
 ,0,-2.715259,-0.512243,0.015391\C,0,-1.377465,0.066484,-0.026642\C,0,-
 0.258208,-0.647001,0.061254\H,0,-4.859651,-0.208707,0.009996\H,0,-3.86
 4896,1.333045,0.043858\H,0,-2.820344,-1.595262,-0.134078\H,0,-1.401451
 ,1.125654,-0.119166\H,0,-0.297742,-1.712457,0.18964\H,0,0.769499,-0.21
 4296,0.03465\\Version=ES64L-G09RevD.01\State=1-A\HF=-155.6957407\MP2=-
 155.9221362\RMSD=4.854e-09\PG=C01 [X(C4H6)]\\@

 Normal termination of Gaussian 09 at Wed Aug 26 09:45:09 2020.
