 Gaussian 09, Revision D.01,
 Gaussian 09:  ES64L-G09RevD.01 24-Apr-2013

 --------------------
 #p B2PLYPD3/Def2QZVP
 --------------------

 ---------
 butadiene
 ---------
 Symbolic Z-matrix:
 Charge =  0 Multiplicity = 1

                         Standard orientation:
 ---------------------------------------------------------------------
 Center     Atomic      Atomic             Coordinates (Angstroms)
 Number     Number       Type             X           Y           Z
 ---------------------------------------------------------------------
      1          6           0       -1.851756    0.089257    0.023105
      2          6           0       -0.624161   -0.370042   -0.035404
      3          6           0        0.621557    0.435094   -0.050584
      4          6           0        1.849940   -0.142809    0.036904
      5          1           0       -2.720664   -0.551538    0.027576
      6          1           0       -1.989581    1.156263    0.110444
      7          1           0       -0.524595   -1.426027    0.004727
      8          1           0        0.552504    1.538531   -0.068477
      9          1           0        1.984001   -1.231776   -0.021428
     10          1           0        2.724858    0.445548    0.103026
 ---------------------------------------------------------------------

 SCF Done:  E(RB2PLYPD3) =  -155.696253833     A.U. after   11 cycles
 E2(B2PLYPD3) =    -0.2257176948D+00 E(B2PLYPD3) =    -0.15592197152748D+03

 The electronic state is 1-A.
 Alpha  occ. eigenvalues --  -10.63540 -10.62060 -10.61914 -10.60955  -0.92571
 Alpha  occ. eigenvalues --   -0.85085  -0.69844  -0.64032  -0.54621  -0.54040
 Alpha  occ. eigenvalues --   -0.46713  -0.45488  -0.41186  -0.37721  -0.27835
 Alpha virt. eigenvalues --    0.01814   0.07022   0.07481   0.08040   0.09445
 Alpha virt. eigenvalues --    0.11625   0.12473   0.14448   0.15832   0.16362
 Alpha virt. eigenvalues --    0.18930   0.20278   0.21452   0.22833   0.23986

 Mulliken charges:
               1
     1  C   -0.174471
     2  C   -0.019223
     3  C   -0.051668
     4  C   -0.173198
     5  H    0.088299
     6  H    0.060369
     7  H    0.055971
     8  H    0.057081
     9  H    0.069527
    10  H    0.087313
 Sum of Mulliken charges =   0.00000

 Dipole moment (field-independent basis, Debye):
    X=              0.0539    Y=             -0.0197    Z=              0.0835  Tot=              0.1014
 Quadrupole moment (field-independent basis, Debye-Ang):
   XX=            -23.3822   YY=            -23.0849   ZZ=            -29.2904
   XY=              0.1217   XZ=             -0.0573   YZ=              0.1089

 1\1\GINC-NODE16\SP\RB2PLYPD3-FC\def2QZVP\C4H6\BOITTIER\26-Aug-2020\0\\
 #p B2PLYPD3/Def2QZVP\\butadiene\\0,1\C,0,-3.860534,0.192307,0.046718\C
 ,0,-2.730806,-0.473364,0.002387\C,0,-1.36497,0.104027,-0.035013\C,0,-0
 .254306,-0.674399,0.070006\H,0,-4.826911,-0.288587,0.06897\H,0,-3.8119
 ,1.26914,0.103206\H,0,-2.814687,-1.529115,0.07297\H,0,-1.242756,1.2018
 69,-0.084711\H,0,-0.310313,-1.771379,0.043143\H,0,0.709245,-0.244161,0
 .119831\\Version=ES64L-G09RevD.01\State=1-A\HF=-155.6962538\MP2=-155.9
 219715\RMSD=6.334e-09\PG=C01 [X(C4H6)]\\@

 Normal termination of Gaussian 09 at Wed Aug 26 10:47:37 2020.
