 Gaussian 09, Revision D.01,
 Gaussian 09:  ES64L-G09RevD.01 24-Apr-2013

 --------------------
 #p B2PLYPD3/Def2QZVP
 --------------------

 ---------
 butadiene
 ---------
 Symbolic Z-matrix:
 Charge =  0 Multiplicity = 1

                         Standard orientation:
 ---------------------------------------------------------------------
 Center     Atomic      Atomic             Coordinates (Angstroms)
 Number     Number       Type             X           Y           Z
 ---------------------------------------------------------------------
      1          6           0        1.822001   -0.123956    0.050691
      2          6           0        0.585868    0.458892   -0.019524
      3          6           0       -0.566985   -0.370144   -0.083228
      4          6           0       -1.826562    0.080618    0.062556
      5          1           0        2.779915    0.376058   -0.167636
      6          1           0        1.968209   -1.214402    0.240771
      7          1           0        0.441312    1.523672   -0.103806
      8          1           0       -0.510239   -1.395017   -0.096193
      9          1           0       -2.172333    1.095295    0.169852
     10          1           0       -2.592797   -0.658066   -0.105963
 ---------------------------------------------------------------------

 SCF Done:  E(RB2PLYPD3) =  -155.684849389     A.U. after   11 cycles
 E2(B2PLYPD3) =    -0.2271532815D+00 E(B2PLYPD3) =    -0.15591200267036D+03

 The electronic state is 1-A.
 Alpha  occ. eigenvalues --  -10.62959 -10.62648 -10.61661 -10.61258  -0.93336
 Alpha  occ. eigenvalues --   -0.84225  -0.70324  -0.64987  -0.54359  -0.54132
 Alpha  occ. eigenvalues --   -0.46096  -0.45421  -0.42141  -0.37596  -0.26880
 Alpha virt. eigenvalues --    0.00829   0.06984   0.07504   0.08025   0.09341
 Alpha virt. eigenvalues --    0.11549   0.12429   0.14963   0.15800   0.16242
 Alpha virt. eigenvalues --    0.19095   0.19942   0.21244   0.22092   0.24235

 Mulliken charges:
               1
     1  C   -0.173452
     2  C   -0.041412
     3  C   -0.032109
     4  C   -0.171769
     5  H    0.078297
     6  H    0.062147
     7  H    0.073152
     8  H    0.069602
     9  H    0.066387
    10  H    0.069157
 Sum of Mulliken charges =   0.00000

 Dipole moment (field-independent basis, Debye):
    X=              0.0160    Y=             -0.0129    Z=             -0.1277  Tot=              0.1293
 Quadrupole moment (field-independent basis, Debye-Ang):
   XX=            -23.7370   YY=            -23.0705   ZZ=            -29.2038
   XY=             -0.5241   XZ=             -0.1996   YZ=             -0.1361

 1\1\GINC-NODE11\SP\RB2PLYPD3-FC\def2QZVP\C4H6\BOITTIER\26-Aug-2020\0\\
 #p B2PLYPD3/Def2QZVP\\butadiene\\0,1\C,0,-3.814938,0.256461,0.065542\C
 ,0,-2.711584,-0.55091,0.006976\C,0,-1.422474,0.04377,-0.0636\C,0,-0.27
 125,-0.635484,0.092185\H,0,-4.850065,-0.055874,-0.149491\H,0,-3.752028
 ,1.357291,0.241028\H,0,-2.77134,-1.624819,-0.06306\H,0,-1.283982,1.060
 567,-0.089996\H,0,-0.124098,-1.695773,0.213733\H,0,0.621212,-0.05766,-
 0.083315\\Version=ES64L-G09RevD.01\State=1-A\HF=-155.6848494\MP2=-155.
 9120027\RMSD=8.809e-09\PG=C01 [X(C4H6)]\\@

 Normal termination of Gaussian 09 at Wed Aug 26 11:24:19 2020.
