 Gaussian 09, Revision D.01,
 Gaussian 09:  ES64L-G09RevD.01 24-Apr-2013

 --------------------
 #p B2PLYPD3/Def2QZVP
 --------------------

 ---------
 butadiene
 ---------
 Symbolic Z-matrix:
 Charge =  0 Multiplicity = 1

                         Standard orientation:
 ---------------------------------------------------------------------
 Center     Atomic      Atomic             Coordinates (Angstroms)
 Number     Number       Type             X           Y           Z
 ---------------------------------------------------------------------
      1          6           0       -1.844486    0.107665    0.022928
      2          6           0       -0.612370   -0.388667   -0.025618
      3          6           0        0.610496    0.399215   -0.033169
      4          6           0        1.835486   -0.112486    0.008767
      5          1           0       -2.699540   -0.551280    0.041436
      6          1           0       -2.028538    1.175551    0.026844
      7          1           0       -0.486930   -1.466296   -0.031305
      8          1           0        0.535498    1.508363   -0.014423
      9          1           0        2.026139   -1.183613    0.053797
     10          1           0        2.718609    0.482913    0.086204
 ---------------------------------------------------------------------

 SCF Done:  E(RB2PLYPD3) =  -155.700432980     A.U. after   11 cycles
 E2(B2PLYPD3) =    -0.2254602839D+00 E(B2PLYPD3) =    -0.15592589326385D+03

 The electronic state is 1-A.
 Alpha  occ. eigenvalues --  -10.62758 -10.62492 -10.61425 -10.61332  -0.92972
 Alpha  occ. eigenvalues --   -0.85167  -0.70199  -0.63768  -0.54791  -0.54005
 Alpha  occ. eigenvalues --   -0.46836  -0.45283  -0.40878  -0.38225  -0.27869
 Alpha virt. eigenvalues --    0.01833   0.07012   0.07407   0.07989   0.09739
 Alpha virt. eigenvalues --    0.11607   0.12449   0.14690   0.15897   0.16249
 Alpha virt. eigenvalues --    0.18869   0.20517   0.21673   0.22665   0.23703

 Mulliken charges:
               1
     1  C   -0.173947
     2  C   -0.032187
     3  C   -0.027791
     4  C   -0.169160
     5  H    0.086319
     6  H    0.068148
     7  H    0.055318
     8  H    0.050165
     9  H    0.059201
    10  H    0.083934
 Sum of Mulliken charges =   0.00000

 Dipole moment (field-independent basis, Debye):
    X=              0.0284    Y=             -0.0133    Z=              0.1084  Tot=              0.1129
 Quadrupole moment (field-independent basis, Debye-Ang):
   XX=            -23.3127   YY=            -23.1597   ZZ=            -29.2309
   XY=             -0.0966   XZ=              0.2144   YZ=              0.0175

 1\1\GINC-NODE04\SP\RB2PLYPD3-FC\def2QZVP\C4H6\BOITTIER\26-Aug-2020\0\\
 #p B2PLYPD3/Def2QZVP\\butadiene\\0,1\C,0,-3.846844,0.21895,0.041186\C,
 0,-2.722731,-0.489782,0.011508\C,0,-1.379256,0.06752,-0.015049\C,0,-0.
 26472,-0.652384,0.046142\H,0,-4.80542,-0.276607,0.07616\H,0,-3.838039,
 1.302186,0.013018\H,0,-2.79095,-1.572231,0.037992\H,0,-1.255769,1.1723
 89,-0.029236\H,0,-0.267515,-1.738534,0.123354\H,0,0.710355,-0.221484,0
 .10904\\Version=ES64L-G09RevD.01\State=1-A\HF=-155.700433\MP2=-155.925
 8933\RMSD=3.444e-09\PG=C01 [X(C4H6)]\\@

 Normal termination of Gaussian 09 at Wed Aug 26 20:25:12 2020.
