 Gaussian 09, Revision D.01,
 Gaussian 09:  ES64L-G09RevD.01 24-Apr-2013

 --------------------
 #p B2PLYPD3/Def2QZVP
 --------------------

 ---------
 butadiene
 ---------
 Symbolic Z-matrix:
 Charge =  0 Multiplicity = 1

                         Standard orientation:
 ---------------------------------------------------------------------
 Center     Atomic      Atomic             Coordinates (Angstroms)
 Number     Number       Type             X           Y           Z
 ---------------------------------------------------------------------
      1          6           0        1.839296    0.095463    0.020343
      2          6           0        0.590939   -0.397767   -0.004897
      3          6           0       -0.602504    0.412864   -0.024956
      4          6           0       -1.834580   -0.111181    0.015553
      5          1           0        2.761357   -0.502346   -0.052399
      6          1           0        1.982804    1.176657    0.050748
      7          1           0        0.456359   -1.453782   -0.055245
      8          1           0       -0.461610    1.481130   -0.021031
      9          1           0       -1.983571   -1.187416    0.063654
     10          1           0       -2.714247    0.489485   -0.021984
 ---------------------------------------------------------------------

 SCF Done:  E(RB2PLYPD3) =  -155.699781246     A.U. after   11 cycles
 E2(B2PLYPD3) =    -0.2259462808D+00 E(B2PLYPD3) =    -0.15592572752631D+03

 The electronic state is 1-A.
 Alpha  occ. eigenvalues --  -10.62517 -10.62330 -10.61863 -10.61525  -0.93143
 Alpha  occ. eigenvalues --   -0.84674  -0.70246  -0.64466  -0.54781  -0.53763
 Alpha  occ. eigenvalues --   -0.46837  -0.45341  -0.41426  -0.38158  -0.27494
 Alpha virt. eigenvalues --    0.01535   0.07021   0.07442   0.08107   0.09546
 Alpha virt. eigenvalues --    0.11648   0.12576   0.14605   0.15863   0.16247
 Alpha virt. eigenvalues --    0.18818   0.20503   0.21676   0.22878   0.23628

 Mulliken charges:
               1
     1  C   -0.174979
     2  C   -0.027587
     3  C   -0.032874
     4  C   -0.174127
     5  H    0.085200
     6  H    0.058337
     7  H    0.057878
     8  H    0.057151
     9  H    0.064252
    10  H    0.086750
 Sum of Mulliken charges =   0.00000

 Dipole moment (field-independent basis, Debye):
    X=             -0.0383    Y=              0.0012    Z=             -0.0558  Tot=              0.0677
 Quadrupole moment (field-independent basis, Debye-Ang):
   XX=            -23.3322   YY=            -23.2069   ZZ=            -29.2769
   XY=              0.1244   XZ=             -0.1616   YZ=              0.0514

 1\1\GINC-NODE16\SP\RB2PLYPD3-FC\def2QZVP\C4H6\BOITTIER\26-Aug-2020\0\\
 #p B2PLYPD3/Def2QZVP\\butadiene\\0,1\C,0,-3.844186,0.213745,0.001029\C
 ,0,-2.706512,-0.497751,0.04321\C,0,-1.385231,0.08192,0.037745\C,0,-0.2
 69525,-0.659003,0.015203\H,0,-4.859362,-0.203281,0.092517\H,0,-3.78840
 1,1.301437,-0.064645\H,0,-2.766382,-1.558431,0.127991\H,0,-1.329094,1.
 157282,-0.00104\H,0,-0.319425,-1.745343,0.002255\H,0,0.705064,-0.22789
 7,0.033812\\Version=ES64L-G09RevD.01\State=1-A\HF=-155.6997812\MP2=-15
 5.9257275\RMSD=4.721e-09\PG=C01 [X(C4H6)]\\@

 Normal termination of Gaussian 09 at Wed Aug 26 16:28:05 2020.
