 Gaussian 09, Revision D.01,
 Gaussian 09:  ES64L-G09RevD.01 24-Apr-2013

 --------------------
 #p B2PLYPD3/Def2QZVP
 --------------------

 ---------
 butadiene
 ---------
 Symbolic Z-matrix:
 Charge =  0 Multiplicity = 1

                         Standard orientation:
 ---------------------------------------------------------------------
 Center     Atomic      Atomic             Coordinates (Angstroms)
 Number     Number       Type             X           Y           Z
 ---------------------------------------------------------------------
      1          6           0        1.856068    0.083291   -0.012213
      2          6           0        0.583090   -0.363803    0.019655
      3          6           0       -0.604179    0.408822    0.083255
      4          6           0       -1.824723   -0.120406   -0.068934
      5          1           0        2.752457   -0.571367   -0.151887
      6          1           0        2.134379    1.123374   -0.222301
      7          1           0        0.352626   -1.425983    0.291155
      8          1           0       -0.597723    1.496464    0.174119
      9          1           0       -2.062103   -1.188322   -0.133275
     10          1           0       -2.641170    0.518407   -0.088390
 ---------------------------------------------------------------------

 SCF Done:  E(RB2PLYPD3) =  -155.686413988     A.U. after   11 cycles
 E2(B2PLYPD3) =    -0.2270509888D+00 E(B2PLYPD3) =    -0.15591346497722D+03

 The electronic state is 1-A.
 Alpha  occ. eigenvalues --  -10.63124 -10.62444 -10.62358 -10.61354  -0.93352
 Alpha  occ. eigenvalues --   -0.84653  -0.71003  -0.63610  -0.55204  -0.53205
 Alpha  occ. eigenvalues --   -0.46757  -0.45120  -0.41185  -0.37650  -0.27536
 Alpha virt. eigenvalues --    0.01020   0.07074   0.07398   0.07761   0.09480
 Alpha virt. eigenvalues --    0.11345   0.12497   0.14787   0.15211   0.16623
 Alpha virt. eigenvalues --    0.18908   0.19541   0.22037   0.22610   0.22826

 Mulliken charges:
               1
     1  C   -0.172996
     2  C   -0.034052
     3  C   -0.031441
     4  C   -0.168189
     5  H    0.075876
     6  H    0.063368
     7  H    0.064842
     8  H    0.056135
     9  H    0.064356
    10  H    0.082102
 Sum of Mulliken charges =   0.00000

 Dipole moment (field-independent basis, Debye):
    X=             -0.1680    Y=              0.0603    Z=             -0.0662  Tot=              0.1904
 Quadrupole moment (field-independent basis, Debye-Ang):
   XX=            -23.2644   YY=            -23.4848   ZZ=            -29.1293
   XY=              0.3435   XZ=             -0.3854   YZ=             -0.2125

 1\1\GINC-NODE30\SP\RB2PLYPD3-FC\def2QZVP\C4H6\BOITTIER\26-Aug-2020\0\\
 #p B2PLYPD3/Def2QZVP\\butadiene\\0,1\C,0,-3.859649,0.210686,0.0417\C,0
 ,-2.691927,-0.465383,0.014545\C,0,-1.382338,0.072245,-0.066291\C,0,-0.
 280268,-0.671589,0.092213\H,0,-4.86107,-0.263707,0.195669\H,0,-3.93890
 7,1.287842,0.233585\H,0,-2.664153,-1.556436,-0.238211\H,0,-1.187454,1.
 140444,-0.176904\H,0,-0.244741,-1.763726,0.175328\H,0,0.640619,-0.1951
 62,0.097851\\Version=ES64L-G09RevD.01\State=1-A\HF=-155.686414\MP2=-15
 5.913465\RMSD=8.321e-09\PG=C01 [X(C4H6)]\\@

 Normal termination of Gaussian 09 at Wed Aug 26 13:26:18 2020.
