 Gaussian 09, Revision D.01,
 Gaussian 09:  ES64L-G09RevD.01 24-Apr-2013

 --------------------
 #p B2PLYPD3/Def2QZVP
 --------------------

 ---------
 butadiene
 ---------
 Symbolic Z-matrix:
 Charge =  0 Multiplicity = 1

                         Standard orientation:
 ---------------------------------------------------------------------
 Center     Atomic      Atomic             Coordinates (Angstroms)
 Number     Number       Type             X           Y           Z
 ---------------------------------------------------------------------
      1          6           0       -1.831772   -0.103512   -0.044326
      2          6           0       -0.605911    0.387876    0.061710
      3          6           0        0.590503   -0.420872    0.023609
      4          6           0        1.828959    0.120034   -0.039044
      5          1           0       -2.687481    0.583343   -0.082947
      6          1           0       -2.057174   -1.143808   -0.000661
      7          1           0       -0.423388    1.468367    0.039549
      8          1           0        0.517746   -1.500146    0.094113
      9          1           0        2.038606    1.203048    0.009166
     10          1           0        2.721021   -0.511961   -0.070915
 ---------------------------------------------------------------------

 SCF Done:  E(RB2PLYPD3) =  -155.697610706     A.U. after   11 cycles
 E2(B2PLYPD3) =    -0.2261923548D+00 E(B2PLYPD3) =    -0.15592380306062D+03

 The electronic state is 1-A.
 Alpha  occ. eigenvalues --  -10.62727 -10.62460 -10.62060 -10.61356  -0.93052
 Alpha  occ. eigenvalues --   -0.84664  -0.70066  -0.64051  -0.54335  -0.53966
 Alpha  occ. eigenvalues --   -0.46387  -0.45441  -0.41175  -0.38109  -0.27520
 Alpha virt. eigenvalues --    0.01627   0.06983   0.07371   0.07981   0.09469
 Alpha virt. eigenvalues --    0.11637   0.12359   0.14811   0.15666   0.16324
 Alpha virt. eigenvalues --    0.18794   0.20143   0.21704   0.22947   0.23679

 Mulliken charges:
               1
     1  C   -0.172024
     2  C   -0.028536
     3  C   -0.034366
     4  C   -0.176646
     5  H    0.079004
     6  H    0.072100
     7  H    0.057335
     8  H    0.059632
     9  H    0.064043
    10  H    0.079457
 Sum of Mulliken charges =   0.00000

 Dipole moment (field-independent basis, Debye):
    X=              0.0065    Y=             -0.0274    Z=              0.0603  Tot=              0.0665
 Quadrupole moment (field-independent basis, Debye-Ang):
   XX=            -23.5957   YY=            -23.0299   ZZ=            -29.3153
   XY=              0.3207   XZ=              0.1108   YZ=             -0.0924

 1\1\GINC-NODE27\SP\RB2PLYPD3-FC\def2QZVP\C4H6\BOITTIER\26-Aug-2020\0\\
 #p B2PLYPD3/Def2QZVP\\butadiene\\0,1\C,0,-3.832111,0.22165,0.062963\C,
 0,-2.717401,-0.489364,-0.022595\C,0,-1.393087,0.087748,-0.014369\C,0,-
 0.274048,-0.667775,0.070563\H,0,-4.798728,-0.295107,0.12709\H,0,-3.863
 775,1.283186,-0.021108\H,0,-2.735368,-1.583364,0.041491\H,0,-1.267715,
 1.158628,-0.126588\H,0,-0.266227,-1.771903,0.064459\H,0,0.718697,-0.20
 887,0.079037\\Version=ES64L-G09RevD.01\State=1-A\HF=-155.6976107\MP2=-
 155.9238031\RMSD=6.310e-09\PG=C01 [X(C4H6)]\\@

 Normal termination of Gaussian 09 at Wed Aug 26 09:02:14 2020.
