 Gaussian 09, Revision D.01,
 Gaussian 09:  ES64L-G09RevD.01 24-Apr-2013

 --------------------
 #p B2PLYPD3/Def2QZVP
 --------------------

 ---------
 butadiene
 ---------
 Symbolic Z-matrix:
 Charge =  0 Multiplicity = 1

                         Standard orientation:
 ---------------------------------------------------------------------
 Center     Atomic      Atomic             Coordinates (Angstroms)
 Number     Number       Type             X           Y           Z
 ---------------------------------------------------------------------
      1          6           0       -1.835471    0.100125    0.023579
      2          6           0       -0.598448   -0.379126   -0.029250
      3          6           0        0.614472    0.407220   -0.020193
      4          6           0        1.836097   -0.117250    0.013271
      5          1           0       -2.705181   -0.555420    0.046792
      6          1           0       -2.055067    1.162060   -0.043918
      7          1           0       -0.510327   -1.449250   -0.013747
      8          1           0        0.472436    1.481180    0.044591
      9          1           0        1.975881   -1.199625    0.030500
     10          1           0        2.722356    0.495246    0.011338
 ---------------------------------------------------------------------

 SCF Done:  E(RB2PLYPD3) =  -155.700525040     A.U. after   11 cycles
 E2(B2PLYPD3) =    -0.2254258646D+00 E(B2PLYPD3) =    -0.15592595090489D+03

 The electronic state is 1-A.
 Alpha  occ. eigenvalues --  -10.62464 -10.62137 -10.61580 -10.61431  -0.93209
 Alpha  occ. eigenvalues --   -0.85098  -0.70185  -0.64114  -0.54737  -0.54010
 Alpha  occ. eigenvalues --   -0.46849  -0.45363  -0.41032  -0.38295  -0.27790
 Alpha virt. eigenvalues --    0.01768   0.07003   0.07467   0.08037   0.09732
 Alpha virt. eigenvalues --    0.11677   0.12446   0.14718   0.15781   0.16238
 Alpha virt. eigenvalues --    0.18829   0.20361   0.21671   0.22673   0.23950

 Mulliken charges:
               1
     1  C   -0.174826
     2  C   -0.024355
     3  C   -0.035373
     4  C   -0.171902
     5  H    0.081288
     6  H    0.062470
     7  H    0.053195
     8  H    0.056682
     9  H    0.065555
    10  H    0.087266
 Sum of Mulliken charges =   0.00000

 Dipole moment (field-independent basis, Debye):
    X=              0.0208    Y=             -0.0024    Z=              0.0288  Tot=              0.0357
 Quadrupole moment (field-independent basis, Debye-Ang):
   XX=            -23.3725   YY=            -23.1757   ZZ=            -29.2027
   XY=             -0.0864   XZ=              0.0779   YZ=             -0.0499

 1\1\GINC-NODE25\SP\RB2PLYPD3-FC\def2QZVP\C4H6\BOITTIER\26-Aug-2020\0\\
 #p B2PLYPD3/Def2QZVP\\butadiene\\0,1\C,0,-3.841979,0.21278,0.041953\C,
 0,-2.711191,-0.482105,0.007998\C,0,-1.376853,0.07373,-0.005628\C,0,-0.
 269034,-0.660032,0.048105\H,0,-4.815102,-0.274971,0.084419\H,0,-3.8677
 23,1.2941,-0.060855\H,0,-2.816433,-1.549586,0.058774\H,0,-1.323692,1.1
 57281,0.023576\H,0,-0.325644,-1.748772,0.101139\H,0,0.712718,-0.216882
 ,0.02836\\Version=ES64L-G09RevD.01\State=1-A\HF=-155.700525\MP2=-155.9
 259509\RMSD=4.293e-09\PG=C01 [X(C4H6)]\\@

 Normal termination of Gaussian 09 at Wed Aug 26 18:41:25 2020.
