 Gaussian 09, Revision D.01,
 Gaussian 09:  ES64L-G09RevD.01 24-Apr-2013

 --------------------
 #p B2PLYPD3/Def2QZVP
 --------------------

 ---------
 butadiene
 ---------
 Symbolic Z-matrix:
 Charge =  0 Multiplicity = 1

                         Standard orientation:
 ---------------------------------------------------------------------
 Center     Atomic      Atomic             Coordinates (Angstroms)
 Number     Number       Type             X           Y           Z
 ---------------------------------------------------------------------
      1          6           0        1.824760   -0.118011   -0.021474
      2          6           0        0.610056    0.418515   -0.002452
      3          6           0       -0.607293   -0.372703    0.038525
      4          6           0       -1.850254    0.086873   -0.046348
      5          1           0        2.751516    0.435490    0.017430
      6          1           0        1.949462   -1.213852   -0.068207
      7          1           0        0.563434    1.484848    0.126215
      8          1           0       -0.414780   -1.432185    0.091532
      9          1           0       -1.995305    1.158362   -0.019770
     10          1           0       -2.717947   -0.520707    0.043290
 ---------------------------------------------------------------------

 SCF Done:  E(RB2PLYPD3) =  -155.698201830     A.U. after   11 cycles
 E2(B2PLYPD3) =    -0.2254411492D+00 E(B2PLYPD3) =    -0.15592364297967D+03

 The electronic state is 1-A.
 Alpha  occ. eigenvalues --  -10.62410 -10.62322 -10.61693 -10.61179  -0.93211
 Alpha  occ. eigenvalues --   -0.85186  -0.70258  -0.64221  -0.55120  -0.53820
 Alpha  occ. eigenvalues --   -0.47368  -0.44973  -0.41065  -0.38086  -0.27943
 Alpha virt. eigenvalues --    0.01761   0.07073   0.07484   0.08067   0.09665
 Alpha virt. eigenvalues --    0.11618   0.12646   0.14548   0.15672   0.16495
 Alpha virt. eigenvalues --    0.18906   0.19952   0.22031   0.22692   0.23687

 Mulliken charges:
               1
     1  C   -0.170897
     2  C   -0.025507
     3  C   -0.035153
     4  C   -0.167261
     5  H    0.085079
     6  H    0.055221
     7  H    0.057091
     8  H    0.052959
     9  H    0.060927
    10  H    0.087541
 Sum of Mulliken charges =   0.00000

 Dipole moment (field-independent basis, Debye):
    X=              0.0863    Y=              0.0077    Z=              0.2048  Tot=              0.2224
 Quadrupole moment (field-independent basis, Debye-Ang):
   XX=            -23.1532   YY=            -23.3716   ZZ=            -29.1504
   XY=             -0.0044   XZ=             -0.1144   YZ=              0.1122

 1\1\GINC-NODE07\SP\RB2PLYPD3-FC\def2QZVP\C4H6\BOITTIER\26-Aug-2020\0\\
 #p B2PLYPD3/Def2QZVP\\butadiene\\0,1\C,0,-3.828694,0.227802,-0.002435\
 C,0,-2.729241,-0.515803,0.042095\C,0,-1.389998,0.046278,0.053791\C,0,-
 0.249483,-0.630996,-0.008582\H,0,-4.8392,-0.149206,0.056686\H,0,-3.755
 929,1.325435,-0.094685\H,0,-2.873181,-1.567115,0.214774\H,0,-1.389985,
 1.124377,0.062505\H,0,-0.29797,-1.709152,0.062583\H,0,0.713162,-0.1849
 95,0.058334\\Version=ES64L-G09RevD.01\State=1-A\HF=-155.6982018\MP2=-1
 55.923643\RMSD=3.517e-09\PG=C01 [X(C4H6)]\\@

 Normal termination of Gaussian 09 at Wed Aug 26 10:33:00 2020.
