 Gaussian 09, Revision D.01,
 Gaussian 09:  ES64L-G09RevD.01 24-Apr-2013

 --------------------
 #p B2PLYPD3/Def2QZVP
 --------------------

 ---------
 butadiene
 ---------
 Symbolic Z-matrix:
 Charge =  0 Multiplicity = 1

                         Standard orientation:
 ---------------------------------------------------------------------
 Center     Atomic      Atomic             Coordinates (Angstroms)
 Number     Number       Type             X           Y           Z
 ---------------------------------------------------------------------
      1          6           0       -1.839758    0.108804   -0.004199
      2          6           0       -0.607088   -0.409364   -0.018322
      3          6           0        0.608347    0.395519   -0.004357
      4          6           0        1.842333   -0.110018    0.008256
      5          1           0       -2.735340   -0.486725    0.073084
      6          1           0       -2.021425    1.178306    0.026809
      7          1           0       -0.488988   -1.473826    0.019011
      8          1           0        0.477352    1.476140   -0.035964
      9          1           0        2.063734   -1.175009   -0.024143
     10          1           0        2.681661    0.571462    0.052933
 ---------------------------------------------------------------------

 SCF Done:  E(RB2PLYPD3) =  -155.700627621     A.U. after   11 cycles
 E2(B2PLYPD3) =    -0.2256370631D+00 E(B2PLYPD3) =    -0.15592626468386D+03

 The electronic state is 1-A.
 Alpha  occ. eigenvalues --  -10.62591 -10.62479 -10.61547 -10.61530  -0.92887
 Alpha  occ. eigenvalues --   -0.84904  -0.70168  -0.64173  -0.54605  -0.53948
 Alpha  occ. eigenvalues --   -0.46743  -0.45558  -0.41076  -0.38052  -0.27705
 Alpha virt. eigenvalues --    0.01740   0.06993   0.07443   0.08074   0.09549
 Alpha virt. eigenvalues --    0.11637   0.12429   0.14744   0.15816   0.16236
 Alpha virt. eigenvalues --    0.18860   0.20485   0.21733   0.22785   0.23710

 Mulliken charges:
               1
     1  C   -0.169868
     2  C   -0.034732
     3  C   -0.031562
     4  C   -0.176754
     5  H    0.082186
     6  H    0.061239
     7  H    0.059609
     8  H    0.056657
     9  H    0.069964
    10  H    0.083260
 Sum of Mulliken charges =   0.00000

 Dipole moment (field-independent basis, Debye):
    X=             -0.0133    Y=             -0.0043    Z=              0.0853  Tot=              0.0865
 Quadrupole moment (field-independent basis, Debye-Ang):
   XX=            -23.4325   YY=            -23.0730   ZZ=            -29.2690
   XY=             -0.2523   XZ=             -0.2221   YZ=             -0.0189

 1\1\GINC-NODE29\SP\RB2PLYPD3-FC\def2QZVP\C4H6\BOITTIER\26-Aug-2020\0\\
 #p B2PLYPD3/Def2QZVP\\butadiene\\0,1\C,0,-3.842095,0.226126,0.019207\C
 ,0,-2.723484,-0.506595,0.021115\C,0,-1.382527,0.065273,0.010413\C,0,-0
 .260193,-0.65446,0.038656\H,0,-4.830131,-0.195017,0.114699\H,0,-3.8272
 83,1.311287,0.017299\H,0,-2.79953,-1.57324,0.091171\H,0,-1.316212,1.15
 0307,-0.054418\H,0,-0.235119,-1.742415,0.039037\H,0,0.688721,-0.134961
 ,0.062419\\Version=ES64L-G09RevD.01\State=1-A\HF=-155.7006276\MP2=-155
 .9262647\RMSD=2.360e-09\PG=C01 [X(C4H6)]\\@

 Normal termination of Gaussian 09 at Wed Aug 26 10:00:18 2020.
