 Gaussian 09, Revision D.01,
 Gaussian 09:  ES64L-G09RevD.01 24-Apr-2013

 --------------------
 #p B2PLYPD3/Def2QZVP
 --------------------

 ---------
 butadiene
 ---------
 Symbolic Z-matrix:
 Charge =  0 Multiplicity = 1

                         Standard orientation:
 ---------------------------------------------------------------------
 Center     Atomic      Atomic             Coordinates (Angstroms)
 Number     Number       Type             X           Y           Z
 ---------------------------------------------------------------------
      1          6           0        1.822905    0.114731    0.029212
      2          6           0        0.598073   -0.418932   -0.052992
      3          6           0       -0.589658    0.403511   -0.050861
      4          6           0       -1.814416   -0.109091    0.010291
      5          1           0        2.707033   -0.499396    0.140757
      6          1           0        1.957324    1.175195    0.013720
      7          1           0        0.458369   -1.512717   -0.049784
      8          1           0       -0.442638    1.502455    0.040121
      9          1           0       -2.063380   -1.147022    0.139398
     10          1           0       -2.718130    0.540167    0.101888
 ---------------------------------------------------------------------

 SCF Done:  E(RB2PLYPD3) =  -155.696465011     A.U. after   11 cycles
 E2(B2PLYPD3) =    -0.2261491764D+00 E(B2PLYPD3) =    -0.15592261418727D+03

 The electronic state is 1-A.
 Alpha  occ. eigenvalues --  -10.62778 -10.62667 -10.61643 -10.61386  -0.93175
 Alpha  occ. eigenvalues --   -0.84745  -0.69986  -0.63938  -0.54753  -0.53594
 Alpha  occ. eigenvalues --   -0.46540  -0.45274  -0.40967  -0.38272  -0.27567
 Alpha virt. eigenvalues --    0.01758   0.07003   0.07253   0.07991   0.09354
 Alpha virt. eigenvalues --    0.11684   0.12505   0.14762   0.15743   0.16264
 Alpha virt. eigenvalues --    0.18694   0.20222   0.22032   0.22935   0.23634

 Mulliken charges:
               1
     1  C   -0.177007
     2  C   -0.029065
     3  C   -0.027702
     4  C   -0.169024
     5  H    0.084786
     6  H    0.067223
     7  H    0.056884
     8  H    0.056146
     9  H    0.066561
    10  H    0.071198
 Sum of Mulliken charges =   0.00000

 Dipole moment (field-independent basis, Debye):
    X=              0.0182    Y=             -0.0278    Z=              0.2787  Tot=              0.2807
 Quadrupole moment (field-independent basis, Debye-Ang):
   XX=            -23.6639   YY=            -23.0901   ZZ=            -29.2479
   XY=              0.3734   XZ=             -0.1878   YZ=             -0.0632

 1\1\GINC-NODE29\SP\RB2PLYPD3-FC\def2QZVP\C4H6\BOITTIER\26-Aug-2020\0\\
 #p B2PLYPD3/Def2QZVP\\butadiene\\0,1\C,0,-3.820966,0.23247,-0.014871\C
 ,0,-2.714619,-0.514703,0.082571\C,0,-1.39602,0.074994,0.056573\C,0,-0.
 286652,-0.655536,0.010111\H,0,-4.803474,-0.21158,-0.108547\H,0,-3.7581
 57,1.299578,-0.029981\H,0,-2.77829,-1.615174,0.110922\H,0,-1.339103,1.
 179208,-0.066077\H,0,-0.233343,-1.724782,-0.089009\H,0,0.720464,-0.186
 329,-0.100287\\Version=ES64L-G09RevD.01\State=1-A\HF=-155.696465\MP2=-
 155.9226142\RMSD=5.661e-09\PG=C01 [X(C4H6)]\\@

 Normal termination of Gaussian 09 at Wed Aug 26 09:02:13 2020.
