 Gaussian 09, Revision D.01,
 Gaussian 09:  ES64L-G09RevD.01 24-Apr-2013

 --------------------
 #p B2PLYPD3/Def2QZVP
 --------------------

 ---------
 butadiene
 ---------
 Symbolic Z-matrix:
 Charge =  0 Multiplicity = 1

                         Standard orientation:
 ---------------------------------------------------------------------
 Center     Atomic      Atomic             Coordinates (Angstroms)
 Number     Number       Type             X           Y           Z
 ---------------------------------------------------------------------
      1          6           0       -1.845517   -0.113214    0.012395
      2          6           0       -0.604631    0.407023   -0.042816
      3          6           0        0.617151   -0.415427   -0.037011
      4          6           0        1.833435    0.110210    0.040497
      5          1           0       -2.724745    0.549832    0.053407
      6          1           0       -2.070066   -1.158392    0.173518
      7          1           0       -0.450135    1.464129   -0.122954
      8          1           0        0.496127   -1.500600   -0.047673
      9          1           0        1.998878    1.212566    0.190827
     10          1           0        2.747311   -0.499086   -0.085517
 ---------------------------------------------------------------------

 SCF Done:  E(RB2PLYPD3) =  -155.696093623     A.U. after   11 cycles
 E2(B2PLYPD3) =    -0.2262739246D+00 E(B2PLYPD3) =    -0.15592236754720D+03

 The electronic state is 1-A.
 Alpha  occ. eigenvalues --  -10.62851 -10.62672 -10.62097 -10.61895  -0.92658
 Alpha  occ. eigenvalues --   -0.84636  -0.69623  -0.64031  -0.54281  -0.53433
 Alpha  occ. eigenvalues --   -0.46870  -0.45213  -0.40841  -0.37742  -0.27731
 Alpha virt. eigenvalues --    0.01697   0.06965   0.07333   0.07992   0.09287
 Alpha virt. eigenvalues --    0.11614   0.12314   0.14654   0.15660   0.16297
 Alpha virt. eigenvalues --    0.18879   0.19884   0.21755   0.22601   0.23522

 Mulliken charges:
               1
     1  C   -0.171168
     2  C   -0.042089
     3  C   -0.034189
     4  C   -0.169261
     5  H    0.077157
     6  H    0.069549
     7  H    0.065326
     8  H    0.060973
     9  H    0.060345
    10  H    0.083358
 Sum of Mulliken charges =   0.00000

 Dipole moment (field-independent basis, Debye):
    X=              0.0183    Y=             -0.0114    Z=              0.0995  Tot=              0.1018
 Quadrupole moment (field-independent basis, Debye-Ang):
   XX=            -23.6009   YY=            -23.1216   ZZ=            -29.3150
   XY=              0.2837   XZ=             -0.4034   YZ=              0.0074

 1\1\GINC-NODE25\SP\RB2PLYPD3-FC\def2QZVP\C4H6\BOITTIER\26-Aug-2020\0\\
 #p B2PLYPD3/Def2QZVP\\butadiene\\0,1\C,0,-3.847541,0.226451,-0.002417\
 C,0,-2.720441,-0.50658,0.073774\C,0,-1.370667,0.082309,0.050763\C,0,-0
 .268762,-0.655435,-0.00568\H,0,-4.831686,-0.26863,-0.029008\H,0,-3.880
 484,1.289883,-0.194271\H,0,-2.758568,-1.571481,0.184663\H,0,-1.294552,
 1.171408,0.030008\H,0,-0.304295,-1.773442,-0.123824\H,0,0.739813,-0.21
 6984,0.107577\\Version=ES64L-G09RevD.01\State=1-A\HF=-155.6960936\MP2=
 -155.9223675\RMSD=6.791e-09\PG=C01 [X(C4H6)]\\@

 Normal termination of Gaussian 09 at Wed Aug 26 08:45:26 2020.
