 Gaussian 09, Revision D.01,
 Gaussian 09:  ES64L-G09RevD.01 24-Apr-2013

 --------------------
 #p B2PLYPD3/Def2QZVP
 --------------------

 ---------
 butadiene
 ---------
 Symbolic Z-matrix:
 Charge =  0 Multiplicity = 1

                         Standard orientation:
 ---------------------------------------------------------------------
 Center     Atomic      Atomic             Coordinates (Angstroms)
 Number     Number       Type             X           Y           Z
 ---------------------------------------------------------------------
      1          6           0       -1.837250    0.110441    0.018523
      2          6           0       -0.607443   -0.401059   -0.032123
      3          6           0        0.612010    0.397584   -0.010463
      4          6           0        1.848682   -0.113986    0.006714
      5          1           0       -2.688201   -0.535677    0.054751
      6          1           0       -2.040296    1.183397    0.027789
      7          1           0       -0.502419   -1.485169   -0.031319
      8          1           0        0.442404    1.488267   -0.058399
      9          1           0        2.024866   -1.172698    0.049483
     10          1           0        2.667651    0.564001    0.061793
 ---------------------------------------------------------------------

 SCF Done:  E(RB2PLYPD3) =  -155.700152219     A.U. after   11 cycles
 E2(B2PLYPD3) =    -0.2256936768D+00 E(B2PLYPD3) =    -0.15592584589615D+03

 The electronic state is 1-A.
 Alpha  occ. eigenvalues --  -10.62776 -10.62477 -10.61426 -10.61312  -0.92843
 Alpha  occ. eigenvalues --   -0.85017  -0.70267  -0.63775  -0.54539  -0.54083
 Alpha  occ. eigenvalues --   -0.46544  -0.45943  -0.41016  -0.38021  -0.27716
 Alpha virt. eigenvalues --    0.01750   0.07025   0.07364   0.08075   0.09604
 Alpha virt. eigenvalues --    0.11682   0.12337   0.14837   0.15764   0.16124
 Alpha virt. eigenvalues --    0.18779   0.20408   0.21699   0.22796   0.23854

 Mulliken charges:
               1
     1  C   -0.175519
     2  C   -0.028252
     3  C   -0.030959
     4  C   -0.179945
     5  H    0.084647
     6  H    0.064551
     7  H    0.052473
     8  H    0.052351
     9  H    0.072512
    10  H    0.088141
 Sum of Mulliken charges =   0.00000

 Dipole moment (field-independent basis, Debye):
    X=             -0.0321    Y=             -0.0121    Z=              0.0709  Tot=              0.0788
 Quadrupole moment (field-independent basis, Debye-Ang):
   XX=            -23.6051   YY=            -22.9869   ZZ=            -29.2773
   XY=             -0.2122   XZ=              0.0464   YZ=             -0.0667

 1\1\GINC-NODE09\SP\RB2PLYPD3-FC\def2QZVP\C4H6\BOITTIER\26-Aug-2020\0\\
 #p B2PLYPD3/Def2QZVP\\butadiene\\0,1\C,0,-3.84077,0.227202,0.036986\C,
 0,-2.723826,-0.499528,0.006626\C,0,-1.38007,0.065872,0.003943\C,0,-0.2
 56124,-0.65987,0.041385\H,0,-4.79431,-0.252903,0.093192\H,0,-3.846576,
 1.318873,0.00928\H,0,-2.816405,-1.584109,0.044548\H,0,-1.350004,1.1669
 88,-0.081456\H,0,-0.273964,-1.730923,0.120549\H,0,0.672071,-0.139567,0
 .075275\\Version=ES64L-G09RevD.01\State=1-A\HF=-155.7001522\MP2=-155.9
 258459\RMSD=4.697e-09\PG=C01 [X(C4H6)]\\@

 Normal termination of Gaussian 09 at Wed Aug 26 10:51:14 2020.
