 Gaussian 09, Revision D.01,
 Gaussian 09:  ES64L-G09RevD.01 24-Apr-2013

 --------------------
 #p B2PLYPD3/Def2QZVP
 --------------------

 ---------
 butadiene
 ---------
 Symbolic Z-matrix:
 Charge =  0 Multiplicity = 1

                         Standard orientation:
 ---------------------------------------------------------------------
 Center     Atomic      Atomic             Coordinates (Angstroms)
 Number     Number       Type             X           Y           Z
 ---------------------------------------------------------------------
      1          6           0        1.860050   -0.120014    0.039880
      2          6           0        0.607341    0.456575   -0.056338
      3          6           0       -0.593557   -0.394646   -0.044470
      4          6           0       -1.842290    0.091066    0.022718
      5          1           0        2.762661    0.439862    0.124040
      6          1           0        1.844135   -1.256096    0.121455
      7          1           0        0.353670    1.478428   -0.236176
      8          1           0       -0.417673   -1.380163   -0.103700
      9          1           0       -2.079033    1.147152    0.322583
     10          1           0       -2.653021   -0.627069    0.001060
 ---------------------------------------------------------------------

 SCF Done:  E(RB2PLYPD3) =  -155.681847927     A.U. after   11 cycles
 E2(B2PLYPD3) =    -0.2274080945D+00 E(B2PLYPD3) =    -0.15590925602101D+03

 The electronic state is 1-A.
 Alpha  occ. eigenvalues --  -10.63224 -10.62905 -10.61937 -10.61754  -0.92687
 Alpha  occ. eigenvalues --   -0.84031  -0.70059  -0.65127  -0.54512  -0.52942
 Alpha  occ. eigenvalues --   -0.47033  -0.45756  -0.41323  -0.37289  -0.27248
 Alpha virt. eigenvalues --    0.01156   0.06999   0.07327   0.08185   0.08848
 Alpha virt. eigenvalues --    0.11733   0.12359   0.14554   0.15289   0.16234
 Alpha virt. eigenvalues --    0.18302   0.20111   0.21386   0.22486   0.24168

 Mulliken charges:
               1
     1  C   -0.178835
     2  C   -0.045378
     3  C   -0.032974
     4  C   -0.181841
     5  H    0.095566
     6  H    0.060519
     7  H    0.068171
     8  H    0.066704
     9  H    0.070493
    10  H    0.077576
 Sum of Mulliken charges =   0.00000

 Dipole moment (field-independent basis, Debye):
    X=              0.0282    Y=             -0.0257    Z=              0.1473  Tot=              0.1521
 Quadrupole moment (field-independent basis, Debye-Ang):
   XX=            -23.9540   YY=            -23.1513   ZZ=            -29.3152
   XY=             -0.1069   XZ=             -0.1125   YZ=              0.1518

 1\1\GINC-NODE13\SP\RB2PLYPD3-FC\def2QZVP\C4H6\BOITTIER\26-Aug-2020\0\\
 #p B2PLYPD3/Def2QZVP\\butadiene\\0,1\C,0,-3.853192,0.251624,0.058338\C
 ,0,-2.729394,-0.549757,-0.018203\C,0,-1.391381,0.063876,-0.025084\C,0,
 -0.254354,-0.643103,0.059276\H,0,-4.843877,-0.128589,0.154417\H,0,-3.6
 26605,1.366804,0.109532\H,0,-2.670045,-1.605398,-0.169775\H,0,-1.38143
 4,1.062957,-0.111259\H,0,-0.217193,-1.716314,0.388092\H,0,0.675517,-0.
 088707,0.021132\\Version=ES64L-G09RevD.01\State=1-A\HF=-155.6818479\MP
 2=-155.909256\RMSD=9.097e-09\PG=C01 [X(C4H6)]\\@

 Normal termination of Gaussian 09 at Wed Aug 26 12:11:46 2020.
