 Gaussian 09, Revision D.01,
 Gaussian 09:  ES64L-G09RevD.01 24-Apr-2013

 --------------------
 #p B2PLYPD3/Def2QZVP
 --------------------

 ---------
 butadiene
 ---------
 Symbolic Z-matrix:
 Charge =  0 Multiplicity = 1

                         Standard orientation:
 ---------------------------------------------------------------------
 Center     Atomic      Atomic             Coordinates (Angstroms)
 Number     Number       Type             X           Y           Z
 ---------------------------------------------------------------------
      1          6           0        1.836563    0.089498    0.008949
      2          6           0        0.594805   -0.382213   -0.030411
      3          6           0       -0.601296    0.418980   -0.015409
      4          6           0       -1.837987   -0.120064    0.019147
      5          1           0        2.747227   -0.524050    0.011217
      6          1           0        2.008121    1.165711    0.107462
      7          1           0        0.455911   -1.451880   -0.013283
      8          1           0       -0.481368    1.485489   -0.053757
      9          1           0       -1.968935   -1.198226    0.063784
     10          1           0       -2.713467    0.485752   -0.009078
 ---------------------------------------------------------------------

 SCF Done:  E(RB2PLYPD3) =  -155.699776438     A.U. after   11 cycles
 E2(B2PLYPD3) =    -0.2259069870D+00 E(B2PLYPD3) =    -0.15592568342458D+03

 The electronic state is 1-A.
 Alpha  occ. eigenvalues --  -10.62584 -10.62241 -10.61668 -10.61663  -0.93177
 Alpha  occ. eigenvalues --   -0.84758  -0.70297  -0.64293  -0.54828  -0.53785
 Alpha  occ. eigenvalues --   -0.46785  -0.45410  -0.41315  -0.38214  -0.27519
 Alpha virt. eigenvalues --    0.01529   0.07014   0.07440   0.08076   0.09625
 Alpha virt. eigenvalues --    0.11648   0.12527   0.14650   0.15849   0.16271
 Alpha virt. eigenvalues --    0.18812   0.20514   0.21642   0.22773   0.23654

 Mulliken charges:
               1
     1  C   -0.172689
     2  C   -0.023235
     3  C   -0.035822
     4  C   -0.176978
     5  H    0.084955
     6  H    0.057745
     7  H    0.053664
     8  H    0.058201
     9  H    0.066175
    10  H    0.087983
 Sum of Mulliken charges =   0.00000

 Dipole moment (field-independent basis, Debye):
    X=             -0.0262    Y=              0.0063    Z=              0.0661  Tot=              0.0714
 Quadrupole moment (field-independent basis, Debye-Ang):
   XX=            -23.3465   YY=            -23.2076   ZZ=            -29.2620
   XY=              0.0695   XZ=              0.1881   YZ=             -0.0259

 1\1\GINC-NODE01\SP\RB2PLYPD3-FC\def2QZVP\C4H6\BOITTIER\26-Aug-2020\0\\
 #p B2PLYPD3/Def2QZVP\\butadiene\\0,1\C,0,-3.843167,0.205558,0.005578\C
 ,0,-2.70755,-0.482392,0.061463\C,0,-1.385958,0.087843,0.029536\C,0,-0.
 267646,-0.667328,0.013276\H,0,-4.850039,-0.232448,0.016293\H,0,-3.8167
 53,1.29206,-0.121647\H,0,-2.765064,-1.559581,0.072805\H,0,-1.310336,1.
 159045,0.039553\H,0,-0.334554,-1.752151,-0.002686\H,0,0.70326,-0.22985
 6,0.028592\\Version=ES64L-G09RevD.01\State=1-A\HF=-155.6997764\MP2=-15
 5.9256834\RMSD=5.692e-09\PG=C01 [X(C4H6)]\\@

 Normal termination of Gaussian 09 at Wed Aug 26 16:26:44 2020.
