 Gaussian 09, Revision D.01,
 Gaussian 09:  ES64L-G09RevD.01 24-Apr-2013

 --------------------
 #p B2PLYPD3/Def2QZVP
 --------------------

 ---------
 butadiene
 ---------
 Symbolic Z-matrix:
 Charge =  0 Multiplicity = 1

                         Standard orientation:
 ---------------------------------------------------------------------
 Center     Atomic      Atomic             Coordinates (Angstroms)
 Number     Number       Type             X           Y           Z
 ---------------------------------------------------------------------
      1          6           0       -1.863315    0.106623   -0.034641
      2          6           0       -0.613611   -0.384174    0.043992
      3          6           0        0.627095    0.396218    0.013881
      4          6           0        1.848703   -0.118518   -0.013116
      5          1           0       -2.760862   -0.553326   -0.037902
      6          1           0       -2.001990    1.183129   -0.074921
      7          1           0       -0.456181   -1.422691    0.122614
      8          1           0        0.531561    1.497285    0.113304
      9          1           0        1.961985   -1.200307   -0.144326
     10          1           0        2.732261    0.495014   -0.039463
 ---------------------------------------------------------------------

 SCF Done:  E(RB2PLYPD3) =  -155.697517610     A.U. after   11 cycles
 E2(B2PLYPD3) =    -0.2259619622D+00 E(B2PLYPD3) =    -0.15592347957260D+03

 The electronic state is 1-A.
 Alpha  occ. eigenvalues --  -10.62752 -10.62512 -10.62168 -10.61551  -0.92800
 Alpha  occ. eigenvalues --   -0.84964  -0.69980  -0.63933  -0.54405  -0.53776
 Alpha  occ. eigenvalues --   -0.47040  -0.45396  -0.40850  -0.37857  -0.27909
 Alpha virt. eigenvalues --    0.01656   0.06979   0.07482   0.07955   0.09590
 Alpha virt. eigenvalues --    0.11634   0.12385   0.14538   0.15773   0.16050
 Alpha virt. eigenvalues --    0.18868   0.20299   0.21376   0.22585   0.23730

 Mulliken charges:
               1
     1  C   -0.174561
     2  C   -0.039766
     3  C   -0.024591
     4  C   -0.175019
     5  H    0.088307
     6  H    0.068208
     7  H    0.058658
     8  H    0.048340
     9  H    0.061273
    10  H    0.089153
 Sum of Mulliken charges =   0.00000

 Dipole moment (field-independent basis, Debye):
    X=              0.0315    Y=             -0.0065    Z=             -0.0253  Tot=              0.0409
 Quadrupole moment (field-independent basis, Debye-Ang):
   XX=            -23.3615   YY=            -23.2777   ZZ=            -29.2905
   XY=              0.0801   XZ=             -0.1166   YZ=              0.0872

 1\1\GINC-NODE16\SP\RB2PLYPD3-FC\def2QZVP\C4H6\BOITTIER\26-Aug-2020\0\\
 #p B2PLYPD3/Def2QZVP\\butadiene\\0,1\C,0,-3.868403,0.213824,-0.013746\
 C,0,-2.723044,-0.485432,0.075808\C,0,-1.365485,0.066156,0.030504\C,0,-
 0.25227,-0.653926,0.014923\H,0,-4.86717,-0.279636,-0.00405\H,0,-3.8176
 01,1.296982,-0.076241\H,0,-2.74865,-1.533676,0.175869\H,0,-1.267517,1.
 168825,0.107207\H,0,-0.329495,-1.741354,-0.093944\H,0,0.724553,-0.2043
 3,-0.02343\\Version=ES64L-G09RevD.01\State=1-A\HF=-155.6975176\MP2=-15
 5.9234796\RMSD=6.737e-09\PG=C01 [X(C4H6)]\\@

 Normal termination of Gaussian 09 at Wed Aug 26 09:01:29 2020.
