 Gaussian 09, Revision D.01,
 Gaussian 09:  ES64L-G09RevD.01 24-Apr-2013

 --------------------
 #p B2PLYPD3/Def2QZVP
 --------------------

 ---------
 butadiene
 ---------
 Symbolic Z-matrix:
 Charge =  0 Multiplicity = 1

                         Standard orientation:
 ---------------------------------------------------------------------
 Center     Atomic      Atomic             Coordinates (Angstroms)
 Number     Number       Type             X           Y           Z
 ---------------------------------------------------------------------
      1          6           0       -1.831236   -0.133928   -0.042808
      2          6           0       -0.609259    0.417649    0.069627
      3          6           0        0.604867   -0.373095    0.028417
      4          6           0        1.837792    0.101238   -0.021595
      5          1           0       -2.685137    0.496763   -0.059919
      6          1           0       -1.965688   -1.204115   -0.024453
      7          1           0       -0.598660    1.531136   -0.016836
      8          1           0        0.445717   -1.476079    0.033565
      9          1           0        2.070347    1.148235   -0.077306
     10          1           0        2.720440   -0.567120   -0.056893
 ---------------------------------------------------------------------

 SCF Done:  E(RB2PLYPD3) =  -155.696376908     A.U. after   11 cycles
 E2(B2PLYPD3) =    -0.2260922548D+00 E(B2PLYPD3) =    -0.15592246916286D+03

 The electronic state is 1-A.
 Alpha  occ. eigenvalues --  -10.62908 -10.62750 -10.61474 -10.61408  -0.92960
 Alpha  occ. eigenvalues --   -0.85038  -0.70069  -0.63528  -0.54812  -0.53765
 Alpha  occ. eigenvalues --   -0.46437  -0.45201  -0.40977  -0.38220  -0.27728
 Alpha virt. eigenvalues --    0.01704   0.07015   0.07316   0.07904   0.09586
 Alpha virt. eigenvalues --    0.11633   0.12368   0.14724   0.15677   0.16328
 Alpha virt. eigenvalues --    0.18810   0.19896   0.21952   0.22698   0.23808

 Mulliken charges:
               1
     1  C   -0.173833
     2  C   -0.030975
     3  C   -0.027281
     4  C   -0.171878
     5  H    0.084795
     6  H    0.066070
     7  H    0.052746
     8  H    0.050906
     9  H    0.069006
    10  H    0.080443
 Sum of Mulliken charges =   0.00000

 Dipole moment (field-independent basis, Debye):
    X=             -0.0529    Y=              0.0230    Z=             -0.1177  Tot=              0.1310
 Quadrupole moment (field-independent basis, Debye-Ang):
   XX=            -23.4874   YY=            -23.0927   ZZ=            -29.2970
   XY=              0.0750   XZ=             -0.0409   YZ=             -0.1528

 1\1\GINC-NODE11\SP\RB2PLYPD3-FC\def2QZVP\C4H6\BOITTIER\26-Aug-2020\0\\
 #p B2PLYPD3/Def2QZVP\\butadiene\\0,1\C,0,-3.830667,0.242602,0.061578\C
 ,0,-2.725666,-0.519733,-0.027442\C,0,-1.39089,0.045253,-0.011982\C,0,-
 0.260849,-0.63712,0.058542\H,0,-4.782402,-0.226412,0.099492\H,0,-3.774
 201,1.318328,0.003786\H,0,-2.911418,-1.613708,0.09967\H,0,-1.352894,1.
 158079,-0.057839\H,0,-0.216515,-1.705991,0.153073\H,0,0.726032,-0.1342
 21,0.0717\\Version=ES64L-G09RevD.01\State=1-A\HF=-155.6963769\MP2=-155
 .9224692\RMSD=6.766e-09\PG=C01 [X(C4H6)]\\@

 Normal termination of Gaussian 09 at Wed Aug 26 10:25:40 2020.
