 Gaussian 09, Revision D.01,
 Gaussian 09:  ES64L-G09RevD.01 24-Apr-2013

 --------------------
 #p B2PLYPD3/Def2QZVP
 --------------------

 ---------
 butadiene
 ---------
 Symbolic Z-matrix:
 Charge =  0 Multiplicity = 1

                         Standard orientation:
 ---------------------------------------------------------------------
 Center     Atomic      Atomic             Coordinates (Angstroms)
 Number     Number       Type             X           Y           Z
 ---------------------------------------------------------------------
      1          6           0       -1.845799   -0.129349   -0.055498
      2          6           0       -0.608104    0.412238    0.032869
      3          6           0        0.604953   -0.367145    0.023899
      4          6           0        1.856499    0.088029   -0.036075
      5          1           0       -2.712797    0.523813    0.010685
      6          1           0       -2.043559   -1.175923   -0.021935
      7          1           0       -0.444421    1.517667    0.181248
      8          1           0        0.440145   -1.453920    0.134005
      9          1           0        2.031793    1.169372   -0.125072
     10          1           0        2.683549   -0.603642    0.029900
 ---------------------------------------------------------------------

 SCF Done:  E(RB2PLYPD3) =  -155.695547040     A.U. after   11 cycles
 E2(B2PLYPD3) =    -0.2266122561D+00 E(B2PLYPD3) =    -0.15592215929646D+03

 The electronic state is 1-A.
 Alpha  occ. eigenvalues --  -10.63325 -10.62452 -10.61913 -10.61688  -0.92874
 Alpha  occ. eigenvalues --   -0.84728  -0.70527  -0.63286  -0.54569  -0.53566
 Alpha  occ. eigenvalues --   -0.47018  -0.45523  -0.40869  -0.37730  -0.27627
 Alpha virt. eigenvalues --    0.01281   0.07024   0.07248   0.07932   0.09696
 Alpha virt. eigenvalues --    0.11637   0.12294   0.14816   0.15734   0.15940
 Alpha virt. eigenvalues --    0.18851   0.20349   0.21347   0.22446   0.23738

 Mulliken charges:
               1
     1  C   -0.174274
     2  C   -0.038412
     3  C   -0.014064
     4  C   -0.184841
     5  H    0.082600
     6  H    0.073055
     7  H    0.051482
     8  H    0.045773
     9  H    0.065602
    10  H    0.093080
 Sum of Mulliken charges =   0.00000

 Dipole moment (field-independent basis, Debye):
    X=             -0.0419    Y=             -0.0400    Z=              0.2185  Tot=              0.2261
 Quadrupole moment (field-independent basis, Debye-Ang):
   XX=            -23.5607   YY=            -23.1956   ZZ=            -29.3349
   XY=              0.2744   XZ=             -0.1696   YZ=             -0.0735

 1\1\GINC-NODE25\SP\RB2PLYPD3-FC\def2QZVP\C4H6\BOITTIER\26-Aug-2020\0\\
 #p B2PLYPD3/Def2QZVP\\butadiene\\0,1\C,0,-3.844036,0.249892,0.064917\C
 ,0,-2.725839,-0.510416,-0.002774\C,0,-1.391122,0.034977,-0.012943\C,0,
 -0.243273,-0.638447,0.065093\H,0,-4.81561,-0.236185,0.015327\H,0,-3.84
 7973,1.313481,-0.000769\H,0,-2.766491,-1.631136,-0.117299\H,0,-1.35549
 1,1.129766,-0.156228\H,0,-0.267646,-1.730445,0.187153\H,0,0.695769,-0.
 111238,-0.018713\\Version=ES64L-G09RevD.01\State=1-A\HF=-155.695547\MP
 2=-155.9221593\RMSD=8.643e-09\PG=C01 [X(C4H6)]\\@

 Normal termination of Gaussian 09 at Wed Aug 26 10:48:13 2020.
