 Gaussian 09, Revision D.01,
 Gaussian 09:  ES64L-G09RevD.01 24-Apr-2013

 --------------------
 #p B2PLYPD3/Def2QZVP
 --------------------

 ---------
 butadiene
 ---------
 Symbolic Z-matrix:
 Charge =  0 Multiplicity = 1

                         Standard orientation:
 ---------------------------------------------------------------------
 Center     Atomic      Atomic             Coordinates (Angstroms)
 Number     Number       Type             X           Y           Z
 ---------------------------------------------------------------------
      1          6           0       -1.874613   -0.116328   -0.031390
      2          6           0       -0.624601    0.412427    0.051369
      3          6           0        0.613688   -0.417814    0.105119
      4          6           0        1.854698    0.134456   -0.079969
      5          1           0       -2.756094    0.494397   -0.113395
      6          1           0       -1.854807   -1.215530   -0.024456
      7          1           0       -0.502599    1.499815   -0.054705
      8          1           0        0.473262   -1.433915   -0.101941
      9          1           0        2.078265    1.151601    0.089776
     10          1           0        2.746937   -0.572816   -0.066045
 ---------------------------------------------------------------------

 SCF Done:  E(RB2PLYPD3) =  -155.682934844     A.U. after   11 cycles
 E2(B2PLYPD3) =    -0.2280434143D+00 E(B2PLYPD3) =    -0.15591097825837D+03

 The electronic state is 1-A.
 Alpha  occ. eigenvalues --  -10.63274 -10.63222 -10.62563 -10.62017  -0.92144
 Alpha  occ. eigenvalues --   -0.84311  -0.69759  -0.64364  -0.54687  -0.52751
 Alpha  occ. eigenvalues --   -0.47210  -0.44580  -0.41415  -0.37210  -0.27536
 Alpha virt. eigenvalues --    0.00981   0.06989   0.07500   0.07952   0.08448
 Alpha virt. eigenvalues --    0.11755   0.12444   0.14446   0.15348   0.15892
 Alpha virt. eigenvalues --    0.18405   0.19598   0.21744   0.23731   0.24287

 Mulliken charges:
               1
     1  C   -0.183815
     2  C   -0.028210
     3  C   -0.053118
     4  C   -0.166951
     5  H    0.099021
     6  H    0.061230
     7  H    0.052700
     8  H    0.071727
     9  H    0.078736
    10  H    0.068681
 Sum of Mulliken charges =   0.00000

 Dipole moment (field-independent basis, Debye):
    X=              0.0328    Y=              0.0647    Z=             -0.1318  Tot=              0.1504
 Quadrupole moment (field-independent basis, Debye-Ang):
   XX=            -23.7426   YY=            -23.1684   ZZ=            -29.5107
   XY=             -0.0570   XZ=              0.3935   YZ=              0.1815

 1\1\GINC-NODE10\SP\RB2PLYPD3-FC\def2QZVP\C4H6\BOITTIER\26-Aug-2020\0\\
 #p B2PLYPD3/Def2QZVP\\butadiene\\0,1\C,0,-3.874714,0.224864,0.062587\C
 ,0,-2.735196,-0.513196,-0.013089\C,0,-1.372362,0.089617,-0.08271\C,0,-
 0.244596,-0.665656,0.109833\H,0,-4.848066,-0.222949,0.156217\H,0,-3.66
 5374,1.30385,0.037048\H,0,-2.802385,-1.603423,0.111165\H,0,-1.334258,1
 .117954,0.107357\H,0,-0.200826,-1.708775,-0.043031\H,0,0.756327,-0.123
 504,0.082627\\Version=ES64L-G09RevD.01\State=1-A\HF=-155.6829348\MP2=-
 155.9109783\RMSD=9.133e-09\PG=C01 [X(C4H6)]\\@

 Normal termination of Gaussian 09 at Wed Aug 26 12:54:03 2020.
