 Gaussian 09, Revision D.01,
 Gaussian 09:  ES64L-G09RevD.01 24-Apr-2013

 --------------------
 #p B2PLYPD3/Def2QZVP
 --------------------

 ---------
 butadiene
 ---------
 Symbolic Z-matrix:
 Charge =  0 Multiplicity = 1

                         Standard orientation:
 ---------------------------------------------------------------------
 Center     Atomic      Atomic             Coordinates (Angstroms)
 Number     Number       Type             X           Y           Z
 ---------------------------------------------------------------------
      1          6           0        1.830165    0.100068    0.033388
      2          6           0        0.583588   -0.369784   -0.046404
      3          6           0       -0.602252    0.407118   -0.032944
      4          6           0       -1.817808   -0.117450    0.016241
      5          1           0        2.702290   -0.570014    0.145146
      6          1           0        2.060640    1.128014    0.014993
      7          1           0        0.423869   -1.454607   -0.153854
      8          1           0       -0.518252    1.498106   -0.062018
      9          1           0       -1.907192   -1.187359    0.124132
     10          1           0       -2.723516    0.466148    0.109919
 ---------------------------------------------------------------------

 SCF Done:  E(RB2PLYPD3) =  -155.697204808     A.U. after   11 cycles
 E2(B2PLYPD3) =    -0.2257375345D+00 E(B2PLYPD3) =    -0.15592294234246D+03

 The electronic state is 1-A.
 Alpha  occ. eigenvalues --  -10.62453 -10.62156 -10.61457 -10.61297  -0.93675
 Alpha  occ. eigenvalues --   -0.85029  -0.70532  -0.64018  -0.55019  -0.53949
 Alpha  occ. eigenvalues --   -0.46758  -0.45305  -0.41357  -0.38376  -0.27561
 Alpha virt. eigenvalues --    0.01558   0.07007   0.07435   0.07958   0.09799
 Alpha virt. eigenvalues --    0.11689   0.12581   0.14763   0.15753   0.16238
 Alpha virt. eigenvalues --    0.18749   0.20444   0.21770   0.22556   0.23639

 Mulliken charges:
               1
     1  C   -0.180130
     2  C   -0.026600
     3  C   -0.023161
     4  C   -0.170157
     5  H    0.081417
     6  H    0.070269
     7  H    0.053250
     8  H    0.051176
     9  H    0.058777
    10  H    0.085160
 Sum of Mulliken charges =   0.00000

 Dipole moment (field-independent basis, Debye):
    X=             -0.0233    Y=              0.0519    Z=              0.1132  Tot=              0.1267
 Quadrupole moment (field-independent basis, Debye-Ang):
   XX=            -23.4323   YY=            -23.2876   ZZ=            -29.1058
   XY=              0.1059   XZ=             -0.1450   YZ=             -0.0666

 1\1\GINC-NODE38\SP\RB2PLYPD3-FC\def2QZVP\C4H6\BOITTIER\26-Aug-2020\0\\
 #p B2PLYPD3/Def2QZVP\\butadiene\\0,1\C,0,-3.835093,0.2128,-0.015034\C,
 0,-2.694182,-0.473512,0.076506\C,0,-1.38712,0.074781,0.045878\C,0,-0.2
 87095,-0.662651,0.009721\H,0,-4.814708,-0.290274,-0.111845\H,0,-3.8751
 69,1.26565,-0.020632\H,0,-2.733564,-1.566555,0.209184\H,0,-1.271677,1.
 163273,0.049598\H,0,-0.393696,-1.733204,-0.073279\H,0,0.709132,-0.2554
 05,-0.09682\\Version=ES64L-G09RevD.01\State=1-A\HF=-155.6972048\MP2=-1
 55.9229423\RMSD=3.687e-09\PG=C01 [X(C4H6)]\\@

 Normal termination of Gaussian 09 at Wed Aug 26 10:09:49 2020.
