 Gaussian 09, Revision D.01,
 Gaussian 09:  ES64L-G09RevD.01 24-Apr-2013

 --------------------
 #p B2PLYPD3/Def2QZVP
 --------------------

 ---------
 butadiene
 ---------
 Symbolic Z-matrix:
 Charge =  0 Multiplicity = 1

                         Standard orientation:
 ---------------------------------------------------------------------
 Center     Atomic      Atomic             Coordinates (Angstroms)
 Number     Number       Type             X           Y           Z
 ---------------------------------------------------------------------
      1          6           0        1.851475    0.107404    0.012993
      2          6           0        0.604692   -0.407788    0.004151
      3          6           0       -0.608793    0.377639   -0.022987
      4          6           0       -1.864560   -0.103609   -0.010521
      5          1           0        2.796220   -0.474323   -0.081432
      6          1           0        2.015902    1.186779    0.077276
      7          1           0        0.478740   -1.483145   -0.040869
      8          1           0       -0.434733    1.484060    0.013293
      9          1           0       -2.072409   -1.138797    0.138856
     10          1           0       -2.680607    0.583548   -0.008942
 ---------------------------------------------------------------------

 SCF Done:  E(RB2PLYPD3) =  -155.696107350     A.U. after   11 cycles
 E2(B2PLYPD3) =    -0.2266309038D+00 E(B2PLYPD3) =    -0.15592273825357D+03

 The electronic state is 1-A.
 Alpha  occ. eigenvalues --  -10.63082 -10.62834 -10.62377 -10.61457  -0.92780
 Alpha  occ. eigenvalues --   -0.84634  -0.70502  -0.63749  -0.54572  -0.53700
 Alpha  occ. eigenvalues --   -0.46837  -0.45428  -0.40948  -0.37962  -0.27494
 Alpha virt. eigenvalues --    0.01165   0.06948   0.07407   0.07985   0.09558
 Alpha virt. eigenvalues --    0.11579   0.12433   0.14722   0.15805   0.16173
 Alpha virt. eigenvalues --    0.18876   0.20482   0.21627   0.22691   0.23438

 Mulliken charges:
               1
     1  C   -0.169052
     2  C   -0.032238
     3  C   -0.025946
     4  C   -0.179433
     5  H    0.084122
     6  H    0.059912
     7  H    0.056118
     8  H    0.047065
     9  H    0.071419
    10  H    0.088035
 Sum of Mulliken charges =   0.00000

 Dipole moment (field-independent basis, Debye):
    X=              0.0381    Y=             -0.0035    Z=              0.0889  Tot=              0.0968
 Quadrupole moment (field-independent basis, Debye-Ang):
   XX=            -23.2374   YY=            -23.3177   ZZ=            -29.3612
   XY=              0.2582   XZ=             -0.4401   YZ=              0.0427

 1\1\GINC-NODE38\SP\RB2PLYPD3-FC\def2QZVP\C4H6\BOITTIER\26-Aug-2020\0\\
 #p B2PLYPD3/Def2QZVP\\butadiene\\0,1\C,0,-3.854986,0.22861,0.009195\C,
 0,-2.722119,-0.503497,0.033684\C,0,-1.386266,0.04938,0.032368\C,0,-0.2
 38577,-0.651698,0.034396\H,0,-4.888731,-0.168752,0.124696\H,0,-3.82166
 ,1.317178,-0.091441\H,0,-2.792701,-1.581779,0.114989\H,0,-1.357301,1.1
 67205,-0.041186\H,0,-0.22282,-1.711783,-0.080068\H,0,0.688406,-0.12430
 7,0.008298\\Version=ES64L-G09RevD.01\State=1-A\HF=-155.6961073\MP2=-15
 5.9227383\RMSD=3.835e-09\PG=C01 [X(C4H6)]\\@

 Normal termination of Gaussian 09 at Wed Aug 26 08:44:49 2020.
