 Gaussian 09, Revision D.01,
 Gaussian 09:  ES64L-G09RevD.01 24-Apr-2013

 --------------------
 #p B2PLYPD3/Def2QZVP
 --------------------

 ---------
 butadiene
 ---------
 Symbolic Z-matrix:
 Charge =  0 Multiplicity = 1

                         Standard orientation:
 ---------------------------------------------------------------------
 Center     Atomic      Atomic             Coordinates (Angstroms)
 Number     Number       Type             X           Y           Z
 ---------------------------------------------------------------------
      1          6           0        1.857681   -0.091032    0.040870
      2          6           0        0.602359    0.360927   -0.025874
      3          6           0       -0.623538   -0.426065   -0.073191
      4          6           0       -1.850493    0.129783    0.001768
      5          1           0        2.639938    0.550606    0.140298
      6          1           0        2.158125   -1.141708   -0.002310
      7          1           0        0.458448    1.478652   -0.111244
      8          1           0       -0.588909   -1.532765   -0.046307
      9          1           0       -1.805684    1.253977    0.038026
     10          1           0       -2.777967   -0.450438    0.320098
 ---------------------------------------------------------------------

 SCF Done:  E(RB2PLYPD3) =  -155.683879249     A.U. after   11 cycles
 E2(B2PLYPD3) =    -0.2273067173D+00 E(B2PLYPD3) =    -0.15591118596643D+03

 The electronic state is 1-A.
 Alpha  occ. eigenvalues --  -10.63398 -10.63154 -10.62792 -10.61081  -0.92726
 Alpha  occ. eigenvalues --   -0.84939  -0.70011  -0.63185  -0.54731  -0.53454
 Alpha  occ. eigenvalues --   -0.46601  -0.44589  -0.41171  -0.37787  -0.27651
 Alpha virt. eigenvalues --    0.01247   0.06940   0.07294   0.07800   0.09363
 Alpha virt. eigenvalues --    0.11512   0.12571   0.14409   0.15673   0.16060
 Alpha virt. eigenvalues --    0.18844   0.20143   0.21238   0.22657   0.23625

 Mulliken charges:
               1
     1  C   -0.175801
     2  C   -0.031866
     3  C   -0.028508
     4  C   -0.160731
     5  H    0.088873
     6  H    0.066264
     7  H    0.045348
     8  H    0.055985
     9  H    0.051772
    10  H    0.088664
 Sum of Mulliken charges =   0.00000

 Dipole moment (field-independent basis, Debye):
    X=              0.1090    Y=             -0.0700    Z=              0.2553  Tot=              0.2863
 Quadrupole moment (field-independent basis, Debye-Ang):
   XX=            -23.5653   YY=            -23.3567   ZZ=            -29.3030
   XY=              0.2171   XZ=             -0.7511   YZ=             -0.1418

 1\1\GINC-NODE40\SP\RB2PLYPD3-FC\def2QZVP\C4H6\BOITTIER\26-Aug-2020\0\\
 #p B2PLYPD3/Def2QZVP\\butadiene\\0,1\C,0,-3.867662,0.198187,0.05616\C,
 0,-2.710548,-0.467824,0.010635\C,0,-1.365823,0.091256,-0.049061\C,0,-0
 .255138,-0.668112,0.049656\H,0,-4.750291,-0.293895,0.167218\H,0,-3.979
 666,1.283583,-0.017468\H,0,-2.764085,-1.595434,-0.043555\H,0,-1.206477
 ,1.187296,-0.052253\H,0,-0.495906,-1.765737,0.115866\H,0,0.758744,-0.2
 50244,0.358892\\Version=ES64L-G09RevD.01\State=1-A\HF=-155.6838792\MP2
 =-155.911186\RMSD=7.880e-09\PG=C01 [X(C4H6)]\\@

 Normal termination of Gaussian 09 at Wed Aug 26 11:43:24 2020.
