 Gaussian 09, Revision D.01,
 Gaussian 09:  ES64L-G09RevD.01 24-Apr-2013

 --------------------
 #p B2PLYPD3/Def2QZVP
 --------------------

 ---------
 butadiene
 ---------
 Symbolic Z-matrix:
 Charge =  0 Multiplicity = 1

                         Standard orientation:
 ---------------------------------------------------------------------
 Center     Atomic      Atomic             Coordinates (Angstroms)
 Number     Number       Type             X           Y           Z
 ---------------------------------------------------------------------
      1          6           0        1.843555    0.112956   -0.012620
      2          6           0        0.611050   -0.398454    0.021048
      3          6           0       -0.611757    0.411837    0.001909
      4          6           0       -1.847291   -0.119096   -0.025307
      5          1           0        2.702531   -0.564059   -0.022299
      6          1           0        2.022724    1.160142   -0.041101
      7          1           0        0.489759   -1.454455    0.049929
      8          1           0       -0.459937    1.479342    0.085077
      9          1           0       -2.012948   -1.182519   -0.005000
     10          1           0       -2.715465    0.518081    0.023217
 ---------------------------------------------------------------------

 SCF Done:  E(RB2PLYPD3) =  -155.700257289     A.U. after   11 cycles
 E2(B2PLYPD3) =    -0.2256406865D+00 E(B2PLYPD3) =    -0.15592589797593D+03

 The electronic state is 1-A.
 Alpha  occ. eigenvalues --  -10.62747 -10.62280 -10.61586 -10.61373  -0.92755
 Alpha  occ. eigenvalues --   -0.84856  -0.70114  -0.64472  -0.54255  -0.54179
 Alpha  occ. eigenvalues --   -0.46626  -0.46159  -0.41201  -0.37808  -0.27671
 Alpha virt. eigenvalues --    0.01733   0.06994   0.07497   0.08094   0.09447
 Alpha virt. eigenvalues --    0.11725   0.12393   0.14797   0.15812   0.16078
 Alpha virt. eigenvalues --    0.18814   0.20500   0.21562   0.22960   0.23914

 Mulliken charges:
               1
     1  C   -0.178289
     2  C   -0.029891
     3  C   -0.038651
     4  C   -0.176649
     5  H    0.082807
     6  H    0.069747
     7  H    0.058630
     8  H    0.058531
     9  H    0.069060
    10  H    0.084704
 Sum of Mulliken charges =   0.00000

 Dipole moment (field-independent basis, Debye):
    X=             -0.0024    Y=             -0.0078    Z=              0.0969  Tot=              0.0972
 Quadrupole moment (field-independent basis, Debye-Ang):
   XX=            -23.6022   YY=            -22.9781   ZZ=            -29.2855
   XY=              0.2220   XZ=             -0.2528   YZ=              0.0399

 1\1\GINC-NODE34\SP\RB2PLYPD3-FC\def2QZVP\C4H6\BOITTIER\26-Aug-2020\0\\
 #p B2PLYPD3/Def2QZVP\\butadiene\\0,1\C,0,-3.846358,0.225561,0.031813\C
 ,0,-2.725353,-0.49887,0.014741\C,0,-1.377297,0.079823,0.007325\C,0,-0.
 256442,-0.662394,0.051741\H,0,-4.812454,-0.286228,0.063651\H,0,-3.8352
 64,1.288272,0.026127\H,0,-2.79497,-1.55991,0.02032\H,0,-1.336324,1.154
 041,-0.110616\H,0,-0.283685,-1.738393,0.066128\H,0,0.711351,-0.192672,
 -0.017623\\Version=ES64L-G09RevD.01\State=1-A\HF=-155.7002573\MP2=-155
 .925898\RMSD=4.392e-09\PG=C01 [X(C4H6)]\\@

 Normal termination of Gaussian 09 at Wed Aug 26 16:17:21 2020.
