 Gaussian 09, Revision D.01,
 Gaussian 09:  ES64L-G09RevD.01 24-Apr-2013

 --------------------
 #p B2PLYPD3/Def2QZVP
 --------------------

 ---------
 butadiene
 ---------
 Symbolic Z-matrix:
 Charge =  0 Multiplicity = 1

                         Standard orientation:
 ---------------------------------------------------------------------
 Center     Atomic      Atomic             Coordinates (Angstroms)
 Number     Number       Type             X           Y           Z
 ---------------------------------------------------------------------
      1          6           0        1.869245    0.049390   -0.095453
      2          6           0        0.619918   -0.342100    0.115615
      3          6           0       -0.625606    0.432798    0.065121
      4          6           0       -1.880609   -0.134838   -0.062000
      5          1           0        2.829544   -0.497687   -0.085278
      6          1           0        2.061629    1.130801   -0.013438
      7          1           0        0.420919   -1.440634    0.079413
      8          1           0       -0.457218    1.482316    0.064689
      9          1           0       -2.066822   -1.154020   -0.075210
     10          1           0       -2.685742    0.447727   -0.109871
 ---------------------------------------------------------------------

 SCF Done:  E(RB2PLYPD3) =  -155.679624756     A.U. after   12 cycles
 E2(B2PLYPD3) =    -0.2268438763D+00 E(B2PLYPD3) =    -0.15590646863222D+03

 The electronic state is 1-A.
 Alpha  occ. eigenvalues --  -10.63601 -10.62971 -10.62044 -10.61274  -0.92482
 Alpha  occ. eigenvalues --   -0.84907  -0.71713  -0.64069  -0.55517  -0.53298
 Alpha  occ. eigenvalues --   -0.47935  -0.46121  -0.39747  -0.37683  -0.27691
 Alpha virt. eigenvalues --    0.00816   0.06973   0.07542   0.08248   0.09366
 Alpha virt. eigenvalues --    0.11464   0.12702   0.14600   0.15605   0.16588
 Alpha virt. eigenvalues --    0.19149   0.19791   0.22301   0.22673   0.23615

 Mulliken charges:
               1
     1  C   -0.156112
     2  C   -0.021669
     3  C   -0.047014
     4  C   -0.172882
     5  H    0.085617
     6  H    0.043379
     7  H    0.044134
     8  H    0.059610
     9  H    0.073755
    10  H    0.091183
 Sum of Mulliken charges =   0.00000

 Dipole moment (field-independent basis, Debye):
    X=             -0.0742    Y=              0.0251    Z=             -0.0082  Tot=              0.0787
 Quadrupole moment (field-independent basis, Debye-Ang):
   XX=            -22.5180   YY=            -23.6746   ZZ=            -29.2993
   XY=              0.3839   XZ=              0.2193   YZ=              0.1229

 1\1\GINC-NODE26\SP\RB2PLYPD3-FC\def2QZVP\C4H6\BOITTIER\26-Aug-2020\0\\
 #p B2PLYPD3/Def2QZVP\\butadiene\\0,1\C,0,-3.883105,0.178375,0.112974\C
 ,0,-2.726909,-0.443938,-0.072958\C,0,-1.361092,0.093341,-0.058161\C,0,
 -0.229332,-0.685516,0.102791\H,0,-4.926834,-0.18492,0.127671\H,0,-3.87
 6362,1.271039,-0.025692\H,0,-2.730524,-1.556985,0.020869\H,0,-1.336064
 ,1.154584,-0.112751\H,0,-0.231243,-1.719502,0.169497\H,0,0.66848,-0.25
 7235,0.123333\\Version=ES64L-G09RevD.01\State=1-A\HF=-155.6796248\MP2=
 -155.9064686\RMSD=4.389e-09\PG=C01 [X(C4H6)]\\@

 Normal termination of Gaussian 09 at Wed Aug 26 14:39:15 2020.
