 Gaussian 09, Revision D.01,
 Gaussian 09:  ES64L-G09RevD.01 24-Apr-2013

 --------------------
 #p B2PLYPD3/Def2QZVP
 --------------------

 ---------
 butadiene
 ---------
 Symbolic Z-matrix:
 Charge =  0 Multiplicity = 1

                         Standard orientation:
 ---------------------------------------------------------------------
 Center     Atomic      Atomic             Coordinates (Angstroms)
 Number     Number       Type             X           Y           Z
 ---------------------------------------------------------------------
      1          6           0       -1.835272    0.116471    0.027558
      2          6           0       -0.595985   -0.420753   -0.028765
      3          6           0        0.598365    0.397821   -0.027318
      4          6           0        1.831232   -0.107412    0.017399
      5          1           0       -2.717274   -0.514912    0.070792
      6          1           0       -1.980527    1.196422   -0.030659
      7          1           0       -0.444460   -1.468082   -0.058912
      8          1           0        0.454022    1.468619   -0.005132
      9          1           0        2.007906   -1.160555    0.041922
     10          1           0        2.690299    0.561747    0.048737
 ---------------------------------------------------------------------

 SCF Done:  E(RB2PLYPD3) =  -155.699898792     A.U. after   11 cycles
 E2(B2PLYPD3) =    -0.2259196101D+00 E(B2PLYPD3) =    -0.15592581840191D+03

 The electronic state is 1-A.
 Alpha  occ. eigenvalues --  -10.62440 -10.62266 -10.61879 -10.61317  -0.93076
 Alpha  occ. eigenvalues --   -0.84639  -0.70118  -0.64556  -0.54349  -0.54027
 Alpha  occ. eigenvalues --   -0.46442  -0.45969  -0.41492  -0.38056  -0.27427
 Alpha virt. eigenvalues --    0.01637   0.07002   0.07437   0.08117   0.09437
 Alpha virt. eigenvalues --    0.11758   0.12410   0.14775   0.15808   0.16133
 Alpha virt. eigenvalues --    0.18691   0.20456   0.21581   0.23081   0.23952

 Mulliken charges:
               1
     1  C   -0.178040
     2  C   -0.039535
     3  C   -0.022051
     4  C   -0.181098
     5  H    0.084567
     6  H    0.068329
     7  H    0.061073
     8  H    0.055287
     9  H    0.068059
    10  H    0.083409
 Sum of Mulliken charges =   0.00000

 Dipole moment (field-independent basis, Debye):
    X=             -0.0019    Y=             -0.0202    Z=              0.0194  Tot=              0.0281
 Quadrupole moment (field-independent basis, Debye-Ang):
   XX=            -23.7191   YY=            -22.9625   ZZ=            -29.2924
   XY=             -0.1952   XZ=              0.1072   YZ=             -0.0381

 1\1\GINC-NODE24\SP\RB2PLYPD3-FC\def2QZVP\C4H6\BOITTIER\26-Aug-2020\0\\
 #p B2PLYPD3/Def2QZVP\\butadiene\\0,1\C,0,-3.834646,0.236731,0.044898\C
 ,0,-2.714467,-0.519204,0.007822\C,0,-1.390708,0.067165,-0.011455\C,0,-
 0.270733,-0.65319,0.051507\H,0,-4.817006,-0.221408,0.104207\H,0,-3.780
 38,1.322863,-0.045416\H,0,-2.756843,-1.577018,0.00887\H,0,-1.337006,1.
 146497,-0.02113\H,0,-0.289301,-1.719704,0.107442\H,0,0.696174,-0.15154
 7,0.065564\\Version=ES64L-G09RevD.01\State=1-A\HF=-155.6998988\MP2=-15
 5.9258184\RMSD=5.886e-09\PG=C01 [X(C4H6)]\\@

 Normal termination of Gaussian 09 at Wed Aug 26 20:21:12 2020.
