 Gaussian 09, Revision D.01,
 Gaussian 09:  ES64L-G09RevD.01 24-Apr-2013

 --------------------
 #p B2PLYPD3/Def2QZVP
 --------------------

 ---------
 butadiene
 ---------
 Symbolic Z-matrix:
 Charge =  0 Multiplicity = 1

                         Standard orientation:
 ---------------------------------------------------------------------
 Center     Atomic      Atomic             Coordinates (Angstroms)
 Number     Number       Type             X           Y           Z
 ---------------------------------------------------------------------
      1          6           0        1.846875   -0.106287   -0.005779
      2          6           0        0.604332    0.400284    0.017934
      3          6           0       -0.616362   -0.411439    0.002805
      4          6           0       -1.844406    0.109929   -0.013699
      5          1           0        2.710553    0.508745   -0.024850
      6          1           0        2.058641   -1.159931   -0.077664
      7          1           0        0.490838    1.490674    0.050871
      8          1           0       -0.471687   -1.472126    0.093590
      9          1           0       -2.000925    1.171722   -0.042476
     10          1           0       -2.730051   -0.494012   -0.007035
 ---------------------------------------------------------------------

 SCF Done:  E(RB2PLYPD3) =  -155.700475017     A.U. after   11 cycles
 E2(B2PLYPD3) =    -0.2255418926D+00 E(B2PLYPD3) =    -0.15592601690959D+03

 The electronic state is 1-A.
 Alpha  occ. eigenvalues --  -10.62867 -10.62576 -10.61360 -10.61292  -0.92725
 Alpha  occ. eigenvalues --   -0.84929  -0.70402  -0.64227  -0.54887  -0.53881
 Alpha  occ. eigenvalues --   -0.46971  -0.45654  -0.41146  -0.37878  -0.27713
 Alpha virt. eigenvalues --    0.01726   0.07044   0.07474   0.08112   0.09451
 Alpha virt. eigenvalues --    0.11615   0.12557   0.14720   0.15808   0.16298
 Alpha virt. eigenvalues --    0.18884   0.20483   0.21886   0.22866   0.23625

 Mulliken charges:
               1
     1  C   -0.174604
     2  C   -0.033225
     3  C   -0.035377
     4  C   -0.172436
     5  H    0.084013
     6  H    0.063327
     7  H    0.054834
     8  H    0.061937
     9  H    0.066040
    10  H    0.085491
 Sum of Mulliken charges =   0.00000

 Dipole moment (field-independent basis, Debye):
    X=             -0.0108    Y=             -0.0061    Z=              0.0018  Tot=              0.0126
 Quadrupole moment (field-independent basis, Debye-Ang):
   XX=            -23.2217   YY=            -23.1518   ZZ=            -29.2512
   XY=             -0.2503   XZ=             -0.1701   YZ=             -0.0310

 1\1\GINC-NODE35\SP\RB2PLYPD3-FC\def2QZVP\C4H6\BOITTIER\26-Aug-2020\0\\
 #p B2PLYPD3/Def2QZVP\\butadiene\\0,1\C,0,-3.850979,0.221262,0.010705\C
 ,0,-2.719951,-0.499968,0.051833\C,0,-1.373052,0.07795,0.018794\C,0,-0.
 259021,-0.6563,0.02007\H,0,-4.811336,-0.228465,0.005407\H,0,-3.869642,
 1.293497,-0.090005\H,0,-2.804639,-1.591684,0.114287\H,0,-1.324167,1.14
 94,0.080715\H,0,-0.296346,-1.729304,0.020201\H,0,0.720924,-0.221768,0.
 013332\\Version=ES64L-G09RevD.01\State=1-A\HF=-155.700475\MP2=-155.926
 0169\RMSD=2.289e-09\PG=C01 [X(C4H6)]\\@

 Normal termination of Gaussian 09 at Wed Aug 26 15:34:27 2020.
