 Gaussian 09, Revision D.01,
 Gaussian 09:  ES64L-G09RevD.01 24-Apr-2013

 --------------------
 #p B2PLYPD3/Def2QZVP
 --------------------

 ---------
 butadiene
 ---------
 Symbolic Z-matrix:
 Charge =  0 Multiplicity = 1

                         Standard orientation:
 ---------------------------------------------------------------------
 Center     Atomic      Atomic             Coordinates (Angstroms)
 Number     Number       Type             X           Y           Z
 ---------------------------------------------------------------------
      1          6           0       -1.822973   -0.116515    0.033457
      2          6           0       -0.607860    0.435556   -0.018863
      3          6           0        0.584759   -0.384834   -0.029535
      4          6           0        1.834460    0.087832    0.009154
      5          1           0       -2.767074    0.450340   -0.031182
      6          1           0       -1.897843   -1.233271    0.112737
      7          1           0       -0.428234    1.499074   -0.107411
      8          1           0        0.446866   -1.436024   -0.136270
      9          1           0        2.059021    1.128084    0.134525
     10          1           0        2.656942   -0.540442    0.062325
 ---------------------------------------------------------------------

 SCF Done:  E(RB2PLYPD3) =  -155.696573026     A.U. after   11 cycles
 E2(B2PLYPD3) =    -0.2257829306D+00 E(B2PLYPD3) =    -0.15592235595627D+03

 The electronic state is 1-A.
 Alpha  occ. eigenvalues --  -10.62559 -10.62274 -10.62159 -10.60735  -0.93205
 Alpha  occ. eigenvalues --   -0.84811  -0.70284  -0.64388  -0.54964  -0.53639
 Alpha  occ. eigenvalues --   -0.47047  -0.45318  -0.41307  -0.38077  -0.27614
 Alpha virt. eigenvalues --    0.01704   0.07062   0.07396   0.08133   0.09429
 Alpha virt. eigenvalues --    0.11681   0.12562   0.14708   0.15780   0.16174
 Alpha virt. eigenvalues --    0.18685   0.20129   0.21852   0.22609   0.24157

 Mulliken charges:
               1
     1  C   -0.167487
     2  C   -0.038472
     3  C   -0.024122
     4  C   -0.179714
     5  H    0.086592
     6  H    0.060338
     7  H    0.061055
     8  H    0.058002
     9  H    0.060332
    10  H    0.083477
 Sum of Mulliken charges =   0.00000

 Dipole moment (field-independent basis, Debye):
    X=             -0.0165    Y=              0.0067    Z=              0.0019  Tot=              0.0179
 Quadrupole moment (field-independent basis, Debye-Ang):
   XX=            -23.4595   YY=            -23.1919   ZZ=            -29.1864
   XY=              0.1831   XZ=              0.3666   YZ=             -0.0183

 1\1\GINC-NODE24\SP\RB2PLYPD3-FC\def2QZVP\C4H6\BOITTIER\26-Aug-2020\0\\
 #p B2PLYPD3/Def2QZVP\\butadiene\\0,1\C,0,-3.820489,0.236881,-0.01038\C
 ,0,-2.727775,-0.528141,0.058442\C,0,-1.404208,0.057836,0.04125\C,0,-0.
 263491,-0.63845,0.016503\H,0,-4.852497,-0.14356,0.073605\H,0,-3.688561
 ,1.345185,-0.125674\H,0,-2.74686,-1.6032,0.181161\H,0,-1.345006,1.1192
 5,0.114065\H,0,-0.235629,-1.705713,-0.075387\H,0,0.660404,-0.174857,-0
 .057874\\Version=ES64L-G09RevD.01\State=1-A\HF=-155.696573\MP2=-155.92
 2356\RMSD=4.031e-09\PG=C01 [X(C4H6)]\\@

 Normal termination of Gaussian 09 at Wed Aug 26 09:23:51 2020.
