 Gaussian 09, Revision D.01,
 Gaussian 09:  ES64L-G09RevD.01 24-Apr-2013

 --------------------
 #p B2PLYPD3/Def2QZVP
 --------------------

 ---------
 butadiene
 ---------
 Symbolic Z-matrix:
 Charge =  0 Multiplicity = 1

                         Standard orientation:
 ---------------------------------------------------------------------
 Center     Atomic      Atomic             Coordinates (Angstroms)
 Number     Number       Type             X           Y           Z
 ---------------------------------------------------------------------
      1          6           0       -1.858404    0.093841    0.087502
      2          6           0       -0.602978   -0.382099   -0.118697
      3          6           0        0.603625    0.457474   -0.086787
      4          6           0        1.860306   -0.124067    0.065565
      5          1           0       -2.700686   -0.645052    0.167799
      6          1           0       -2.134761    1.116888   -0.037007
      7          1           0       -0.507530   -1.483617   -0.100165
      8          1           0        0.433102    1.594467    0.093149
      9          1           0        2.016041   -1.214683    0.159158
     10          1           0        2.878542    0.361105    0.031570
 ---------------------------------------------------------------------

 SCF Done:  E(RB2PLYPD3) =  -155.675994062     A.U. after   12 cycles
 E2(B2PLYPD3) =    -0.2294785715D+00 E(B2PLYPD3) =    -0.15590547263364D+03

 The electronic state is 1-A.
 Alpha  occ. eigenvalues --  -10.64980 -10.63488 -10.63484 -10.62171  -0.91896
 Alpha  occ. eigenvalues --   -0.83592  -0.69833  -0.63445  -0.53867  -0.52706
 Alpha  occ. eigenvalues --   -0.45838  -0.44890  -0.41126  -0.37208  -0.27033
 Alpha virt. eigenvalues --    0.00539   0.06904   0.07109   0.07741   0.08451
 Alpha virt. eigenvalues --    0.11410   0.12513   0.14134   0.15513   0.16384
 Alpha virt. eigenvalues --    0.18991   0.19593   0.21797   0.22488   0.23626

 Mulliken charges:
               1
     1  C   -0.172724
     2  C   -0.032301
     3  C   -0.045502
     4  C   -0.161952
     5  H    0.072621
     6  H    0.075871
     7  H    0.060265
     8  H    0.065016
     9  H    0.059595
    10  H    0.079110
 Sum of Mulliken charges =   0.00000

 Dipole moment (field-independent basis, Debye):
    X=              0.0246    Y=             -0.0683    Z=              0.1263  Tot=              0.1457
 Quadrupole moment (field-independent basis, Debye-Ang):
   XX=            -23.3079   YY=            -23.3108   ZZ=            -29.7304
   XY=             -0.5341   XZ=              0.1188   YZ=             -0.1042

 1\1\GINC-NODE15\SP\RB2PLYPD3-FC\def2QZVP\C4H6\BOITTIER\26-Aug-2020\0\\
 #p B2PLYPD3/Def2QZVP\\butadiene\\0,1\C,0,-3.863532,0.213626,0.108382\C
 ,0,-2.716041,-0.490146,-0.07356\C,0,-1.377175,0.117496,-0.07322\C,0,-0
 .245967,-0.675189,0.107524\H,0,-4.825365,-0.356386,0.217067\H,0,-3.950
 538,1.263659,-0.060027\H,0,-2.821642,-1.588957,-0.008303\H,0,-1.338086
 ,1.273108,0.058079\H,0,-0.289966,-1.771056,0.247508\H,0,0.843151,-0.38
 4405,0.056357\\Version=ES64L-G09RevD.01\State=1-A\HF=-155.6759941\MP2=
 -155.9054726\RMSD=2.889e-09\PG=C01 [X(C4H6)]\\@

 Normal termination of Gaussian 09 at Wed Aug 26 13:18:34 2020.
