 Gaussian 09, Revision D.01,
 Gaussian 09:  ES64L-G09RevD.01 24-Apr-2013

 --------------------
 #p B2PLYPD3/Def2QZVP
 --------------------

 ---------
 butadiene
 ---------
 Symbolic Z-matrix:
 Charge =  0 Multiplicity = 1

                         Standard orientation:
 ---------------------------------------------------------------------
 Center     Atomic      Atomic             Coordinates (Angstroms)
 Number     Number       Type             X           Y           Z
 ---------------------------------------------------------------------
      1          6           0        1.870267    0.095610    0.050673
      2          6           0        0.597767   -0.390752   -0.023181
      3          6           0       -0.626334    0.427032   -0.077057
      4          6           0       -1.847124   -0.125793    0.021801
      5          1           0        2.812854   -0.486764    0.059961
      6          1           0        2.056704    1.072253   -0.159076
      7          1           0        0.444587   -1.480268    0.007151
      8          1           0       -0.468719    1.521646    0.153205
      9          1           0       -2.095544   -1.171412   -0.032262
     10          1           0       -2.717337    0.507956    0.137606
 ---------------------------------------------------------------------

 SCF Done:  E(RB2PLYPD3) =  -155.685403908     A.U. after   11 cycles
 E2(B2PLYPD3) =    -0.2271837730D+00 E(B2PLYPD3) =    -0.15591258768098D+03

 The electronic state is 1-A.
 Alpha  occ. eigenvalues --  -10.63644 -10.63448 -10.62069 -10.61355  -0.92338
 Alpha  occ. eigenvalues --   -0.84542  -0.70648  -0.63980  -0.54470  -0.53555
 Alpha  occ. eigenvalues --   -0.46820  -0.45432  -0.40681  -0.37666  -0.27511
 Alpha virt. eigenvalues --    0.01099   0.07042   0.07405   0.07936   0.08764
 Alpha virt. eigenvalues --    0.11554   0.12665   0.14697   0.15281   0.16526
 Alpha virt. eigenvalues --    0.18917   0.19579   0.22297   0.22872   0.23913

 Mulliken charges:
               1
     1  C   -0.173016
     2  C   -0.035839
     3  C   -0.040473
     4  C   -0.167410
     5  H    0.075007
     6  H    0.066874
     7  H    0.056387
     8  H    0.065382
     9  H    0.074080
    10  H    0.079010
 Sum of Mulliken charges =   0.00000

 Dipole moment (field-independent basis, Debye):
    X=             -0.1610    Y=             -0.0359    Z=              0.0530  Tot=              0.1733
 Quadrupole moment (field-independent basis, Debye-Ang):
   XX=            -23.0194   YY=            -23.4347   ZZ=            -29.3429
   XY=              0.5740   XZ=             -0.6148   YZ=              0.1144

 1\1\GINC-NODE28\SP\RB2PLYPD3-FC\def2QZVP\C4H6\BOITTIER\26-Aug-2020\0\\
 #p B2PLYPD3/Def2QZVP\\butadiene\\0,1\C,0,-3.875994,0.21467,-0.028484\C
 ,0,-2.711626,-0.490684,0.060852\C,0,-1.359495,0.093674,0.079981\C,0,-0
 .259627,-0.674128,-0.000567\H,0,-4.908311,-0.187567,-0.012868\H,0,-3.8
 80966,1.216097,0.143866\H,0,-2.758046,-1.590295,0.072229\H,0,-1.318989
 ,1.189319,-0.19198\H,0,-0.203649,-1.744655,0.093203\H,0,0.709601,-0.21
 3006,-0.142981\\Version=ES64L-G09RevD.01\State=1-A\HF=-155.6854039\MP2
 =-155.9125877\RMSD=4.500e-09\PG=C01 [X(C4H6)]\\@

 Normal termination of Gaussian 09 at Wed Aug 26 13:20:36 2020.
