 Gaussian 09, Revision D.01,
 Gaussian 09:  ES64L-G09RevD.01 24-Apr-2013

 --------------------
 #p B2PLYPD3/Def2QZVP
 --------------------

 ---------
 butadiene
 ---------
 Symbolic Z-matrix:
 Charge =  0 Multiplicity = 1

                         Standard orientation:
 ---------------------------------------------------------------------
 Center     Atomic      Atomic             Coordinates (Angstroms)
 Number     Number       Type             X           Y           Z
 ---------------------------------------------------------------------
      1          6           0       -1.834982    0.122172    0.015139
      2          6           0       -0.615355   -0.424758   -0.035288
      3          6           0        0.596288    0.406922   -0.048938
      4          6           0        1.842183   -0.103170    0.034452
      5          1           0       -2.692956   -0.514412    0.125534
      6          1           0       -1.952539    1.197359    0.113861
      7          1           0       -0.461766   -1.490696   -0.056906
      8          1           0        0.509628    1.519460   -0.131894
      9          1           0        1.952464   -1.182708   -0.006469
     10          1           0        2.716362    0.464007    0.163683
 ---------------------------------------------------------------------

 SCF Done:  E(RB2PLYPD3) =  -155.696412499     A.U. after   11 cycles
 E2(B2PLYPD3) =    -0.2262353800D+00 E(B2PLYPD3) =    -0.15592264787942D+03

 The electronic state is 1-A.
 Alpha  occ. eigenvalues --  -10.63110 -10.62796 -10.61520 -10.61279  -0.92679
 Alpha  occ. eigenvalues --   -0.84791  -0.69983  -0.63965  -0.54672  -0.53879
 Alpha  occ. eigenvalues --   -0.46871  -0.45178  -0.41608  -0.37658  -0.27534
 Alpha virt. eigenvalues --    0.01722   0.07083   0.07330   0.08074   0.09168
 Alpha virt. eigenvalues --    0.11662   0.12593   0.14492   0.15860   0.16166
 Alpha virt. eigenvalues --    0.18744   0.20490   0.21494   0.23142   0.23714

 Mulliken charges:
               1
     1  C   -0.169545
     2  C   -0.039974
     3  C   -0.026789
     4  C   -0.180642
     5  H    0.084280
     6  H    0.070646
     7  H    0.060916
     8  H    0.052673
     9  H    0.057787
    10  H    0.090647
 Sum of Mulliken charges =   0.00000

 Dipole moment (field-independent basis, Debye):
    X=              0.0095    Y=             -0.0224    Z=              0.1431  Tot=              0.1452
 Quadrupole moment (field-independent basis, Debye-Ang):
   XX=            -23.6712   YY=            -23.0353   ZZ=            -29.2920
   XY=              0.0120   XZ=             -0.1464   YZ=              0.0909

 1\1\GINC-NODE39\SP\RB2PLYPD3-FC\def2QZVP\C4H6\BOITTIER\26-Aug-2020\0\\
 #p B2PLYPD3/Def2QZVP\\butadiene\\0,1\C,0,-3.834263,0.232497,0.039756\C
 ,0,-2.731876,-0.52421,0.003642\C,0,-1.391461,0.077509,-0.030689\C,0,-0
 .256101,-0.644296,0.066044\H,0,-4.791495,-0.237949,0.165973\H,0,-3.757
 876,1.313545,0.111126\H,0,-2.770837,-1.600654,0.009129\H,0,-1.278775,1
 .185242,-0.141877\H,0,-0.340181,-1.72688,0.052565\H,0,0.705708,-0.2390
 14,0.181143\\Version=ES64L-G09RevD.01\State=1-A\HF=-155.6964125\MP2=-1
 55.9226479\RMSD=3.828e-09\PG=C01 [X(C4H6)]\\@

 Normal termination of Gaussian 09 at Wed Aug 26 09:37:16 2020.
