 Gaussian 09, Revision D.01,
 Gaussian 09:  ES64L-G09RevD.01 24-Apr-2013

 --------------------
 #p B2PLYPD3/Def2QZVP
 --------------------

 ---------
 butadiene
 ---------
 Symbolic Z-matrix:
 Charge =  0 Multiplicity = 1

                         Standard orientation:
 ---------------------------------------------------------------------
 Center     Atomic      Atomic             Coordinates (Angstroms)
 Number     Number       Type             X           Y           Z
 ---------------------------------------------------------------------
      1          6           0        1.832778   -0.114677    0.007062
      2          6           0        0.606710    0.399409   -0.003915
      3          6           0       -0.608741   -0.394937   -0.020955
      4          6           0       -1.841277    0.115531   -0.004850
      5          1           0        2.721045    0.508867    0.029337
      6          1           0        1.984882   -1.167340   -0.015340
      7          1           0        0.499996    1.492099   -0.000698
      8          1           0       -0.465491   -1.465798    0.032288
      9          1           0       -2.019642    1.160135    0.019812
     10          1           0       -2.657610   -0.559922    0.070554
 ---------------------------------------------------------------------

 SCF Done:  E(RB2PLYPD3) =  -155.700578435     A.U. after   11 cycles
 E2(B2PLYPD3) =    -0.2252859986D+00 E(B2PLYPD3) =    -0.15592586443373D+03

 The electronic state is 1-A.
 Alpha  occ. eigenvalues --  -10.62452 -10.62381 -10.61217 -10.61024  -0.93079
 Alpha  occ. eigenvalues --   -0.85177  -0.70338  -0.64135  -0.54655  -0.54334
 Alpha  occ. eigenvalues --   -0.46586  -0.46059  -0.41149  -0.38165  -0.27733
 Alpha virt. eigenvalues --    0.01812   0.07027   0.07464   0.08077   0.09675
 Alpha virt. eigenvalues --    0.11746   0.12446   0.14863   0.15830   0.16143
 Alpha virt. eigenvalues --    0.18767   0.20497   0.21690   0.22939   0.23980

 Mulliken charges:
               1
     1  C   -0.176731
     2  C   -0.025268
     3  C   -0.031292
     4  C   -0.179285
     5  H    0.085009
     6  H    0.064706
     7  H    0.050471
     8  H    0.054009
     9  H    0.072319
    10  H    0.086063
 Sum of Mulliken charges =   0.00000

 Dipole moment (field-independent basis, Debye):
    X=              0.0167    Y=             -0.0082    Z=              0.1072  Tot=              0.1088
 Quadrupole moment (field-independent basis, Debye-Ang):
   XX=            -23.5576   YY=            -23.0234   ZZ=            -29.1882
   XY=             -0.1503   XZ=             -0.2330   YZ=             -0.0378

 1\1\GINC-NODE33\SP\RB2PLYPD3-FC\def2QZVP\C4H6\BOITTIER\26-Aug-2020\0\\
 #p B2PLYPD3/Def2QZVP\\butadiene\\0,1\C,0,-3.835938,0.226593,0.025142\C
 ,0,-2.721671,-0.498672,0.031982\C,0,-1.383715,0.064651,-0.001787\C,0,-
 0.262402,-0.657494,0.032053\H,0,-4.821419,-0.227145,0.060774\H,0,-3.79
 7244,1.288512,-0.025544\H,0,-2.81221,-1.592345,0.064389\H,0,-1.332955,
 1.144893,0.022696\H,0,-0.273814,-1.716125,0.084877\H,0,0.661723,-0.137
 237,0.092446\\Version=ES64L-G09RevD.01\State=1-A\HF=-155.7005784\MP2=-
 155.9258644\RMSD=4.597e-09\PG=C01 [X(C4H6)]\\@

 Normal termination of Gaussian 09 at Wed Aug 26 13:05:10 2020.
