 Gaussian 09, Revision D.01,
 Gaussian 09:  ES64L-G09RevD.01 24-Apr-2013

 --------------------
 #p B2PLYPD3/Def2QZVP
 --------------------

 ---------
 butadiene
 ---------
 Symbolic Z-matrix:
 Charge =  0 Multiplicity = 1

                         Standard orientation:
 ---------------------------------------------------------------------
 Center     Atomic      Atomic             Coordinates (Angstroms)
 Number     Number       Type             X           Y           Z
 ---------------------------------------------------------------------
      1          6           0        1.817560   -0.129836   -0.052245
      2          6           0        0.591878    0.452282    0.037722
      3          6           0       -0.566346   -0.363377    0.119493
      4          6           0       -1.823057    0.058614   -0.102813
      5          1           0        2.742767    0.429297   -0.121104
      6          1           0        1.888608   -1.272499   -0.101059
      7          1           0        0.462003    1.582277    0.170994
      8          1           0       -0.413149   -1.471818    0.123622
      9          1           0       -2.016202    1.103477   -0.033110
     10          1           0       -2.784242   -0.476831   -0.052286
 ---------------------------------------------------------------------

 SCF Done:  E(RB2PLYPD3) =  -155.683098126     A.U. after   11 cycles
 E2(B2PLYPD3) =    -0.2281922607D+00 E(B2PLYPD3) =    -0.15591129038720D+03

 The electronic state is 1-A.
 Alpha  occ. eigenvalues --  -10.63632 -10.62922 -10.62827 -10.61512  -0.93296
 Alpha  occ. eigenvalues --   -0.84190  -0.70277  -0.63371  -0.54923  -0.52771
 Alpha  occ. eigenvalues --   -0.46636  -0.44157  -0.41147  -0.38137  -0.27282
 Alpha virt. eigenvalues --    0.00994   0.06924   0.07114   0.07850   0.09225
 Alpha virt. eigenvalues --    0.11446   0.12728   0.14294   0.15388   0.16837
 Alpha virt. eigenvalues --    0.18763   0.19194   0.22412   0.22603   0.23192

 Mulliken charges:
               1
     1  C   -0.170904
     2  C   -0.031483
     3  C   -0.023922
     4  C   -0.158044
     5  H    0.089831
     6  H    0.061573
     7  H    0.057010
     8  H    0.051262
     9  H    0.049304
    10  H    0.075374
 Sum of Mulliken charges =   0.00000

 Dipole moment (field-independent basis, Debye):
    X=              0.0585    Y=              0.0588    Z=              0.1046  Tot=              0.1335
 Quadrupole moment (field-independent basis, Debye-Ang):
   XX=            -23.2508   YY=            -23.4557   ZZ=            -29.4326
   XY=             -0.1740   XZ=             -0.2892   YZ=              0.1949

 1\1\GINC-NODE28\SP\RB2PLYPD3-FC\def2QZVP\C4H6\BOITTIER\26-Aug-2020\0\\
 #p B2PLYPD3/Def2QZVP\\butadiene\\0,1\C,0,-3.811019,0.248409,-0.042184\
 C,0,-2.714352,-0.545322,0.086513\C,0,-1.424176,0.044052,0.125935\C,0,-
 0.269305,-0.616371,-0.06624\H,0,-4.824472,-0.131937,-0.082552\H,0,-3.6
 6873,1.379611,-0.157275\H,0,-2.795931,-1.670174,0.285438\H,0,-1.368617
 ,1.160012,0.065326\H,0,-0.27331,-1.673147,0.064572\H,0,0.774974,-0.267
 007,-0.042651\\Version=ES64L-G09RevD.01\State=1-A\HF=-155.6830981\MP2=
 -155.9112904\RMSD=7.766e-09\PG=C01 [X(C4H6)]\\@

 Normal termination of Gaussian 09 at Wed Aug 26 15:45:06 2020.
