 Gaussian 09, Revision D.01,
 Gaussian 09:  ES64L-G09RevD.01 24-Apr-2013

 --------------------
 #p B2PLYPD3/Def2QZVP
 --------------------

 ---------
 butadiene
 ---------
 Symbolic Z-matrix:
 Charge =  0 Multiplicity = 1

                         Standard orientation:
 ---------------------------------------------------------------------
 Center     Atomic      Atomic             Coordinates (Angstroms)
 Number     Number       Type             X           Y           Z
 ---------------------------------------------------------------------
      1          6           0        1.820448   -0.123145    0.004125
      2          6           0        0.613030    0.423425   -0.014540
      3          6           0       -0.595703   -0.386511    0.016367
      4          6           0       -1.838591    0.093783   -0.025547
      5          1           0        2.714856    0.473455    0.050335
      6          1           0        1.887836   -1.206385   -0.033811
      7          1           0        0.500229    1.477135    0.019917
      8          1           0       -0.377174   -1.438123   -0.033409
      9          1           0       -1.964447    1.186061    0.006841
     10          1           0       -2.756407   -0.537460    0.107694
 ---------------------------------------------------------------------

 SCF Done:  E(RB2PLYPD3) =  -155.696948761     A.U. after   11 cycles
 E2(B2PLYPD3) =    -0.2258039789D+00 E(B2PLYPD3) =    -0.15592275273972D+03

 The electronic state is 1-A.
 Alpha  occ. eigenvalues --  -10.62393 -10.62041 -10.62025 -10.61394  -0.93324
 Alpha  occ. eigenvalues --   -0.84931  -0.69745  -0.64531  -0.54598  -0.53522
 Alpha  occ. eigenvalues --   -0.46922  -0.45420  -0.41071  -0.38215  -0.27828
 Alpha virt. eigenvalues --    0.01844   0.07006   0.07397   0.08116   0.09476
 Alpha virt. eigenvalues --    0.11741   0.12555   0.14532   0.15557   0.16232
 Alpha virt. eigenvalues --    0.18647   0.19938   0.21849   0.23202   0.23840

 Mulliken charges:
               1
     1  C   -0.177196
     2  C   -0.025093
     3  C   -0.029952
     4  C   -0.171806
     5  H    0.088251
     6  H    0.062300
     7  H    0.055459
     8  H    0.053897
     9  H    0.059857
    10  H    0.084283
 Sum of Mulliken charges =   0.00000

 Dipole moment (field-independent basis, Debye):
    X=              0.0979    Y=              0.0321    Z=              0.1151  Tot=              0.1545
 Quadrupole moment (field-independent basis, Debye-Ang):
   XX=            -23.6128   YY=            -23.2066   ZZ=            -29.2249
   XY=             -0.0013   XZ=             -0.2200   YZ=              0.0914

 1\1\GINC-NODE38\SP\RB2PLYPD3-FC\def2QZVP\C4H6\BOITTIER\26-Aug-2020\0\\
 #p B2PLYPD3/Def2QZVP\\butadiene\\0,1\C,0,-3.820594,0.234019,0.019625\C
 ,0,-2.731111,-0.520921,0.025873\C,0,-1.396423,0.059221,0.031384\C,0,-0
 .260205,-0.637805,0.012079\H,0,-4.807516,-0.190023,0.084478\H,0,-3.692
 332,1.309567,-0.058695\H,0,-2.809403,-1.575729,0.099796\H,0,-1.422559,
 1.130396,-0.058177\H,0,-0.332591,-1.73295,0.085415\H,0,0.756487,-0.177
 247,0.125358\\Version=ES64L-G09RevD.01\State=1-A\HF=-155.6969488\MP2=-
 155.9227527\RMSD=4.890e-09\PG=C01 [X(C4H6)]\\@

 Normal termination of Gaussian 09 at Wed Aug 26 08:42:58 2020.
