 Gaussian 09, Revision D.01,
 Gaussian 09:  ES64L-G09RevD.01 24-Apr-2013

 --------------------
 #p B2PLYPD3/Def2QZVP
 --------------------

 ---------
 butadiene
 ---------
 Symbolic Z-matrix:
 Charge =  0 Multiplicity = 1

                         Standard orientation:
 ---------------------------------------------------------------------
 Center     Atomic      Atomic             Coordinates (Angstroms)
 Number     Number       Type             X           Y           Z
 ---------------------------------------------------------------------
      1          6           0       -1.838202    0.101639   -0.006984
      2          6           0       -0.595127   -0.392338    0.001001
      3          6           0        0.605306    0.404871   -0.006401
      4          6           0        1.827045   -0.120183    0.005522
      5          1           0       -2.699159   -0.523963    0.002631
      6          1           0       -2.025016    1.172140    0.062889
      7          1           0       -0.480696   -1.445989   -0.028329
      8          1           0        0.525934    1.496136   -0.013925
      9          1           0        1.994620   -1.187649    0.044206
     10          1           0        2.690190    0.525389   -0.026300
 ---------------------------------------------------------------------

 SCF Done:  E(RB2PLYPD3) =  -155.700705467     A.U. after   11 cycles
 E2(B2PLYPD3) =    -0.2254279141D+00 E(B2PLYPD3) =    -0.15592613338135D+03

 The electronic state is 1-A.
 Alpha  occ. eigenvalues --  -10.62390 -10.62165 -10.61327 -10.61320  -0.93224
 Alpha  occ. eigenvalues --   -0.85026  -0.70289  -0.64248  -0.54686  -0.54318
 Alpha  occ. eigenvalues --   -0.46495  -0.45564  -0.41465  -0.38278  -0.27607
 Alpha virt. eigenvalues --    0.01734   0.07033   0.07478   0.08045   0.09694
 Alpha virt. eigenvalues --    0.11698   0.12445   0.14794   0.15891   0.16266
 Alpha virt. eigenvalues --    0.18772   0.20454   0.21691   0.22749   0.23943

 Mulliken charges:
               1
     1  C   -0.174785
     2  C   -0.034753
     3  C   -0.025979
     4  C   -0.176141
     5  H    0.084667
     6  H    0.063200
     7  H    0.058835
     8  H    0.054204
     9  H    0.066851
    10  H    0.083901
 Sum of Mulliken charges =   0.00000

 Dipole moment (field-independent basis, Debye):
    X=              0.0233    Y=             -0.0159    Z=              0.0388  Tot=              0.0480
 Quadrupole moment (field-independent basis, Debye-Ang):
   XX=            -23.5029   YY=            -23.0369   ZZ=            -29.2023
   XY=             -0.0456   XZ=             -0.1175   YZ=              0.0251

 1\1\GINC-NODE37\SP\RB2PLYPD3-FC\def2QZVP\C4H6\BOITTIER\26-Aug-2020\0\\
 #p B2PLYPD3/Def2QZVP\\butadiene\\0,1\C,0,-3.841905,0.216305,0.014237\C
 ,0,-2.707986,-0.492946,0.036632\C,0,-1.383737,0.074682,0.008345\C,0,-0
 .276381,-0.661181,0.03551\H,0,-4.801333,-0.243625,0.0403\H,0,-3.832746
 ,1.304438,0.054705\H,0,-2.785143,-1.550387,0.036178\H,0,-1.265479,1.16
 1803,-0.029043\H,0,-0.303463,-1.739935,0.103462\H,0,0.6887,-0.182608,-
 0.013295\\Version=ES64L-G09RevD.01\State=1-A\HF=-155.7007055\MP2=-155.
 9261334\RMSD=2.609e-09\PG=C01 [X(C4H6)]\\@

 Normal termination of Gaussian 09 at Wed Aug 26 13:17:09 2020.
