 Gaussian 09, Revision D.01,
 Gaussian 09:  ES64L-G09RevD.01 24-Apr-2013

 --------------------
 #p B2PLYPD3/Def2QZVP
 --------------------

 ---------
 butadiene
 ---------
 Symbolic Z-matrix:
 Charge =  0 Multiplicity = 1

                         Standard orientation:
 ---------------------------------------------------------------------
 Center     Atomic      Atomic             Coordinates (Angstroms)
 Number     Number       Type             X           Y           Z
 ---------------------------------------------------------------------
      1          6           0       -1.824083   -0.126750    0.017831
      2          6           0       -0.607239    0.411899   -0.026148
      3          6           0        0.594337   -0.389940   -0.024178
      4          6           0        1.830538    0.102371    0.000957
      5          1           0       -2.682644    0.534684    0.028637
      6          1           0       -1.967518   -1.197907    0.039036
      7          1           0       -0.474732    1.497778    0.008906
      8          1           0        0.472468   -1.457586   -0.026871
      9          1           0        1.977427    1.186089    0.044103
     10          1           0        2.713678   -0.548537    0.095416
 ---------------------------------------------------------------------

 SCF Done:  E(RB2PLYPD3) =  -155.700069449     A.U. after   11 cycles
 E2(B2PLYPD3) =    -0.2257369412D+00 E(B2PLYPD3) =    -0.15592580638975D+03

 The electronic state is 1-A.
 Alpha  occ. eigenvalues --  -10.62469 -10.62120 -10.61623 -10.61484  -0.93256
 Alpha  occ. eigenvalues --   -0.84951  -0.69833  -0.64085  -0.54252  -0.54139
 Alpha  occ. eigenvalues --   -0.46429  -0.45535  -0.41226  -0.38316  -0.27681
 Alpha virt. eigenvalues --    0.01846   0.07004   0.07349   0.08017   0.09637
 Alpha virt. eigenvalues --    0.11774   0.12350   0.14725   0.15765   0.16126
 Alpha virt. eigenvalues --    0.18665   0.20284   0.21572   0.22879   0.24031

 Mulliken charges:
               1
     1  C   -0.177832
     2  C   -0.030262
     3  C   -0.024505
     4  C   -0.175906
     5  H    0.085366
     6  H    0.071206
     7  H    0.053366
     8  H    0.053181
     9  H    0.060967
    10  H    0.084420
 Sum of Mulliken charges =   0.00000

 Dipole moment (field-independent basis, Debye):
    X=             -0.0447    Y=             -0.0155    Z=              0.1402  Tot=              0.1480
 Quadrupole moment (field-independent basis, Debye-Ang):
   XX=            -23.8087   YY=            -22.9832   ZZ=            -29.2538
   XY=              0.0292   XZ=              0.2018   YZ=              0.0029

 1\1\GINC-NODE35\SP\RB2PLYPD3-FC\def2QZVP\C4H6\BOITTIER\26-Aug-2020\0\\
 #p B2PLYPD3/Def2QZVP\\butadiene\\0,1\C,0,-3.823048,0.236284,-0.000327\
 C,0,-2.722528,-0.51079,0.05903\C,0,-1.396503,0.061735,0.03439\C,0,-0.2
 68967,-0.645184,0.023347\H,0,-4.786487,-0.260164,0.007583\H,0,-3.77187
 1,1.314763,-0.051954\H,0,-2.787381,-1.603355,0.054838\H,0,-1.324623,1.
 133554,0.006753\H,0,-0.319324,-1.738433,0.011006\H,0,0.716232,-0.16644
 4,-0.089485\\Version=ES64L-G09RevD.01\State=1-A\HF=-155.7000694\MP2=-1
 55.9258064\RMSD=5.271e-09\PG=C01 [X(C4H6)]\\@

 Normal termination of Gaussian 09 at Wed Aug 26 13:49:31 2020.
