 Gaussian 09, Revision D.01,
 Gaussian 09:  ES64L-G09RevD.01 24-Apr-2013

 --------------------
 #p B2PLYPD3/Def2QZVP
 --------------------

 ---------
 butadiene
 ---------
 Symbolic Z-matrix:
 Charge =  0 Multiplicity = 1

                         Standard orientation:
 ---------------------------------------------------------------------
 Center     Atomic      Atomic             Coordinates (Angstroms)
 Number     Number       Type             X           Y           Z
 ---------------------------------------------------------------------
      1          6           0       -1.857861    0.123738   -0.044268
      2          6           0       -0.608604   -0.419795    0.009897
      3          6           0        0.620213    0.338882    0.079652
      4          6           0        1.848281   -0.087516   -0.076307
      5          1           0       -2.827736   -0.419256    0.000328
      6          1           0       -2.012266    1.301283   -0.178362
      7          1           0       -0.553641   -1.540622    0.236948
      8          1           0        0.622723    1.421026    0.257697
      9          1           0        2.132365   -1.111574   -0.096820
     10          1           0        2.626383    0.617292   -0.033634
 ---------------------------------------------------------------------

 SCF Done:  E(RB2PLYPD3) =  -155.679859074     A.U. after   12 cycles
 E2(B2PLYPD3) =    -0.2270795010D+00 E(B2PLYPD3) =    -0.15590693857485D+03

 The electronic state is 1-A.
 Alpha  occ. eigenvalues --  -10.63973 -10.63728 -10.62271 -10.60533  -0.92909
 Alpha  occ. eigenvalues --   -0.84929  -0.70030  -0.62990  -0.54727  -0.53513
 Alpha  occ. eigenvalues --   -0.47009  -0.44161  -0.40807  -0.37252  -0.27977
 Alpha virt. eigenvalues --    0.01373   0.06966   0.07235   0.07563   0.09696
 Alpha virt. eigenvalues --    0.11200   0.12246   0.14414   0.15582   0.16621
 Alpha virt. eigenvalues --    0.19016   0.19844   0.20960   0.21899   0.23721

 Mulliken charges:
               1
     1  C   -0.165682
     2  C   -0.045039
     3  C   -0.024236
     4  C   -0.161063
     5  H    0.088512
     6  H    0.054038
     7  H    0.060972
     8  H    0.050258
     9  H    0.064106
    10  H    0.078135
 Sum of Mulliken charges =   0.00000

 Dipole moment (field-independent basis, Debye):
    X=              0.0061    Y=             -0.0104    Z=              0.2306  Tot=              0.2310
 Quadrupole moment (field-independent basis, Debye-Ang):
   XX=            -23.0519   YY=            -23.4979   ZZ=            -29.2934
   XY=              0.1059   XZ=              0.0213   YZ=             -0.1752

 1\1\GINC-NODE37\SP\RB2PLYPD3-FC\def2QZVP\C4H6\BOITTIER\26-Aug-2020\0\\
 #p B2PLYPD3/Def2QZVP\\butadiene\\0,1\C,0,-3.859432,0.232477,-0.026834\
 C,0,-2.723666,-0.516784,0.060621\C,0,-1.381004,0.018667,0.092219\C,0,-
 0.247106,-0.623179,-0.036614\H,0,-4.908765,-0.129842,0.04467\H,0,-3.80
 718,1.409828,-0.225701\H,0,-2.863327,-1.61597,0.348912\H,0,-1.188763,1
 .091862,0.210698\H,0,-0.145961,-1.680657,-0.00016\H,0,0.642178,-0.0635
 78,-0.030399\\Version=ES64L-G09RevD.01\State=1-A\HF=-155.6798591\MP2=-
 155.9069386\RMSD=3.124e-09\PG=C01 [X(C4H6)]\\@

 Normal termination of Gaussian 09 at Wed Aug 26 15:09:42 2020.
