 Gaussian 09, Revision D.01,
 Gaussian 09:  ES64L-G09RevD.01 24-Apr-2013

 --------------------
 #p B2PLYPD3/Def2QZVP
 --------------------

 ---------
 butadiene
 ---------
 Symbolic Z-matrix:
 Charge =  0 Multiplicity = 1

                         Standard orientation:
 ---------------------------------------------------------------------
 Center     Atomic      Atomic             Coordinates (Angstroms)
 Number     Number       Type             X           Y           Z
 ---------------------------------------------------------------------
      1          6           0        1.850141    0.098699   -0.039256
      2          6           0        0.613540   -0.362231    0.049210
      3          6           0       -0.626916    0.418975    0.004083
      4          6           0       -1.830431   -0.145566   -0.018615
      5          1           0        2.701977   -0.573336   -0.044561
      6          1           0        2.043116    1.158838   -0.005499
      7          1           0        0.445375   -1.449134    0.059210
      8          1           0       -0.591241    1.495121    0.114968
      9          1           0       -1.941913   -1.242128   -0.028828
     10          1           0       -2.695314    0.551375   -0.067818
 ---------------------------------------------------------------------

 SCF Done:  E(RB2PLYPD3) =  -155.697012389     A.U. after   11 cycles
 E2(B2PLYPD3) =    -0.2257538812D+00 E(B2PLYPD3) =    -0.15592276627051D+03

 The electronic state is 1-A.
 Alpha  occ. eigenvalues --  -10.62534 -10.62419 -10.61983 -10.61276  -0.92918
 Alpha  occ. eigenvalues --   -0.85238  -0.69546  -0.63724  -0.54374  -0.53828
 Alpha  occ. eigenvalues --   -0.46434  -0.45541  -0.40891  -0.37943  -0.28021
 Alpha virt. eigenvalues --    0.01995   0.06965   0.07375   0.07904   0.09636
 Alpha virt. eigenvalues --    0.11719   0.12204   0.14664   0.15473   0.16228
 Alpha virt. eigenvalues --    0.18726   0.19844   0.21668   0.22597   0.24194

 Mulliken charges:
               1
     1  C   -0.173884
     2  C   -0.030867
     3  C   -0.029487
     4  C   -0.176327
     5  H    0.086061
     6  H    0.067098
     7  H    0.047448
     8  H    0.056086
     9  H    0.070787
    10  H    0.083086
 Sum of Mulliken charges =   0.00000

 Dipole moment (field-independent basis, Debye):
    X=             -0.0285    Y=              0.0309    Z=              0.0640  Tot=              0.0766
 Quadrupole moment (field-independent basis, Debye-Ang):
   XX=            -23.7818   YY=            -22.9993   ZZ=            -29.2769
   XY=             -0.0710   XZ=              0.0403   YZ=              0.1175

 1\1\GINC-NODE14\SP\RB2PLYPD3-FC\def2QZVP\C4H6\BOITTIER\26-Aug-2020\0\\
 #p B2PLYPD3/Def2QZVP\\butadiene\\0,1\C,0,-3.856848,0.203074,0.055153\C
 ,0,-2.719127,-0.468204,-0.011496\C,0,-1.361993,0.087681,0.003668\C,0,-
 0.274214,-0.675233,0.052328\H,0,-4.812079,-0.310566,0.086642\H,0,-3.86
 3648,1.278298,-0.023076\H,0,-2.74162,-1.567279,0.024076\H,0,-1.211496,
 1.148241,-0.151962\H,0,-0.3541,-1.773166,0.108379\H,0,0.698458,-0.1370
 9,0.07429\\Version=ES64L-G09RevD.01\State=1-A\HF=-155.6970124\MP2=-155
 .9227663\RMSD=5.747e-09\PG=C01 [X(C4H6)]\\@

 Normal termination of Gaussian 09 at Wed Aug 26 10:09:05 2020.
