 Gaussian 09, Revision D.01,
 Gaussian 09:  ES64L-G09RevD.01 24-Apr-2013

 --------------------
 #p B2PLYPD3/Def2QZVP
 --------------------

 ---------
 butadiene
 ---------
 Symbolic Z-matrix:
 Charge =  0 Multiplicity = 1

                         Standard orientation:
 ---------------------------------------------------------------------
 Center     Atomic      Atomic             Coordinates (Angstroms)
 Number     Number       Type             X           Y           Z
 ---------------------------------------------------------------------
      1          6           0        1.838014    0.106492   -0.013469
      2          6           0        0.594896   -0.396007    0.017438
      3          6           0       -0.609555    0.417477    0.005564
      4          6           0       -1.833468   -0.115401   -0.010718
      5          1           0        2.709113   -0.545272   -0.028814
      6          1           0        2.030089    1.170574   -0.054593
      7          1           0        0.499512   -1.459166    0.107731
      8          1           0       -0.495931    1.497305    0.069916
      9          1           0       -1.947725   -1.209517   -0.101415
     10          1           0       -2.734377    0.470711    0.014282
 ---------------------------------------------------------------------

 SCF Done:  E(RB2PLYPD3) =  -155.700201127     A.U. after   11 cycles
 E2(B2PLYPD3) =    -0.2258645451D+00 E(B2PLYPD3) =    -0.15592606567251D+03

 The electronic state is 1-A.
 Alpha  occ. eigenvalues --  -10.62619 -10.62442 -10.61658 -10.61554  -0.92962
 Alpha  occ. eigenvalues --   -0.84799  -0.69936  -0.64206  -0.54581  -0.53944
 Alpha  occ. eigenvalues --   -0.46534  -0.45334  -0.41457  -0.38014  -0.27609
 Alpha virt. eigenvalues --    0.01741   0.07048   0.07425   0.08010   0.09456
 Alpha virt. eigenvalues --    0.11655   0.12464   0.14607   0.15845   0.16222
 Alpha virt. eigenvalues --    0.18780   0.20379   0.21550   0.22745   0.23900

 Mulliken charges:
               1
     1  C   -0.177293
     2  C   -0.031831
     3  C   -0.034692
     4  C   -0.172019
     5  H    0.082632
     6  H    0.065723
     7  H    0.060201
     8  H    0.058217
     9  H    0.061974
    10  H    0.087088
 Sum of Mulliken charges =   0.00000

 Dipole moment (field-independent basis, Debye):
    X=             -0.0211    Y=              0.0139    Z=              0.0202  Tot=              0.0324
 Quadrupole moment (field-independent basis, Debye-Ang):
   XX=            -23.4911   YY=            -23.0843   ZZ=            -29.2834
   XY=              0.0272   XZ=             -0.0377   YZ=              0.0454

 1\1\GINC-NODE05\SP\RB2PLYPD3-FC\def2QZVP\C4H6\BOITTIER\26-Aug-2020\0\\
 #p B2PLYPD3/Def2QZVP\\butadiene\\0,1\C,0,-3.842837,0.217846,0.031184\C
 ,0,-2.709777,-0.499662,0.018566\C,0,-1.379215,0.085184,0.00605\C,0,-0.
 270285,-0.657246,0.041549\H,0,-4.816388,-0.266734,0.066209\H,0,-3.8413
 28,1.299887,0.037536\H,0,-2.80646,-1.565078,-0.037114\H,0,-1.298146,1.
 165285,-0.093402\H,0,-0.353175,-1.750663,0.167795\H,0,0.720812,-0.2428
 67,-0.000953\\Version=ES64L-G09RevD.01\State=1-A\HF=-155.7002011\MP2=-
 155.9260657\RMSD=2.997e-09\PG=C01 [X(C4H6)]\\@

 Normal termination of Gaussian 09 at Wed Aug 26 23:07:06 2020.
