 Gaussian 09, Revision D.01,
 Gaussian 09:  ES64L-G09RevD.01 24-Apr-2013

 --------------------
 #p B2PLYPD3/Def2QZVP
 --------------------

 ---------
 butadiene
 ---------
 Symbolic Z-matrix:
 Charge =  0 Multiplicity = 1

                         Standard orientation:
 ---------------------------------------------------------------------
 Center     Atomic      Atomic             Coordinates (Angstroms)
 Number     Number       Type             X           Y           Z
 ---------------------------------------------------------------------
      1          6           0        1.839330    0.104492    0.009906
      2          6           0        0.597953   -0.396753   -0.026576
      3          6           0       -0.595903    0.415423   -0.050637
      4          6           0       -1.812195   -0.127258    0.037931
      5          1           0        2.629050   -0.547344    0.040442
      6          1           0        1.958468    1.180668    0.187632
      7          1           0        0.428852   -1.460445   -0.116253
      8          1           0       -0.548287    1.530464   -0.065110
      9          1           0       -1.963819   -1.194398    0.146562
     10          1           0       -2.679374    0.515628   -0.017014
 ---------------------------------------------------------------------

 SCF Done:  E(RB2PLYPD3) =  -155.695239556     A.U. after   11 cycles
 E2(B2PLYPD3) =    -0.2259316517D+00 E(B2PLYPD3) =    -0.15592117120755D+03

 The electronic state is 1-A.
 Alpha  occ. eigenvalues --  -10.62591 -10.62356 -10.61389 -10.60934  -0.93171
 Alpha  occ. eigenvalues --   -0.85029  -0.70211  -0.63772  -0.54957  -0.53947
 Alpha  occ. eigenvalues --   -0.46165  -0.45712  -0.41601  -0.38121  -0.27523
 Alpha virt. eigenvalues --    0.01715   0.07107   0.07302   0.08041   0.09455
 Alpha virt. eigenvalues --    0.11788   0.12352   0.14833   0.15686   0.16326
 Alpha virt. eigenvalues --    0.18630   0.19953   0.21658   0.22823   0.24090

 Mulliken charges:
               1
     1  C   -0.181287
     2  C   -0.032346
     3  C   -0.024291
     4  C   -0.177519
     5  H    0.089866
     6  H    0.069295
     7  H    0.056194
     8  H    0.050971
     9  H    0.066034
    10  H    0.083083
 Sum of Mulliken charges =   0.00000

 Dipole moment (field-independent basis, Debye):
    X=             -0.0738    Y=             -0.0409    Z=              0.1239  Tot=              0.1499
 Quadrupole moment (field-independent basis, Debye-Ang):
   XX=            -23.9528   YY=            -22.8995   ZZ=            -29.1939
   XY=             -0.0670   XZ=              0.2274   YZ=              0.0904

 1\1\GINC-NODE38\SP\RB2PLYPD3-FC\def2QZVP\C4H6\BOITTIER\26-Aug-2020\0\\
 #p B2PLYPD3/Def2QZVP\\butadiene\\0,1\C,0,-3.839243,0.218758,0.001459\C
 ,0,-2.708409,-0.49637,0.059774\C,0,-1.387711,0.087799,0.060964\C,0,-0.
 289299,-0.667802,-0.004392\H,0,-4.733547,-0.28081,-0.010055\H,0,-3.762
 94,1.292104,-0.213113\H,0,-2.733517,-1.569443,0.186121\H,0,-1.23362,1.
 193012,0.037441\H,0,-0.332666,-1.747868,-0.07619\H,0,0.679639,-0.19015
 5,0.032123\\Version=ES64L-G09RevD.01\State=1-A\HF=-155.6952396\MP2=-15
 5.9211712\RMSD=3.764e-09\PG=C01 [X(C4H6)]\\@

 Normal termination of Gaussian 09 at Wed Aug 26 10:32:53 2020.
