 Gaussian 09, Revision D.01,
 Gaussian 09:  ES64L-G09RevD.01 24-Apr-2013

 --------------------
 #p B2PLYPD3/Def2QZVP
 --------------------

 ---------
 butadiene
 ---------
 Symbolic Z-matrix:
 Charge =  0 Multiplicity = 1

                         Standard orientation:
 ---------------------------------------------------------------------
 Center     Atomic      Atomic             Coordinates (Angstroms)
 Number     Number       Type             X           Y           Z
 ---------------------------------------------------------------------
      1          6           0        1.834695    0.098077    0.015051
      2          6           0        0.592354   -0.392320   -0.028760
      3          6           0       -0.598355    0.413211   -0.004176
      4          6           0       -1.835385   -0.120461    0.003750
      5          1           0        2.725792   -0.535434   -0.001227
      6          1           0        2.021740    1.155519    0.078727
      7          1           0        0.452237   -1.445774   -0.037846
      8          1           0       -0.463562    1.488205   -0.057267
      9          1           0       -1.995292   -1.171471    0.105159
     10          1           0       -2.700770    0.517910   -0.002743
 ---------------------------------------------------------------------

 SCF Done:  E(RB2PLYPD3) =  -155.700184614     A.U. after   11 cycles
 E2(B2PLYPD3) =    -0.2258029196D+00 E(B2PLYPD3) =    -0.15592598753384D+03

 The electronic state is 1-A.
 Alpha  occ. eigenvalues --  -10.62570 -10.62124 -10.61519 -10.61475  -0.93194
 Alpha  occ. eigenvalues --   -0.84717  -0.70434  -0.64515  -0.54594  -0.54106
 Alpha  occ. eigenvalues --   -0.46533  -0.45859  -0.41480  -0.38191  -0.27420
 Alpha virt. eigenvalues --    0.01506   0.07016   0.07491   0.08090   0.09563
 Alpha virt. eigenvalues --    0.11713   0.12476   0.14853   0.15831   0.16214
 Alpha virt. eigenvalues --    0.18767   0.20422   0.21808   0.22889   0.23707

 Mulliken charges:
               1
     1  C   -0.175955
     2  C   -0.027983
     3  C   -0.032291
     4  C   -0.179982
     5  H    0.082697
     6  H    0.063536
     7  H    0.058179
     8  H    0.057560
     9  H    0.070049
    10  H    0.084191
 Sum of Mulliken charges =   0.00000

 Dipole moment (field-independent basis, Debye):
    X=             -0.0069    Y=             -0.0018    Z=              0.0624  Tot=              0.0628
 Quadrupole moment (field-independent basis, Debye-Ang):
   XX=            -23.4928   YY=            -23.0877   ZZ=            -29.2371
   XY=              0.2138   XZ=             -0.0273   YZ=             -0.0768

 1\1\GINC-NODE25\SP\RB2PLYPD3-FC\def2QZVP\C4H6\BOITTIER\26-Aug-2020\0\\
 #p B2PLYPD3/Def2QZVP\\butadiene\\0,1\C,0,-3.838833,0.216875,0.00345\C,
 0,-2.70697,-0.491255,0.060537\C,0,-1.389132,0.082199,0.018994\C,0,-0.2
 70547,-0.668692,0.025358\H,0,-4.830683,-0.242479,0.033135\H,0,-3.82957
 5,1.288927,-0.085113\H,0,-2.761787,-1.552072,0.094362\H,0,-1.32497,1.1
 64654,0.046837\H,0,-0.305768,-1.733285,-0.05131\H,0,0.696977,-0.199333
 ,0.018287\\Version=ES64L-G09RevD.01\State=1-A\HF=-155.7001846\MP2=-155
 .9259875\RMSD=5.645e-09\PG=C01 [X(C4H6)]\\@

 Normal termination of Gaussian 09 at Wed Aug 26 19:14:28 2020.
