 Gaussian 09, Revision D.01,
 Gaussian 09:  ES64L-G09RevD.01 24-Apr-2013

 --------------------
 #p B2PLYPD3/Def2QZVP
 --------------------

 ---------
 butadiene
 ---------
 Symbolic Z-matrix:
 Charge =  0 Multiplicity = 1

                         Standard orientation:
 ---------------------------------------------------------------------
 Center     Atomic      Atomic             Coordinates (Angstroms)
 Number     Number       Type             X           Y           Z
 ---------------------------------------------------------------------
      1          6           0       -1.849835   -0.107140   -0.004466
      2          6           0       -0.609649    0.395390   -0.015390
      3          6           0        0.606872   -0.420966   -0.001569
      4          6           0        1.849263    0.114108    0.007334
      5          1           0       -2.683609    0.563769    0.073069
      6          1           0       -2.057205   -1.160113    0.022116
      7          1           0       -0.455157    1.466012   -0.005815
      8          1           0        0.498808   -1.482585   -0.028581
      9          1           0        1.967444    1.195616   -0.008127
     10          1           0        2.749816   -0.471047    0.031877
 ---------------------------------------------------------------------

 SCF Done:  E(RB2PLYPD3) =  -155.700206561     A.U. after   11 cycles
 E2(B2PLYPD3) =    -0.2259263604D+00 E(B2PLYPD3) =    -0.15592613292122D+03

 The electronic state is 1-A.
 Alpha  occ. eigenvalues --  -10.62710 -10.62654 -10.61760 -10.61369  -0.92669
 Alpha  occ. eigenvalues --   -0.84725  -0.70218  -0.64399  -0.54559  -0.53958
 Alpha  occ. eigenvalues --   -0.46700  -0.45779  -0.41416  -0.37813  -0.27543
 Alpha virt. eigenvalues --    0.01584   0.07004   0.07479   0.08132   0.09390
 Alpha virt. eigenvalues --    0.11660   0.12483   0.14682   0.15928   0.16137
 Alpha virt. eigenvalues --    0.18846   0.20596   0.21556   0.22955   0.23791

 Mulliken charges:
               1
     1  C   -0.176579
     2  C   -0.031700
     3  C   -0.036755
     4  C   -0.175436
     5  H    0.084006
     6  H    0.070174
     7  H    0.057104
     8  H    0.060007
     9  H    0.061677
    10  H    0.087502
 Sum of Mulliken charges =   0.00000

 Dipole moment (field-independent basis, Debye):
    X=              0.0155    Y=             -0.0201    Z=              0.0676  Tot=              0.0722
 Quadrupole moment (field-independent basis, Debye-Ang):
   XX=            -23.4540   YY=            -23.0439   ZZ=            -29.3310
   XY=              0.1667   XZ=             -0.2129   YZ=              0.0300

 1\1\GINC-NODE09\SP\RB2PLYPD3-FC\def2QZVP\C4H6\BOITTIER\26-Aug-2020\0\\
 #p B2PLYPD3/Def2QZVP\\butadiene\\0,1\C,0,-3.852558,0.220927,0.018584\C
 ,0,-2.722845,-0.495768,0.047106\C,0,-1.379454,0.088067,0.01567\C,0,-0.
 253448,-0.661559,0.025247\H,0,-4.793429,-0.291099,-0.043879\H,0,-3.867
 38,1.292924,-0.036749\H,0,-2.763264,-1.576591,0.066586\H,0,-1.294955,1
 .152163,0.014019\H,0,-0.331507,-1.745891,0.069921\H,0,0.737558,-0.2485
 96,-0.011819\\Version=ES64L-G09RevD.01\State=1-A\HF=-155.7002066\MP2=-
 155.9261329\RMSD=4.360e-09\PG=C01 [X(C4H6)]\\@

 Normal termination of Gaussian 09 at Wed Aug 26 18:45:40 2020.
