 Gaussian 09, Revision D.01,
 Gaussian 09:  ES64L-G09RevD.01 24-Apr-2013

 --------------------
 #p B2PLYPD3/Def2QZVP
 --------------------

 ---------
 butadiene
 ---------
 Symbolic Z-matrix:
 Charge =  0 Multiplicity = 1

                         Standard orientation:
 ---------------------------------------------------------------------
 Center     Atomic      Atomic             Coordinates (Angstroms)
 Number     Number       Type             X           Y           Z
 ---------------------------------------------------------------------
      1          6           0        1.854244    0.093028   -0.009095
      2          6           0        0.602012   -0.373125    0.005036
      3          6           0       -0.605370    0.414147   -0.025728
      4          6           0       -1.841406   -0.128055    0.009285
      5          1           0        2.726840   -0.585494    0.109803
      6          1           0        2.085674    1.135251    0.008037
      7          1           0        0.378090   -1.421411   -0.061116
      8          1           0       -0.526674    1.501722   -0.005655
      9          1           0       -2.016155   -1.223009   -0.013557
     10          1           0       -2.704658    0.556969    0.085503
 ---------------------------------------------------------------------

 SCF Done:  E(RB2PLYPD3) =  -155.696164359     A.U. after   11 cycles
 E2(B2PLYPD3) =    -0.2265384206D+00 E(B2PLYPD3) =    -0.15592270277930D+03

 The electronic state is 1-A.
 Alpha  occ. eigenvalues --  -10.62685 -10.62433 -10.62366 -10.61780  -0.93013
 Alpha  occ. eigenvalues --   -0.84583  -0.70236  -0.64016  -0.54399  -0.53549
 Alpha  occ. eigenvalues --   -0.46459  -0.45639  -0.41036  -0.38061  -0.27524
 Alpha virt. eigenvalues --    0.01339   0.06917   0.07402   0.07969   0.09602
 Alpha virt. eigenvalues --    0.11678   0.12263   0.14768   0.15545   0.16144
 Alpha virt. eigenvalues --    0.18792   0.20098   0.21801   0.22708   0.23587

 Mulliken charges:
               1
     1  C   -0.173915
     2  C   -0.030094
     3  C   -0.029061
     4  C   -0.179354
     5  H    0.080800
     6  H    0.068880
     7  H    0.057706
     8  H    0.053430
     9  H    0.067630
    10  H    0.083977
 Sum of Mulliken charges =   0.00000

 Dipole moment (field-independent basis, Debye):
    X=             -0.0428    Y=              0.0361    Z=              0.0985  Tot=              0.1133
 Quadrupole moment (field-independent basis, Debye-Ang):
   XX=            -23.6154   YY=            -23.1191   ZZ=            -29.3581
   XY=              0.2941   XZ=              0.0804   YZ=              0.0913

 1\1\GINC-NODE36\SP\RB2PLYPD3-FC\def2QZVP\C4H6\BOITTIER\26-Aug-2020\0\\
 #p B2PLYPD3/Def2QZVP\\butadiene\\0,1\C,0,-3.857732,0.213425,0.023109\C
 ,0,-2.711229,-0.472924,0.029214\C,0,-1.380692,0.08219,0.034989\C,0,-0.
 264025,-0.676693,0.022916\H,0,-4.839628,-0.29888,-0.073727\H,0,-3.8958
 14,1.279061,-0.03213\H,0,-2.681445,-1.541395,0.133639\H,0,-1.260351,1.
 164505,-0.024398\H,0,-0.291247,-1.783632,0.085601\H,0,0.709119,-0.1632
 97,-0.075498\\Version=ES64L-G09RevD.01\State=1-A\HF=-155.6961644\MP2=-
 155.9227028\RMSD=5.499e-09\PG=C01 [X(C4H6)]\\@

 Normal termination of Gaussian 09 at Wed Aug 26 09:20:40 2020.
