 Gaussian 09, Revision D.01,
 Gaussian 09:  ES64L-G09RevD.01 24-Apr-2013

 --------------------
 #p B2PLYPD3/Def2QZVP
 --------------------

 ---------
 butadiene
 ---------
 Symbolic Z-matrix:
 Charge =  0 Multiplicity = 1

                         Standard orientation:
 ---------------------------------------------------------------------
 Center     Atomic      Atomic             Coordinates (Angstroms)
 Number     Number       Type             X           Y           Z
 ---------------------------------------------------------------------
      1          6           0        1.793464   -0.146537   -0.068871
      2          6           0        0.593773    0.433826    0.035443
      3          6           0       -0.595576   -0.358013    0.064629
      4          6           0       -1.837272    0.086414   -0.022007
      5          1           0        2.628862    0.449845    0.062740
      6          1           0        1.955179   -1.252408   -0.221323
      7          1           0        0.617599    1.607561    0.171061
      8          1           0       -0.374847   -1.397874    0.326579
      9          1           0       -1.957747    1.173442   -0.212341
     10          1           0       -2.595384   -0.674706   -0.181879
 ---------------------------------------------------------------------

 SCF Done:  E(RB2PLYPD3) =  -155.680530054     A.U. after   11 cycles
 E2(B2PLYPD3) =    -0.2269207594D+00 E(B2PLYPD3) =    -0.15590745081322D+03

 The electronic state is 1-A.
 Alpha  occ. eigenvalues --  -10.63180 -10.62125 -10.61472 -10.61427  -0.93487
 Alpha  occ. eigenvalues --   -0.85146  -0.70119  -0.62592  -0.54460  -0.53693
 Alpha  occ. eigenvalues --   -0.45987  -0.45269  -0.41346  -0.37680  -0.27724
 Alpha virt. eigenvalues --    0.01616   0.06863   0.07205   0.07774   0.09454
 Alpha virt. eigenvalues --    0.11610   0.12323   0.14692   0.14952   0.16303
 Alpha virt. eigenvalues --    0.18846   0.19020   0.21257   0.22539   0.23881

 Mulliken charges:
               1
     1  C   -0.181236
     2  C   -0.032896
     3  C   -0.020439
     4  C   -0.180592
     5  H    0.087125
     6  H    0.064562
     7  H    0.044991
     8  H    0.061456
     9  H    0.069070
    10  H    0.087959
 Sum of Mulliken charges =   0.00000

 Dipole moment (field-independent basis, Debye):
    X=              0.1878    Y=             -0.0592    Z=             -0.0125  Tot=              0.1973
 Quadrupole moment (field-independent basis, Debye-Ang):
   XX=            -24.3892   YY=            -23.0095   ZZ=            -29.0973
   XY=              0.1190   XZ=              0.7319   YZ=              0.0662

 1\1\GINC-NODE29\SP\RB2PLYPD3-FC\def2QZVP\C4H6\BOITTIER\26-Aug-2020\0\\
 #p B2PLYPD3/Def2QZVP\\butadiene\\0,1\C,0,-3.795251,0.251852,-0.041905\
 C,0,-2.718695,-0.530897,0.081758\C,0,-1.405802,0.033574,0.071877\C,0,-
 0.265724,-0.631039,-0.001219\H,0,-4.722839,-0.177871,0.118722\H,0,-3.7
 56748,1.361516,-0.240671\H,0,-2.952123,-1.674424,0.267423\H,0,-1.43224
 8,1.106086,0.290208\H,0,-0.345523,-1.728843,-0.145544\H,0,0.615213,-0.
 026632,-0.196766\\Version=ES64L-G09RevD.01\State=1-A\HF=-155.6805301\M
 P2=-155.9074508\RMSD=7.260e-09\PG=C01 [X(C4H6)]\\@

 Normal termination of Gaussian 09 at Wed Aug 26 11:47:57 2020.
