 Gaussian 09, Revision D.01,
 Gaussian 09:  ES64L-G09RevD.01 24-Apr-2013

 --------------------
 #p B2PLYPD3/Def2QZVP
 --------------------

 ---------
 butadiene
 ---------
 Symbolic Z-matrix:
 Charge =  0 Multiplicity = 1

                         Standard orientation:
 ---------------------------------------------------------------------
 Center     Atomic      Atomic             Coordinates (Angstroms)
 Number     Number       Type             X           Y           Z
 ---------------------------------------------------------------------
      1          6           0        1.837008   -0.122474   -0.018512
      2          6           0        0.611575    0.404693    0.036157
      3          6           0       -0.605042   -0.383828    0.022801
      4          6           0       -1.835104    0.100287   -0.025953
      5          1           0        2.674324    0.518453   -0.050777
      6          1           0        2.028374   -1.179772   -0.018730
      7          1           0        0.513394    1.487847   -0.017623
      8          1           0       -0.508054   -1.452239    0.020246
      9          1           0       -2.029230    1.156901    0.009569
     10          1           0       -2.729436   -0.523257   -0.029641
 ---------------------------------------------------------------------

 SCF Done:  E(RB2PLYPD3) =  -155.700417245     A.U. after   11 cycles
 E2(B2PLYPD3) =    -0.2251455712D+00 E(B2PLYPD3) =    -0.15592556281590D+03

 The electronic state is 1-A.
 Alpha  occ. eigenvalues --  -10.62563 -10.62117 -10.61227 -10.61163  -0.93128
 Alpha  occ. eigenvalues --   -0.85227  -0.70355  -0.64224  -0.54815  -0.54300
 Alpha  occ. eigenvalues --   -0.46759  -0.45611  -0.41109  -0.38248  -0.27796
 Alpha virt. eigenvalues --    0.01827   0.07020   0.07528   0.08049   0.09735
 Alpha virt. eigenvalues --    0.11664   0.12492   0.14805   0.15835   0.16312
 Alpha virt. eigenvalues --    0.18875   0.20370   0.21837   0.22794   0.23849

 Mulliken charges:
               1
     1  C   -0.175038
     2  C   -0.035873
     3  C   -0.027180
     4  C   -0.171200
     5  H    0.084933
     6  H    0.069592
     7  H    0.056255
     8  H    0.055784
     9  H    0.061102
    10  H    0.081626
 Sum of Mulliken charges =   0.00000

 Dipole moment (field-independent basis, Debye):
    X=              0.0272    Y=             -0.0032    Z=             -0.0347  Tot=              0.0442
 Quadrupole moment (field-independent basis, Debye-Ang):
   XX=            -23.3263   YY=            -23.1112   ZZ=            -29.1640
   XY=             -0.1276   XZ=             -0.1610   YZ=             -0.0330

 1\1\GINC-NODE37\SP\RB2PLYPD3-FC\def2QZVP\C4H6\BOITTIER\26-Aug-2020\0\\
 #p B2PLYPD3/Def2QZVP\\butadiene\\0,1\C,0,-3.836727,0.232447,-0.004179\
 C,0,-2.725003,-0.503302,0.068777\C,0,-1.387173,0.054643,0.036982\C,0,-
 0.263425,-0.642484,0.005368\H,0,-4.775093,-0.249332,-0.020995\H,0,-3.8
 36232,1.306497,-0.034473\H,0,-2.821915,-1.587655,0.045543\H,0,-1.29183
 8,1.122706,0.004319\H,0,-0.261008,-1.715366,0.070941\H,0,0.727862,-0.1
 88988,-0.013102\\Version=ES64L-G09RevD.01\State=1-A\HF=-155.7004172\MP
 2=-155.9255628\RMSD=5.566e-09\PG=C01 [X(C4H6)]\\@

 Normal termination of Gaussian 09 at Wed Aug 26 20:18:10 2020.
