 Gaussian 09, Revision D.01,
 Gaussian 09:  ES64L-G09RevD.01 24-Apr-2013

 --------------------
 #p B2PLYPD3/Def2QZVP
 --------------------

 ---------
 butadiene
 ---------
 Symbolic Z-matrix:
 Charge =  0 Multiplicity = 1

                         Standard orientation:
 ---------------------------------------------------------------------
 Center     Atomic      Atomic             Coordinates (Angstroms)
 Number     Number       Type             X           Y           Z
 ---------------------------------------------------------------------
      1          6           0        1.834422   -0.117696    0.026474
      2          6           0        0.618280    0.393426   -0.040732
      3          6           0       -0.616324   -0.368908   -0.025313
      4          6           0       -1.847832    0.099784    0.005677
      5          1           0        2.680258    0.523381   -0.018989
      6          1           0        2.055349   -1.209926    0.139180
      7          1           0        0.512606    1.475620   -0.035024
      8          1           0       -0.500073   -1.429828   -0.083050
      9          1           0       -1.999501    1.178048    0.161140
     10          1           0       -2.679921   -0.576938    0.040113
 ---------------------------------------------------------------------

 SCF Done:  E(RB2PLYPD3) =  -155.697869937     A.U. after   11 cycles
 E2(B2PLYPD3) =    -0.2251044077D+00 E(B2PLYPD3) =    -0.15592297434492D+03

 The electronic state is 1-A.
 Alpha  occ. eigenvalues --  -10.62357 -10.61882 -10.61608 -10.61272  -0.93247
 Alpha  occ. eigenvalues --   -0.85491  -0.70199  -0.63745  -0.54899  -0.53938
 Alpha  occ. eigenvalues --   -0.47183  -0.45272  -0.40661  -0.38302  -0.28081
 Alpha virt. eigenvalues --    0.01884   0.06998   0.07433   0.08038   0.09930
 Alpha virt. eigenvalues --    0.11664   0.12283   0.14836   0.15705   0.16250
 Alpha virt. eigenvalues --    0.18866   0.20083   0.21664   0.22390   0.23958

 Mulliken charges:
               1
     1  C   -0.169800
     2  C   -0.035862
     3  C   -0.022861
     4  C   -0.175092
     5  H    0.085757
     6  H    0.064756
     7  H    0.051484
     8  H    0.051848
     9  H    0.061998
    10  H    0.087771
 Sum of Mulliken charges =   0.00000

 Dipole moment (field-independent basis, Debye):
    X=              0.0757    Y=             -0.0259    Z=              0.1514  Tot=              0.1712
 Quadrupole moment (field-independent basis, Debye-Ang):
   XX=            -23.5113   YY=            -23.1737   ZZ=            -29.1051
   XY=              0.0539   XZ=             -0.1823   YZ=              0.0478

 1\1\GINC-NODE33\SP\RB2PLYPD3-FC\def2QZVP\C4H6\BOITTIER\26-Aug-2020\0\\
 #p B2PLYPD3/Def2QZVP\\butadiene\\0,1\C,0,-3.837377,0.228375,0.044667\C
 ,0,-2.731598,-0.492644,-0.001677\C,0,-1.38114,0.03827,-0.007331\C,0,-0
 .252441,-0.640507,0.04312\H,0,-4.783787,-0.25335,0.017574\H,0,-3.86040
 2,1.345595,0.120607\H,0,-2.819897,-1.575606,0.040024\H,0,-1.307166,1.1
 00471,-0.100366\H,0,-0.294385,-1.722835,0.234516\H,0,0.686746,-0.12164
 5,0.057974\\Version=ES64L-G09RevD.01\State=1-A\HF=-155.6978699\MP2=-15
 5.9229743\RMSD=3.360e-09\PG=C01 [X(C4H6)]\\@

 Normal termination of Gaussian 09 at Wed Aug 26 09:03:14 2020.
