 Gaussian 09, Revision D.01,
 Gaussian 09:  ES64L-G09RevD.01 24-Apr-2013

 --------------------
 #p B2PLYPD3/Def2QZVP
 --------------------

 ---------
 butadiene
 ---------
 Symbolic Z-matrix:
 Charge =  0 Multiplicity = 1

                         Standard orientation:
 ---------------------------------------------------------------------
 Center     Atomic      Atomic             Coordinates (Angstroms)
 Number     Number       Type             X           Y           Z
 ---------------------------------------------------------------------
      1          6           0        1.833472   -0.121458   -0.013446
      2          6           0        0.600817    0.421672    0.030149
      3          6           0       -0.606258   -0.400495    0.022054
      4          6           0       -1.832692    0.101229   -0.022223
      5          1           0        2.720640    0.485071   -0.039468
      6          1           0        1.994185   -1.172113   -0.014574
      7          1           0        0.478042    1.498795   -0.039558
      8          1           0       -0.459656   -1.478322   -0.001031
      9          1           0       -1.966450    1.170542    0.022563
     10          1           0       -2.738797   -0.509666   -0.027142
 ---------------------------------------------------------------------

 SCF Done:  E(RB2PLYPD3) =  -155.700239227     A.U. after   11 cycles
 E2(B2PLYPD3) =    -0.2257175875D+00 E(B2PLYPD3) =    -0.15592595681470D+03

 The electronic state is 1-A.
 Alpha  occ. eigenvalues --  -10.62834 -10.62435 -10.61422 -10.61362  -0.92928
 Alpha  occ. eigenvalues --   -0.84849  -0.70058  -0.64286  -0.54581  -0.53968
 Alpha  occ. eigenvalues --   -0.46695  -0.45601  -0.41253  -0.38049  -0.27651
 Alpha virt. eigenvalues --    0.01807   0.07045   0.07416   0.08087   0.09382
 Alpha virt. eigenvalues --    0.11692   0.12575   0.14652   0.15834   0.16199
 Alpha virt. eigenvalues --    0.18768   0.20327   0.21820   0.23229   0.23715

 Mulliken charges:
               1
     1  C   -0.176363
     2  C   -0.036492
     3  C   -0.026686
     4  C   -0.173185
     5  H    0.083210
     6  H    0.068012
     7  H    0.059014
     8  H    0.055221
     9  H    0.062181
    10  H    0.085088
 Sum of Mulliken charges =   0.00000

 Dipole moment (field-independent basis, Debye):
    X=              0.0259    Y=             -0.0128    Z=             -0.0513  Tot=              0.0589
 Quadrupole moment (field-independent basis, Debye-Ang):
   XX=            -23.4261   YY=            -23.0974   ZZ=            -29.2747
   XY=             -0.1805   XZ=             -0.1453   YZ=             -0.0129

 1\1\GINC-NODE15\SP\RB2PLYPD3-FC\def2QZVP\C4H6\BOITTIER\26-Aug-2020\0\\
 #p B2PLYPD3/Def2QZVP\\butadiene\\0,1\C,0,-3.834311,0.233831,0.000457\C
 ,0,-2.719403,-0.52074,0.063163\C,0,-1.384118,0.070264,0.035178\C,0,-0.
 268075,-0.644987,0.008849\H,0,-4.816187,-0.203675,-0.010869\H,0,-3.803
 361,1.295787,-0.031116\H,0,-2.792592,-1.603921,0.024573\H,0,-1.334448,
 1.155771,-0.019076\H,0,-0.3288,-1.719191,0.084514\H,0,0.733145,-0.2074
 79,-0.010822\\Version=ES64L-G09RevD.01\State=1-A\HF=-155.7002392\MP2=-
 155.9259568\RMSD=5.692e-09\PG=C01 [X(C4H6)]\\@

 Normal termination of Gaussian 09 at Wed Aug 26 20:04:51 2020.
