 Gaussian 09, Revision D.01,
 Gaussian 09:  ES64L-G09RevD.01 24-Apr-2013

 --------------------
 #p B2PLYPD3/Def2QZVP
 --------------------

 ---------
 butadiene
 ---------
 Symbolic Z-matrix:
 Charge =  0 Multiplicity = 1

                         Standard orientation:
 ---------------------------------------------------------------------
 Center     Atomic      Atomic             Coordinates (Angstroms)
 Number     Number       Type             X           Y           Z
 ---------------------------------------------------------------------
      1          6           0       -1.831332    0.117390   -0.052073
      2          6           0       -0.607519   -0.366889    0.077094
      3          6           0        0.626692    0.404778    0.015785
      4          6           0        1.822498   -0.137429   -0.013567
      5          1           0       -2.603102   -0.593386   -0.037223
      6          1           0       -2.192766    1.091296    0.079494
      7          1           0       -0.528350   -1.457724   -0.117707
      8          1           0        0.597714    1.563515   -0.035159
      9          1           0        1.908640   -1.222571    0.023954
     10          1           0        2.755827    0.511762   -0.076797
 ---------------------------------------------------------------------

 SCF Done:  E(RB2PLYPD3) =  -155.684781024     A.U. after   11 cycles
 E2(B2PLYPD3) =    -0.2260088865D+00 E(B2PLYPD3) =    -0.15591078991054D+03

 The electronic state is 1-A.
 Alpha  occ. eigenvalues --  -10.62889 -10.62787 -10.61793 -10.60584  -0.93133
 Alpha  occ. eigenvalues --   -0.85623  -0.69964  -0.63062  -0.54778  -0.53878
 Alpha  occ. eigenvalues --   -0.46200  -0.44937  -0.40375  -0.38322  -0.28205
 Alpha virt. eigenvalues --    0.01928   0.06995   0.07172   0.07805   0.09455
 Alpha virt. eigenvalues --    0.11523   0.12460   0.14924   0.15358   0.16263
 Alpha virt. eigenvalues --    0.18398   0.19335   0.22436   0.22826   0.24375

 Mulliken charges:
               1
     1  C   -0.160056
     2  C   -0.038124
     3  C   -0.024666
     4  C   -0.169151
     5  H    0.068500
     6  H    0.071933
     7  H    0.056844
     8  H    0.046072
     9  H    0.064504
    10  H    0.084144
 Sum of Mulliken charges =   0.00000

 Dipole moment (field-independent basis, Debye):
    X=             -0.0558    Y=              0.0162    Z=             -0.0554  Tot=              0.0803
 Quadrupole moment (field-independent basis, Debye-Ang):
   XX=            -23.4746   YY=            -23.1826   ZZ=            -29.1737
   XY=             -0.0671   XZ=             -0.1987   YZ=              0.1703

 1\1\GINC-NODE34\SP\RB2PLYPD3-FC\def2QZVP\C4H6\BOITTIER\26-Aug-2020\0\\
 #p B2PLYPD3/Def2QZVP\\butadiene\\0,1\C,0,-3.837447,0.214705,-0.031693\
 C,0,-2.715306,-0.471854,0.103822\C,0,-1.366542,0.074077,0.031012\C,0,-
 0.282449,-0.666904,0.00886\H,0,-4.720338,-0.351789,-0.006403\H,0,-4.02
 4854,1.238143,0.086165\H,0,-2.826299,-1.562573,-0.075479\H,0,-1.195092
 ,1.219576,-0.036394\H,0,-0.384922,-1.749984,0.061773\H,0,0.748796,-0.1
 89646,-0.063999\\Version=ES64L-G09RevD.01\State=1-A\HF=-155.684781\MP2
 =-155.9107899\RMSD=9.549e-09\PG=C01 [X(C4H6)]\\@

 Normal termination of Gaussian 09 at Wed Aug 26 12:21:35 2020.
