 Gaussian 09, Revision D.01,
 Gaussian 09:  ES64L-G09RevD.01 24-Apr-2013

 --------------------
 #p B2PLYPD3/Def2QZVP
 --------------------

 ---------
 butadiene
 ---------
 Symbolic Z-matrix:
 Charge =  0 Multiplicity = 1

                         Standard orientation:
 ---------------------------------------------------------------------
 Center     Atomic      Atomic             Coordinates (Angstroms)
 Number     Number       Type             X           Y           Z
 ---------------------------------------------------------------------
      1          6           0        1.827878    0.082681    0.029983
      2          6           0        0.586140   -0.364639   -0.040108
      3          6           0       -0.600703    0.412740   -0.013980
      4          6           0       -1.836268   -0.120404    0.009905
      5          1           0        2.697231   -0.554490    0.064438
      6          1           0        2.073747    1.175955    0.057375
      7          1           0        0.478005   -1.464691   -0.147861
      8          1           0       -0.454064    1.468722   -0.078850
      9          1           0       -1.955033   -1.201721    0.169644
     10          1           0       -2.702166    0.513958    0.020461
 ---------------------------------------------------------------------

 SCF Done:  E(RB2PLYPD3) =  -155.696443102     A.U. after   11 cycles
 E2(B2PLYPD3) =    -0.2260801845D+00 E(B2PLYPD3) =    -0.15592252328679D+03

 The electronic state is 1-A.
 Alpha  occ. eigenvalues --  -10.62334 -10.62231 -10.61864 -10.61652  -0.93515
 Alpha  occ. eigenvalues --   -0.84870  -0.70530  -0.63747  -0.55036  -0.53595
 Alpha  occ. eigenvalues --   -0.46845  -0.45227  -0.41038  -0.38350  -0.27563
 Alpha virt. eigenvalues --    0.01427   0.07037   0.07361   0.07976   0.09802
 Alpha virt. eigenvalues --    0.11639   0.12400   0.14717   0.15837   0.16123
 Alpha virt. eigenvalues --    0.18765   0.20398   0.21587   0.22315   0.23774

 Mulliken charges:
               1
     1  C   -0.173989
     2  C   -0.016503
     3  C   -0.037113
     4  C   -0.175659
     5  H    0.085934
     6  H    0.053697
     7  H    0.047280
     8  H    0.059041
     9  H    0.069893
    10  H    0.087421
 Sum of Mulliken charges =   0.00000

 Dipole moment (field-independent basis, Debye):
    X=              0.0152    Y=              0.0283    Z=              0.0483  Tot=              0.0580
 Quadrupole moment (field-independent basis, Debye-Ang):
   XX=            -23.4441   YY=            -23.2727   ZZ=            -29.1966
   XY=              0.0226   XZ=             -0.1154   YZ=             -0.1262

 1\1\GINC-NODE30\SP\RB2PLYPD3-FC\def2QZVP\C4H6\BOITTIER\26-Aug-2020\0\\
 #p B2PLYPD3/Def2QZVP\\butadiene\\0,1\C,0,-3.836749,0.20119,-0.009196\C
 ,0,-2.698195,-0.46525,0.071265\C,0,-1.388756,0.079934,0.029562\C,0,-0.
 272345,-0.671681,0.017881\H,0,-4.808528,-0.265852,-0.030796\H,0,-3.877
 525,1.320214,-0.059908\H,0,-2.793797,-1.563927,0.202362\H,0,-1.338557,
 1.145998,0.071954\H,0,-0.354901,-1.759504,-0.118843\H,0,0.695378,-0.20
 7706,-0.005464\\Version=ES64L-G09RevD.01\State=1-A\HF=-155.6964431\MP2
 =-155.9225233\RMSD=6.437e-09\PG=C01 [X(C4H6)]\\@

 Normal termination of Gaussian 09 at Wed Aug 26 09:30:00 2020.
