 Gaussian 09, Revision D.01,
 Gaussian 09:  ES64L-G09RevD.01 24-Apr-2013

 --------------------
 #p B2PLYPD3/Def2QZVP
 --------------------

 ---------
 butadiene
 ---------
 Symbolic Z-matrix:
 Charge =  0 Multiplicity = 1

                         Standard orientation:
 ---------------------------------------------------------------------
 Center     Atomic      Atomic             Coordinates (Angstroms)
 Number     Number       Type             X           Y           Z
 ---------------------------------------------------------------------
      1          6           0       -1.840764   -0.119058   -0.024137
      2          6           0       -0.613926    0.411070    0.013634
      3          6           0        0.607093   -0.379798    0.035424
      4          6           0        1.841425    0.096121   -0.013412
      5          1           0       -2.733180    0.484492   -0.016185
      6          1           0       -1.975128   -1.194273    0.006863
      7          1           0       -0.498852    1.494337    0.032110
      8          1           0        0.471308   -1.478744   -0.008337
      9          1           0        2.024886    1.164061   -0.029748
     10          1           0        2.748006   -0.519880   -0.053753
 ---------------------------------------------------------------------

 SCF Done:  E(RB2PLYPD3) =  -155.700228786     A.U. after   11 cycles
 E2(B2PLYPD3) =    -0.2257086803D+00 E(B2PLYPD3) =    -0.15592593746660D+03

 The electronic state is 1-A.
 Alpha  occ. eigenvalues --  -10.62737 -10.62638 -10.61602 -10.61553  -0.92976
 Alpha  occ. eigenvalues --   -0.85031  -0.70107  -0.63814  -0.54791  -0.53726
 Alpha  occ. eigenvalues --   -0.47006  -0.45191  -0.40755  -0.38231  -0.27858
 Alpha virt. eigenvalues --    0.01764   0.06998   0.07389   0.08001   0.09677
 Alpha virt. eigenvalues --    0.11612   0.12521   0.14583   0.15795   0.16278
 Alpha virt. eigenvalues --    0.18849   0.20413   0.21742   0.22747   0.23603

 Mulliken charges:
               1
     1  C   -0.171927
     2  C   -0.034431
     3  C   -0.023435
     4  C   -0.170719
     5  H    0.087203
     6  H    0.064741
     7  H    0.054212
     8  H    0.048940
     9  H    0.060015
    10  H    0.085401
 Sum of Mulliken charges =   0.00000

 Dipole moment (field-independent basis, Debye):
    X=             -0.0123    Y=              0.0244    Z=             -0.0263  Tot=              0.0379
 Quadrupole moment (field-independent basis, Debye-Ang):
   XX=            -23.2057   YY=            -23.2775   ZZ=            -29.2727
   XY=              0.1061   XZ=             -0.2318   YZ=              0.0423

 1\1\GINC-NODE29\SP\RB2PLYPD3-FC\def2QZVP\C4H6\BOITTIER\26-Aug-2020\0\\
 #p B2PLYPD3/Def2QZVP\\butadiene\\0,1\C,0,-3.841226,0.231149,0.040588\C
 ,0,-2.728469,-0.50977,0.020461\C,0,-1.386127,0.050203,-0.016733\C,0,-0
 .256259,-0.63654,0.048391\H,0,-4.826882,-0.203831,0.04454\H,0,-3.78195
 3,1.311975,-0.01776\H,0,-2.808204,-1.596329,0.029481\H,0,-1.323955,1.1
 56512,-0.000942\H,0,-0.265938,-1.719323,0.092073\H,0,0.745585,-0.19101
 8,0.076557\\Version=ES64L-G09RevD.01\State=1-A\HF=-155.7002288\MP2=-15
 5.9259375\RMSD=5.295e-09\PG=C01 [X(C4H6)]\\@

 Normal termination of Gaussian 09 at Wed Aug 26 18:38:15 2020.
