 Gaussian 09, Revision D.01,
 Gaussian 09:  ES64L-G09RevD.01 24-Apr-2013

 --------------------
 #p B2PLYPD3/Def2QZVP
 --------------------

 ---------
 butadiene
 ---------
 Symbolic Z-matrix:
 Charge =  0 Multiplicity = 1

                         Standard orientation:
 ---------------------------------------------------------------------
 Center     Atomic      Atomic             Coordinates (Angstroms)
 Number     Number       Type             X           Y           Z
 ---------------------------------------------------------------------
      1          6           0        1.854330    0.076575   -0.091416
      2          6           0        0.625121   -0.327529    0.057204
      3          6           0       -0.625151    0.418490    0.039153
      4          6           0       -1.826236   -0.172617   -0.063697
      5          1           0        2.692051   -0.628867    0.132668
      6          1           0        2.038786    1.159601   -0.217364
      7          1           0        0.563241   -1.412952    0.270843
      8          1           0       -0.635810    1.619487    0.346943
      9          1           0       -2.111868   -1.177087   -0.140437
     10          1           0       -2.714785    0.470307   -0.040119
 ---------------------------------------------------------------------

 SCF Done:  E(RB2PLYPD3) =  -155.673751229     A.U. after   12 cycles
 E2(B2PLYPD3) =    -0.2268625476D+00 E(B2PLYPD3) =    -0.15590061377670D+03

 The electronic state is 1-A.
 Alpha  occ. eigenvalues --  -10.64607 -10.62215 -10.61818 -10.61464  -0.92829
 Alpha  occ. eigenvalues --   -0.85398  -0.70040  -0.62323  -0.55082  -0.52951
 Alpha  occ. eigenvalues --   -0.46916  -0.44246  -0.40269  -0.37065  -0.28397
 Alpha virt. eigenvalues --    0.01682   0.06426   0.07078   0.07683   0.09824
 Alpha virt. eigenvalues --    0.11190   0.12343   0.14619   0.15443   0.16266
 Alpha virt. eigenvalues --    0.18895   0.19379   0.21501   0.21946   0.23810

 Mulliken charges:
               1
     1  C   -0.167871
     2  C   -0.016032
     3  C   -0.046700
     4  C   -0.168550
     5  H    0.084000
     6  H    0.060606
     7  H    0.049843
     8  H    0.054629
     9  H    0.077511
    10  H    0.072562
 Sum of Mulliken charges =   0.00000

 Dipole moment (field-independent basis, Debye):
    X=             -0.1970    Y=             -0.1285    Z=              0.3392  Tot=              0.4128
 Quadrupole moment (field-independent basis, Debye-Ang):
   XX=            -23.4516   YY=            -23.4071   ZZ=            -29.1506
   XY=              0.1654   XZ=              0.3638   YZ=             -0.0262

 1\1\GINC-NODE10\SP\RB2PLYPD3-FC\def2QZVP\C4H6\BOITTIER\26-Aug-2020\0\\
 #p B2PLYPD3/Def2QZVP\\butadiene\\0,1\C,0,-3.863218,0.179331,0.097675\C
 ,0,-2.720906,-0.433589,-0.028007\C,0,-1.362263,0.089852,-0.040154\C,0,
 -0.278217,-0.690831,0.093893\H,0,-4.809328,-0.383537,-0.09647\H,0,-3.8
 60981,1.282583,0.172931\H,0,-2.844746,-1.522468,-0.191163\H,0,-1.14969
 7,1.256229,-0.402953\H,0,-0.166523,-1.724562,0.217828\H,0,0.706285,-0.
 209516,0.043695\\Version=ES64L-G09RevD.01\State=1-A\HF=-155.6737512\MP
 2=-155.9006138\RMSD=4.014e-09\PG=C01 [X(C4H6)]\\@

 Normal termination of Gaussian 09 at Wed Aug 26 12:59:49 2020.
