 Gaussian 09, Revision D.01,
 Gaussian 09:  ES64L-G09RevD.01 24-Apr-2013

 --------------------
 #p B2PLYPD3/Def2QZVP
 --------------------

 ---------
 butadiene
 ---------
 Symbolic Z-matrix:
 Charge =  0 Multiplicity = 1

                         Standard orientation:
 ---------------------------------------------------------------------
 Center     Atomic      Atomic             Coordinates (Angstroms)
 Number     Number       Type             X           Y           Z
 ---------------------------------------------------------------------
      1          6           0       -1.846660    0.096470    0.007273
      2          6           0       -0.599400   -0.374641   -0.004506
      3          6           0        0.610330    0.405146   -0.017635
      4          6           0        1.840365   -0.115645   -0.004477
      5          1           0       -2.688288   -0.548945    0.064871
      6          1           0       -2.052016    1.162890   -0.030959
      7          1           0       -0.491517   -1.459530   -0.033459
      8          1           0        0.496116    1.480198    0.014725
      9          1           0        1.976907   -1.183499    0.013286
     10          1           0        2.730989    0.480903    0.087605
 ---------------------------------------------------------------------

 SCF Done:  E(RB2PLYPD3) =  -155.700664248     A.U. after   11 cycles
 E2(B2PLYPD3) =    -0.2255374243D+00 E(B2PLYPD3) =    -0.15592620167252D+03

 The electronic state is 1-A.
 Alpha  occ. eigenvalues --  -10.62482 -10.62388 -10.61490 -10.61300  -0.93165
 Alpha  occ. eigenvalues --   -0.85071  -0.70568  -0.64039  -0.54920  -0.54106
 Alpha  occ. eigenvalues --   -0.46957  -0.45455  -0.41182  -0.38253  -0.27656
 Alpha virt. eigenvalues --    0.01550   0.07015   0.07495   0.08050   0.09809
 Alpha virt. eigenvalues --    0.11645   0.12522   0.14739   0.15840   0.16278
 Alpha virt. eigenvalues --    0.18871   0.20518   0.21738   0.22583   0.23837

 Mulliken charges:
               1
     1  C   -0.178346
     2  C   -0.024108
     3  C   -0.032091
     4  C   -0.170770
     5  H    0.088140
     6  H    0.062755
     7  H    0.049547
     8  H    0.054989
     9  H    0.063647
    10  H    0.086236
 Sum of Mulliken charges =   0.00000

 Dipole moment (field-independent basis, Debye):
    X=              0.0200    Y=             -0.0011    Z=              0.0919  Tot=              0.0940
 Quadrupole moment (field-independent basis, Debye-Ang):
   XX=            -23.2697   YY=            -23.2210   ZZ=            -29.1982
   XY=             -0.0586   XZ=              0.2086   YZ=              0.0187

 1\1\GINC-NODE19\SP\RB2PLYPD3-FC\def2QZVP\C4H6\BOITTIER\26-Aug-2020\0\\
 #p B2PLYPD3/Def2QZVP\\butadiene\\0,1\C,0,-3.852219,0.210894,0.025263\C
 ,0,-2.709933,-0.476775,0.031146\C,0,-1.379801,0.072286,0.000029\C,0,-0
 .263343,-0.660427,0.032191\H,0,-4.796019,-0.270901,0.098277\H,0,-3.862
 68,1.295323,-0.043942\H,0,-2.798793,-1.563771,0.033383\H,0,-1.29893,1.
 150844,0.001456\H,0,-0.320869,-1.734487,0.080739\H,0,0.720134,-0.23121
 3,0.110351\\Version=ES64L-G09RevD.01\State=1-A\HF=-155.7006642\MP2=-15
 5.9262017\RMSD=4.224e-09\PG=C01 [X(C4H6)]\\@

 Normal termination of Gaussian 09 at Wed Aug 26 21:53:10 2020.
