 Gaussian 09, Revision D.01,
 Gaussian 09:  ES64L-G09RevD.01 24-Apr-2013

 --------------------
 #p B2PLYPD3/Def2QZVP
 --------------------

 ---------
 butadiene
 ---------
 Symbolic Z-matrix:
 Charge =  0 Multiplicity = 1

                         Standard orientation:
 ---------------------------------------------------------------------
 Center     Atomic      Atomic             Coordinates (Angstroms)
 Number     Number       Type             X           Y           Z
 ---------------------------------------------------------------------
      1          6           0        1.864859   -0.131746    0.091254
      2          6           0        0.625553    0.412742   -0.039015
      3          6           0       -0.611331   -0.420926   -0.103727
      4          6           0       -1.868071    0.126575    0.049732
      5          1           0        2.632224    0.575766   -0.166479
      6          1           0        1.974414   -1.186188    0.120799
      7          1           0        0.563188    1.508903   -0.118847
      8          1           0       -0.419786   -1.422465   -0.040416
      9          1           0       -2.038926    1.160897    0.203746
     10          1           0       -2.777171   -0.556780    0.011730
 ---------------------------------------------------------------------

 SCF Done:  E(RB2PLYPD3) =  -155.680657624     A.U. after   12 cycles
 E2(B2PLYPD3) =    -0.2277741393D+00 E(B2PLYPD3) =    -0.15590843176357D+03

 The electronic state is 1-A.
 Alpha  occ. eigenvalues --  -10.63160 -10.63040 -10.62865 -10.61298  -0.92072
 Alpha  occ. eigenvalues --   -0.84288  -0.70007  -0.64668  -0.54626  -0.52830
 Alpha  occ. eigenvalues --   -0.47400  -0.45440  -0.41511  -0.36760  -0.27303
 Alpha virt. eigenvalues --    0.00863   0.06874   0.07586   0.07887   0.08852
 Alpha virt. eigenvalues --    0.11855   0.12239   0.14723   0.15384   0.16032
 Alpha virt. eigenvalues --    0.19135   0.20036   0.20782   0.22600   0.24064

 Mulliken charges:
               1
     1  C   -0.183357
     2  C   -0.024379
     3  C   -0.062758
     4  C   -0.167993
     5  H    0.082252
     6  H    0.066463
     7  H    0.055875
     8  H    0.075528
     9  H    0.079839
    10  H    0.078531
 Sum of Mulliken charges =   0.00000

 Dipole moment (field-independent basis, Debye):
    X=             -0.1406    Y=              0.0094    Z=             -0.0877  Tot=              0.1660
 Quadrupole moment (field-independent basis, Debye-Ang):
   XX=            -24.2948   YY=            -22.8110   ZZ=            -29.4645
   XY=             -0.2262   XZ=             -0.8713   YZ=             -0.1478

 1\1\GINC-NODE34\SP\RB2PLYPD3-FC\def2QZVP\C4H6\BOITTIER\26-Aug-2020\0\\
 #p B2PLYPD3/Def2QZVP\\butadiene\\0,1\C,0,-3.864815,0.2399,0.098349\C,0
 ,-2.738896,-0.514623,-0.012645\C,0,-1.375242,0.089295,-0.081947\C,0,-0
 .234044,-0.66601,0.090927\H,0,-4.742599,-0.327613,-0.153191\H,0,-3.788
 871,1.297655,0.108783\H,0,-2.868343,-1.60615,-0.07301\H,0,-1.389421,1.
 109883,-0.037489\H,0,-0.247,-1.711264,0.264157\H,0,0.780504,-0.152437,
 0.048328\\Version=ES64L-G09RevD.01\State=1-A\HF=-155.6806576\MP2=-155.
 9084318\RMSD=4.837e-09\PG=C01 [X(C4H6)]\\@

 Normal termination of Gaussian 09 at Wed Aug 26 16:07:01 2020.
