 Gaussian 09, Revision D.01,
 Gaussian 09:  ES64L-G09RevD.01 24-Apr-2013

 --------------------
 #p B2PLYPD3/Def2QZVP
 --------------------

 ---------
 butadiene
 ---------
 Symbolic Z-matrix:
 Charge =  0 Multiplicity = 1

                         Standard orientation:
 ---------------------------------------------------------------------
 Center     Atomic      Atomic             Coordinates (Angstroms)
 Number     Number       Type             X           Y           Z
 ---------------------------------------------------------------------
      1          6           0        1.873387    0.067781   -0.004675
      2          6           0        0.576245   -0.343817   -0.008181
      3          6           0       -0.614209    0.423689   -0.000277
      4          6           0       -1.826881   -0.128510   -0.018338
      5          1           0        2.676601   -0.591564    0.086400
      6          1           0        2.175953    1.134027   -0.211558
      7          1           0        0.352333   -1.425293    0.151626
      8          1           0       -0.554280    1.494205    0.257167
      9          1           0       -1.967641   -1.252184   -0.081169
     10          1           0       -2.734217    0.525947   -0.013641
 ---------------------------------------------------------------------

 SCF Done:  E(RB2PLYPD3) =  -155.686881809     A.U. after   11 cycles
 E2(B2PLYPD3) =    -0.2274377654D+00 E(B2PLYPD3) =    -0.15591431957417D+03

 The electronic state is 1-A.
 Alpha  occ. eigenvalues --  -10.63030 -10.62725 -10.62476 -10.62043  -0.93278
 Alpha  occ. eigenvalues --   -0.84427  -0.70629  -0.63087  -0.54804  -0.53060
 Alpha  occ. eigenvalues --   -0.46944  -0.44715  -0.41201  -0.37722  -0.27424
 Alpha virt. eigenvalues --    0.00969   0.07070   0.07257   0.07737   0.09495
 Alpha virt. eigenvalues --    0.11487   0.12276   0.14686   0.15276   0.16138
 Alpha virt. eigenvalues --    0.18832   0.19666   0.21663   0.22448   0.23522

 Mulliken charges:
               1
     1  C   -0.186069
     2  C   -0.030595
     3  C   -0.030012
     4  C   -0.170270
     5  H    0.091439
     6  H    0.065822
     7  H    0.047186
     8  H    0.064336
     9  H    0.064047
    10  H    0.084116
 Sum of Mulliken charges =   0.00000

 Dipole moment (field-independent basis, Debye):
    X=             -0.1033    Y=              0.0070    Z=              0.1531  Tot=              0.1848
 Quadrupole moment (field-independent basis, Debye-Ang):
   XX=            -23.3506   YY=            -23.4822   ZZ=            -29.2901
   XY=              0.1403   XZ=             -0.0938   YZ=             -0.0901

 1\1\GINC-NODE22\SP\RB2PLYPD3-FC\def2QZVP\C4H6\BOITTIER\26-Aug-2020\0\\
 #p B2PLYPD3/Def2QZVP\\butadiene\\0,1\C,0,-3.88039,0.196904,0.02258\C,0
 ,-2.681954,-0.447698,0.038175\C,0,-1.36998,0.085331,0.007978\C,0,-0.28
 052,-0.681304,0.042216\H,0,-4.792324,-0.304489,-0.049287\H,0,-3.979079
 ,1.306238,0.198266\H,0,-2.663127,-1.556065,-0.090016\H,0,-1.231922,1.1
 4058,-0.280573\H,0,-0.350034,-1.809328,0.137793\H,0,0.732315,-0.206756
 ,0.018501\\Version=ES64L-G09RevD.01\State=1-A\HF=-155.6868818\MP2=-155
 .9143196\RMSD=6.015e-09\PG=C01 [X(C4H6)]\\@

 Normal termination of Gaussian 09 at Wed Aug 26 13:45:22 2020.
