 Gaussian 09, Revision D.01,
 Gaussian 09:  ES64L-G09RevD.01 24-Apr-2013

 --------------------
 #p B2PLYPD3/Def2QZVP
 --------------------

 ---------
 butadiene
 ---------
 Symbolic Z-matrix:
 Charge =  0 Multiplicity = 1

                         Standard orientation:
 ---------------------------------------------------------------------
 Center     Atomic      Atomic             Coordinates (Angstroms)
 Number     Number       Type             X           Y           Z
 ---------------------------------------------------------------------
      1          6           0        1.851998   -0.145938    0.037088
      2          6           0        0.624920    0.427148   -0.068822
      3          6           0       -0.614204   -0.347259   -0.041314
      4          6           0       -1.857410    0.060662    0.018039
      5          1           0        2.662806    0.548484    0.126747
      6          1           0        1.985709   -1.246611    0.103405
      7          1           0        0.479749    1.540682   -0.140150
      8          1           0       -0.365846   -1.356183   -0.042187
      9          1           0       -2.116569    1.172437    0.284134
     10          1           0       -2.677680   -0.626487   -0.001891
 ---------------------------------------------------------------------

 SCF Done:  E(RB2PLYPD3) =  -155.685025639     A.U. after   11 cycles
 E2(B2PLYPD3) =    -0.2265646162D+00 E(B2PLYPD3) =    -0.15591159025522D+03

 The electronic state is 1-A.
 Alpha  occ. eigenvalues --  -10.63337 -10.62389 -10.62001 -10.61636  -0.92934
 Alpha  occ. eigenvalues --   -0.84925  -0.70259  -0.63457  -0.54752  -0.53116
 Alpha  occ. eigenvalues --   -0.47031  -0.45661  -0.40163  -0.37882  -0.27824
 Alpha virt. eigenvalues --    0.01437   0.06950   0.07205   0.08085   0.09591
 Alpha virt. eigenvalues --    0.11608   0.12089   0.14734   0.15496   0.16128
 Alpha virt. eigenvalues --    0.18750   0.20251   0.21020   0.22609   0.23725

 Mulliken charges:
               1
     1  C   -0.182030
     2  C   -0.038111
     3  C   -0.022734
     4  C   -0.172687
     5  H    0.091832
     6  H    0.074189
     7  H    0.050363
     8  H    0.052826
     9  H    0.058124
    10  H    0.088228
 Sum of Mulliken charges =   0.00000

 Dipole moment (field-independent basis, Debye):
    X=              0.0774    Y=             -0.0810    Z=              0.2311  Tot=              0.2568
 Quadrupole moment (field-independent basis, Debye-Ang):
   XX=            -23.8088   YY=            -23.1959   ZZ=            -29.2622
   XY=             -0.1149   XZ=             -0.0050   YZ=              0.1752

 1\1\GINC-NODE04\SP\RB2PLYPD3-FC\def2QZVP\C4H6\BOITTIER\26-Aug-2020\0\\
 #p B2PLYPD3/Def2QZVP\\butadiene\\0,1\C,0,-3.845255,0.267205,0.056726\C
 ,0,-2.744027,-0.523767,-0.027086\C,0,-1.384056,0.011316,-0.019741\C,0,
 -0.236342,-0.61512,0.056505\H,0,-4.769219,-0.263972,0.165408\H,0,-3.77
 5137,1.375293,0.088065\H,0,-2.805244,-1.646747,-0.062993\H,0,-1.443603
 ,1.048116,-0.053064\H,0,-0.184342,-1.746625,0.358178\H,0,0.695765,-0.0
 9063,0.017777\\Version=ES64L-G09RevD.01\State=1-A\HF=-155.6850256\MP2=
 -155.9115903\RMSD=7.149e-09\PG=C01 [X(C4H6)]\\@

 Normal termination of Gaussian 09 at Wed Aug 26 15:48:04 2020.
