 Gaussian 09, Revision D.01,
 Gaussian 09:  ES64L-G09RevD.01 24-Apr-2013

 --------------------
 #p B2PLYPD3/Def2QZVP
 --------------------

 ---------
 butadiene
 ---------
 Symbolic Z-matrix:
 Charge =  0 Multiplicity = 1

                         Standard orientation:
 ---------------------------------------------------------------------
 Center     Atomic      Atomic             Coordinates (Angstroms)
 Number     Number       Type             X           Y           Z
 ---------------------------------------------------------------------
      1          6           0       -1.838765    0.103145   -0.027448
      2          6           0       -0.616009   -0.372729    0.004847
      3          6           0        0.608957    0.402339    0.001163
      4          6           0        1.841141   -0.111545   -0.012539
      5          1           0       -2.644237   -0.614268    0.056102
      6          1           0       -2.119397    1.160946    0.005911
      7          1           0       -0.504250   -1.430705    0.110129
      8          1           0        0.536814    1.507920    0.039464
      9          1           0        2.006651   -1.200498   -0.088348
     10          1           0        2.752471    0.449345    0.080604
 ---------------------------------------------------------------------

 SCF Done:  E(RB2PLYPD3) =  -155.697551910     A.U. after   11 cycles
 E2(B2PLYPD3) =    -0.2253962493D+00 E(B2PLYPD3) =    -0.15592294815885D+03

 The electronic state is 1-A.
 Alpha  occ. eigenvalues --  -10.62760 -10.62072 -10.61698 -10.61308  -0.93148
 Alpha  occ. eigenvalues --   -0.85280  -0.70189  -0.63766  -0.54793  -0.54024
 Alpha  occ. eigenvalues --   -0.47120  -0.44952  -0.40665  -0.38237  -0.27983
 Alpha virt. eigenvalues --    0.01803   0.06997   0.07451   0.07955   0.09840
 Alpha virt. eigenvalues --    0.11523   0.12429   0.14733   0.15761   0.16351
 Alpha virt. eigenvalues --    0.18978   0.20350   0.21658   0.22311   0.23845

 Mulliken charges:
               1
     1  C   -0.167643
     2  C   -0.030470
     3  C   -0.032720
     4  C   -0.169014
     5  H    0.077582
     6  H    0.070020
     7  H    0.057923
     8  H    0.051972
     9  H    0.055918
    10  H    0.086434
 Sum of Mulliken charges =   0.00000

 Dipole moment (field-independent basis, Debye):
    X=              0.0196    Y=             -0.0074    Z=              0.1873  Tot=              0.1885
 Quadrupole moment (field-independent basis, Debye-Ang):
   XX=            -23.2987   YY=            -23.2213   ZZ=            -29.1715
   XY=             -0.1634   XZ=             -0.1378   YZ=              0.0292

 1\1\GINC-NODE12\SP\RB2PLYPD3-FC\def2QZVP\C4H6\BOITTIER\26-Aug-2020\0\\
 #p B2PLYPD3/Def2QZVP\\butadiene\\0,1\C,0,-3.842621,0.21283,-0.001888\C
 ,0,-2.724589,-0.473102,0.044285\C,0,-1.380756,0.069835,0.019397\C,0,-0
 .260459,-0.656439,0.020662\H,0,-4.763051,-0.346265,0.101402\H,0,-3.929
 331,1.304288,0.001656\H,0,-2.803421,-1.530672,0.179258\H,0,-1.253773,1
 .171109,0.026633\H,0,-0.29278,-1.759107,-0.024492\H,0,0.736928,-0.2653
 32,0.098433\\Version=ES64L-G09RevD.01\State=1-A\HF=-155.6975519\MP2=-1
 55.9229482\RMSD=4.643e-09\PG=C01 [X(C4H6)]\\@

 Normal termination of Gaussian 09 at Wed Aug 26 08:45:17 2020.
