 Gaussian 09, Revision D.01,
 Gaussian 09:  ES64L-G09RevD.01 24-Apr-2013

 --------------------
 #p B2PLYPD3/Def2QZVP
 --------------------

 ---------
 butadiene
 ---------
 Symbolic Z-matrix:
 Charge =  0 Multiplicity = 1

                         Standard orientation:
 ---------------------------------------------------------------------
 Center     Atomic      Atomic             Coordinates (Angstroms)
 Number     Number       Type             X           Y           Z
 ---------------------------------------------------------------------
      1          6           0        1.836455   -0.137629    0.070147
      2          6           0        0.610038    0.397093   -0.072761
      3          6           0       -0.635203   -0.363580   -0.007329
      4          6           0       -1.845678    0.101206    0.033800
      5          1           0        2.657415    0.454620   -0.125356
      6          1           0        2.108741   -1.133384    0.091921
      7          1           0        0.694983    1.569147   -0.063757
      8          1           0       -0.477813   -1.408685   -0.098341
      9          1           0       -2.100433    1.128939    0.202387
     10          1           0       -2.676567   -0.593175   -0.149993
 ---------------------------------------------------------------------

 SCF Done:  E(RB2PLYPD3) =  -155.680419066     A.U. after   12 cycles
 E2(B2PLYPD3) =    -0.2255360680D+00 E(B2PLYPD3) =    -0.15590595513349D+03

 The electronic state is 1-A.
 Alpha  occ. eigenvalues --  -10.63625 -10.61966 -10.61110 -10.60441  -0.93065
 Alpha  occ. eigenvalues --   -0.85746  -0.70804  -0.63766  -0.54977  -0.54382
 Alpha  occ. eigenvalues --   -0.46960  -0.45291  -0.40559  -0.37804  -0.28086
 Alpha virt. eigenvalues --    0.01560   0.06981   0.07529   0.07826   0.09788
 Alpha virt. eigenvalues --    0.11466   0.12477   0.14960   0.15635   0.16283
 Alpha virt. eigenvalues --    0.19096   0.19826   0.21169   0.23218   0.23965

 Mulliken charges:
               1
     1  C   -0.155640
     2  C   -0.041827
     3  C   -0.029636
     4  C   -0.171636
     5  H    0.071564
     6  H    0.057121
     7  H    0.046688
     8  H    0.066703
     9  H    0.077176
    10  H    0.079487
 Sum of Mulliken charges =   0.00000

 Dipole moment (field-independent basis, Debye):
    X=              0.0314    Y=             -0.0740    Z=             -0.1540  Tot=              0.1737
 Quadrupole moment (field-independent basis, Debye-Ang):
   XX=            -23.2347   YY=            -23.2649   ZZ=            -29.0037
   XY=             -0.2850   XZ=             -0.1246   YZ=              0.2622

 1\1\GINC-NODE23\SP\RB2PLYPD3-FC\def2QZVP\C4H6\BOITTIER\26-Aug-2020\0\\
 #p B2PLYPD3/Def2QZVP\\butadiene\\0,1\C,0,-3.840525,0.242067,0.078963\C
 ,0,-2.726285,-0.503404,-0.035884\C,0,-1.36756,0.031494,-0.000104\C,0,-
 0.256062,-0.634242,0.065741\H,0,-4.752737,-0.206621,-0.092806\H,0,-3.9
 35593,1.269955,0.05554\H,0,-3.013504,-1.641304,0.024912\H,0,-1.341402,
 1.082969,-0.138005\H,0,-0.182978,-1.682101,0.280698\H,0,0.682005,-0.10
 3625,-0.145914\\Version=ES64L-G09RevD.01\State=1-A\HF=-155.6804191\MP2
 =-155.9059551\RMSD=3.445e-09\PG=C01 [X(C4H6)]\\@

 Normal termination of Gaussian 09 at Wed Aug 26 14:54:35 2020.
