 Gaussian 09, Revision D.01,
 Gaussian 09:  ES64L-G09RevD.01 24-Apr-2013

 --------------------
 #p B2PLYPD3/Def2QZVP
 --------------------

 ---------
 butadiene
 ---------
 Symbolic Z-matrix:
 Charge =  0 Multiplicity = 1

                         Standard orientation:
 ---------------------------------------------------------------------
 Center     Atomic      Atomic             Coordinates (Angstroms)
 Number     Number       Type             X           Y           Z
 ---------------------------------------------------------------------
      1          6           0        1.844435   -0.158060   -0.059484
      2          6           0        0.604415    0.467840    0.034836
      3          6           0       -0.597876   -0.353614    0.096756
      4          6           0       -1.868983    0.067572   -0.045035
      5          1           0        2.834488    0.406195    0.067946
      6          1           0        2.012023   -1.141477   -0.078602
      7          1           0        0.469269    1.489077   -0.004469
      8          1           0       -0.440296   -1.392438   -0.003110
      9          1           0       -2.072398    1.144473   -0.077609
     10          1           0       -2.695034   -0.648256   -0.066596
 ---------------------------------------------------------------------

 SCF Done:  E(RB2PLYPD3) =  -155.679350335     A.U. after   11 cycles
 E2(B2PLYPD3) =    -0.2273407776D+00 E(B2PLYPD3) =    -0.15590669111266D+03

 The electronic state is 1-A.
 Alpha  occ. eigenvalues --  -10.63328 -10.62357 -10.62227 -10.61950  -0.92640
 Alpha  occ. eigenvalues --   -0.84141  -0.70977  -0.65247  -0.54786  -0.53234
 Alpha  occ. eigenvalues --   -0.47856  -0.44756  -0.41743  -0.37435  -0.27070
 Alpha virt. eigenvalues --    0.00697   0.06895   0.07590   0.08153   0.09012
 Alpha virt. eigenvalues --    0.11681   0.12496   0.14654   0.15696   0.16094
 Alpha virt. eigenvalues --    0.18962   0.20121   0.21695   0.22713   0.24034

 Mulliken charges:
               1
     1  C   -0.169095
     2  C   -0.051654
     3  C   -0.025758
     4  C   -0.181414
     5  H    0.066165
     6  H    0.076402
     7  H    0.074231
     8  H    0.061015
     9  H    0.062413
    10  H    0.087696
 Sum of Mulliken charges =   0.00000

 Dipole moment (field-independent basis, Debye):
    X=              0.0232    Y=             -0.0640    Z=             -0.0600  Tot=              0.0908
 Quadrupole moment (field-independent basis, Debye-Ang):
   XX=            -23.5479   YY=            -23.1011   ZZ=            -29.4204
   XY=             -0.4337   XZ=              0.4648   YZ=              0.1363

 1\1\GINC-NODE28\SP\RB2PLYPD3-FC\def2QZVP\C4H6\BOITTIER\26-Aug-2020\0\\
 #p B2PLYPD3/Def2QZVP\\butadiene\\0,1\C,0,-3.839342,0.274011,-0.041939\
 C,0,-2.732308,-0.561457,0.079577\C,0,-1.400543,0.030218,0.100763\C,0,-
 0.228268,-0.620633,-0.023246\H,0,-4.91387,-0.094817,0.113564\H,0,-3.82
 6214,1.26958,-0.106973\H,0,-2.784786,-1.590975,0.088087\H,0,-1.368362,
 1.074692,-0.047552\H,0,-0.223624,-1.716908,-0.005514\H,0,0.713516,-0.0
 68297,-0.079842\\Version=ES64L-G09RevD.01\State=1-A\HF=-155.6793503\MP
 2=-155.9066911\RMSD=9.119e-09\PG=C01 [X(C4H6)]\\@

 Normal termination of Gaussian 09 at Wed Aug 26 13:09:10 2020.
