 Gaussian 09, Revision D.01,
 Gaussian 09:  ES64L-G09RevD.01 24-Apr-2013

 --------------------
 #p B2PLYPD3/Def2QZVP
 --------------------

 ---------
 butadiene
 ---------
 Symbolic Z-matrix:
 Charge =  0 Multiplicity = 1

                         Standard orientation:
 ---------------------------------------------------------------------
 Center     Atomic      Atomic             Coordinates (Angstroms)
 Number     Number       Type             X           Y           Z
 ---------------------------------------------------------------------
      1          6           0       -1.841609   -0.129115    0.017356
      2          6           0       -0.614008    0.398146   -0.018202
      3          6           0        0.620691   -0.389678   -0.046876
      4          6           0        1.858331    0.117527    0.046404
      5          1           0       -2.683978    0.522232    0.109483
      6          1           0       -2.014678   -1.158349   -0.031998
      7          1           0       -0.608455    1.477913   -0.043152
      8          1           0        0.479550   -1.453404   -0.001596
      9          1           0        1.988689    1.205804   -0.074365
     10          1           0        2.698437   -0.575476    0.049539
 ---------------------------------------------------------------------

 SCF Done:  E(RB2PLYPD3) =  -155.696166824     A.U. after   11 cycles
 E2(B2PLYPD3) =    -0.2258105322D+00 E(B2PLYPD3) =    -0.15592197735617D+03

 The electronic state is 1-A.
 Alpha  occ. eigenvalues --  -10.62632 -10.62448 -10.61889 -10.60891  -0.92792
 Alpha  occ. eigenvalues --   -0.85150  -0.70018  -0.64234  -0.54720  -0.53957
 Alpha  occ. eigenvalues --   -0.46114  -0.46024  -0.41471  -0.37849  -0.27716
 Alpha virt. eigenvalues --    0.01665   0.06995   0.07557   0.07981   0.09486
 Alpha virt. eigenvalues --    0.11744   0.12316   0.14748   0.15677   0.16349
 Alpha virt. eigenvalues --    0.18786   0.19896   0.21303   0.23211   0.24324

 Mulliken charges:
               1
     1  C   -0.180060
     2  C   -0.022664
     3  C   -0.042825
     4  C   -0.173228
     5  H    0.082554
     6  H    0.067961
     7  H    0.051968
     8  H    0.058179
     9  H    0.072088
    10  H    0.086025
 Sum of Mulliken charges =   0.00000

 Dipole moment (field-independent basis, Debye):
    X=             -0.0704    Y=             -0.0359    Z=             -0.0504  Tot=              0.0937
 Quadrupole moment (field-independent basis, Debye-Ang):
   XX=            -23.7068   YY=            -22.9611   ZZ=            -29.2598
   XY=             -0.1357   XZ=             -0.2204   YZ=             -0.0916

 1\1\GINC-NODE30\SP\RB2PLYPD3-FC\def2QZVP\C4H6\BOITTIER\26-Aug-2020\0\\
 #p B2PLYPD3/Def2QZVP\\butadiene\\0,1\C,0,-3.84668,0.229127,-0.004069\C
 ,0,-2.728385,-0.500342,0.055619\C,0,-1.376173,0.063113,0.058957\C,0,-0
 .244919,-0.653202,-0.01082\H,0,-4.789091,-0.270089,-0.074574\H,0,-3.83
 9386,1.273904,0.005905\H,0,-2.909176,-1.563151,0.121209\H,0,-1.331765,
 1.132765,-0.026821\H,0,-0.303956,-1.742313,0.151279\H,0,0.702161,-0.11
 6183,-0.037085\\Version=ES64L-G09RevD.01\State=1-A\HF=-155.6961668\MP2
 =-155.9219774\RMSD=4.464e-09\PG=C01 [X(C4H6)]\\@

 Normal termination of Gaussian 09 at Wed Aug 26 10:15:37 2020.
