 Gaussian 09, Revision D.01,
 Gaussian 09:  ES64L-G09RevD.01 24-Apr-2013

 --------------------
 #p B2PLYPD3/Def2QZVP
 --------------------

 ---------
 butadiene
 ---------
 Symbolic Z-matrix:
 Charge =  0 Multiplicity = 1

                         Standard orientation:
 ---------------------------------------------------------------------
 Center     Atomic      Atomic             Coordinates (Angstroms)
 Number     Number       Type             X           Y           Z
 ---------------------------------------------------------------------
      1          6           0       -1.845227    0.103263   -0.019664
      2          6           0       -0.599994   -0.388146    0.010132
      3          6           0        0.604812    0.413528    0.003558
      4          6           0        1.836348   -0.124357   -0.014159
      5          1           0       -2.692221   -0.565234    0.004296
      6          1           0       -2.055826    1.150508   -0.016919
      7          1           0       -0.460087   -1.450790    0.107946
      8          1           0        0.506934    1.500330    0.059963
      9          1           0        2.009754   -1.168227   -0.073053
     10          1           0        2.715811    0.507687    0.038563
 ---------------------------------------------------------------------

 SCF Done:  E(RB2PLYPD3) =  -155.700335385     A.U. after   11 cycles
 E2(B2PLYPD3) =    -0.2257400102D+00 E(B2PLYPD3) =    -0.15592607539476D+03

 The electronic state is 1-A.
 Alpha  occ. eigenvalues --  -10.62679 -10.62406 -10.61429 -10.61339  -0.92956
 Alpha  occ. eigenvalues --   -0.84823  -0.70422  -0.64287  -0.54433  -0.54297
 Alpha  occ. eigenvalues --   -0.46446  -0.46008  -0.41416  -0.37964  -0.27512
 Alpha virt. eigenvalues --    0.01567   0.07022   0.07497   0.08025   0.09565
 Alpha virt. eigenvalues --    0.11687   0.12431   0.14865   0.15830   0.16176
 Alpha virt. eigenvalues --    0.18821   0.20451   0.21709   0.22811   0.23818

 Mulliken charges:
               1
     1  C   -0.178351
     2  C   -0.032395
     3  C   -0.031477
     4  C   -0.177670
     5  H    0.083444
     6  H    0.069291
     7  H    0.058430
     8  H    0.056708
     9  H    0.069588
    10  H    0.082431
 Sum of Mulliken charges =   0.00000

 Dipole moment (field-independent basis, Debye):
    X=              0.0263    Y=             -0.0059    Z=              0.1139  Tot=              0.1171
 Quadrupole moment (field-independent basis, Debye-Ang):
   XX=            -23.4885   YY=            -23.0358   ZZ=            -29.2541
   XY=             -0.2462   XZ=             -0.0329   YZ=              0.0388

 1\1\GINC-NODE24\SP\RB2PLYPD3-FC\def2QZVP\C4H6\BOITTIER\26-Aug-2020\0\\
 #p B2PLYPD3/Def2QZVP\\butadiene\\0,1\C,0,-3.848153,0.218762,0.002397\C
 ,0,-2.711954,-0.488347,0.047387\C,0,-1.382283,0.082226,0.020828\C,0,-0
 .268107,-0.669389,0.019565\H,0,-4.801795,-0.284984,0.04325\H,0,-3.8662
 9,1.286505,-0.023626\H,0,-2.765781,-1.555757,0.174245\H,0,-1.282227,1.
 169965,0.047538\H,0,-0.286136,-1.728616,-0.010687\H,0,0.711155,-0.2052
 74,0.056404\\Version=ES64L-G09RevD.01\State=1-A\HF=-155.7003354\MP2=-1
 55.9260754\RMSD=4.354e-09\PG=C01 [X(C4H6)]\\@

 Normal termination of Gaussian 09 at Wed Aug 26 20:54:22 2020.
