 Gaussian 09, Revision D.01,
 Gaussian 09:  ES64L-G09RevD.01 24-Apr-2013

 --------------------
 #p B2PLYPD3/Def2QZVP
 --------------------

 ---------
 butadiene
 ---------
 Symbolic Z-matrix:
 Charge =  0 Multiplicity = 1

                         Standard orientation:
 ---------------------------------------------------------------------
 Center     Atomic      Atomic             Coordinates (Angstroms)
 Number     Number       Type             X           Y           Z
 ---------------------------------------------------------------------
      1          6           0       -1.855168   -0.104712   -0.004525
      2          6           0       -0.607386    0.372511   -0.024382
      3          6           0        0.618650   -0.405820    0.009773
      4          6           0        1.855819    0.118591    0.015128
      5          1           0       -2.731097    0.531802   -0.032610
      6          1           0       -2.083823   -1.125649    0.146580
      7          1           0       -0.486663    1.469923   -0.000732
      8          1           0        0.548825   -1.501581   -0.082003
      9          1           0        1.911100    1.200858    0.073307
     10          1           0        2.770164   -0.458776   -0.080504
 ---------------------------------------------------------------------

 SCF Done:  E(RB2PLYPD3) =  -155.696983349     A.U. after   11 cycles
 E2(B2PLYPD3) =    -0.2261637983D+00 E(B2PLYPD3) =    -0.15592314714692D+03

 The electronic state is 1-A.
 Alpha  occ. eigenvalues --  -10.62971 -10.62870 -10.61829 -10.61371  -0.92810
 Alpha  occ. eigenvalues --   -0.84974  -0.70361  -0.63785  -0.54942  -0.53742
 Alpha  occ. eigenvalues --   -0.47033  -0.45154  -0.40980  -0.38006  -0.27670
 Alpha virt. eigenvalues --    0.01395   0.06996   0.07506   0.07921   0.09591
 Alpha virt. eigenvalues --    0.11574   0.12577   0.14612   0.15713   0.16397
 Alpha virt. eigenvalues --    0.18891   0.20243   0.21713   0.22651   0.23662

 Mulliken charges:
               1
     1  C   -0.171327
     2  C   -0.031683
     3  C   -0.029280
     4  C   -0.173751
     5  H    0.082305
     6  H    0.067918
     7  H    0.049831
     8  H    0.053069
     9  H    0.060263
    10  H    0.092655
 Sum of Mulliken charges =   0.00000

 Dipole moment (field-independent basis, Debye):
    X=             -0.0001    Y=             -0.0265    Z=              0.0196  Tot=              0.0329
 Quadrupole moment (field-independent basis, Debye-Ang):
   XX=            -23.0816   YY=            -23.3879   ZZ=            -29.2779
   XY=             -0.0424   XZ=             -0.4297   YZ=              0.0620

 1\1\GINC-NODE10\SP\RB2PLYPD3-FC\def2QZVP\C4H6\BOITTIER\26-Aug-2020\0\\
 #p B2PLYPD3/Def2QZVP\\butadiene\\0,1\C,0,-3.862386,0.210039,0.017651\C
 ,0,-2.717038,-0.476906,0.054786\C,0,-1.373968,0.074609,0.008672\C,0,-0
 .247283,-0.657535,0.021645\H,0,-4.835969,-0.263084,0.056146\H,0,-3.909
 257,1.251332,-0.158248\H,0,-2.789639,-1.578799,0.057217\H,0,-1.251596,
 1.167615,0.074639\H,0,-0.38165,-1.733924,-0.011121\H,0,0.753701,-0.246
 4,0.108395\\Version=ES64L-G09RevD.01\State=1-A\HF=-155.6969833\MP2=-15
 5.9231471\RMSD=4.165e-09\PG=C01 [X(C4H6)]\\@

 Normal termination of Gaussian 09 at Wed Aug 26 09:37:21 2020.
