 Gaussian 09, Revision D.01,
 Gaussian 09:  ES64L-G09RevD.01 24-Apr-2013

 --------------------
 #p B2PLYPD3/Def2QZVP
 --------------------

 ---------
 butadiene
 ---------
 Symbolic Z-matrix:
 Charge =  0 Multiplicity = 1

                         Standard orientation:
 ---------------------------------------------------------------------
 Center     Atomic      Atomic             Coordinates (Angstroms)
 Number     Number       Type             X           Y           Z
 ---------------------------------------------------------------------
      1          6           0        1.839751    0.092103    0.008705
      2          6           0        0.594518   -0.397701   -0.021263
      3          6           0       -0.602366    0.423530   -0.014526
      4          6           0       -1.833781   -0.117960    0.022146
      5          1           0        2.716454   -0.516367    0.078466
      6          1           0        1.997594    1.172351   -0.024239
      7          1           0        0.427129   -1.450217   -0.019283
      8          1           0       -0.450949    1.498652    0.006564
      9          1           0       -1.961846   -1.221658   -0.019737
     10          1           0       -2.717114    0.517405    0.007851
 ---------------------------------------------------------------------

 SCF Done:  E(RB2PLYPD3) =  -155.699412984     A.U. after   11 cycles
 E2(B2PLYPD3) =    -0.2261542729D+00 E(B2PLYPD3) =    -0.15592556725679D+03

 The electronic state is 1-A.
 Alpha  occ. eigenvalues --  -10.62702 -10.62299 -10.62092 -10.61483  -0.92993
 Alpha  occ. eigenvalues --   -0.84597  -0.70044  -0.64263  -0.54642  -0.53571
 Alpha  occ. eigenvalues --   -0.46692  -0.45467  -0.41372  -0.38068  -0.27502
 Alpha virt. eigenvalues --    0.01624   0.07023   0.07320   0.08140   0.09422
 Alpha virt. eigenvalues --    0.11708   0.12455   0.14605   0.15852   0.16117
 Alpha virt. eigenvalues --    0.18713   0.20398   0.21521   0.23128   0.23788

 Mulliken charges:
               1
     1  C   -0.177959
     2  C   -0.025943
     3  C   -0.033322
     4  C   -0.175810
     5  H    0.087760
     6  H    0.060584
     7  H    0.055976
     8  H    0.056546
     9  H    0.065509
    10  H    0.086658
 Sum of Mulliken charges =   0.00000

 Dipole moment (field-independent basis, Debye):
    X=             -0.0015    Y=              0.0060    Z=              0.0007  Tot=              0.0062
 Quadrupole moment (field-independent basis, Debye-Ang):
   XX=            -23.5860   YY=            -23.0764   ZZ=            -29.3400
   XY=              0.1238   XZ=              0.2106   YZ=             -0.0221

 1\1\GINC-NODE12\SP\RB2PLYPD3-FC\def2QZVP\C4H6\BOITTIER\26-Aug-2020\0\\
 #p B2PLYPD3/Def2QZVP\\butadiene\\0,1\C,0,-3.844254,0.212507,0.006509\C
 ,0,-2.709809,-0.496106,0.054594\C,0,-1.382719,0.091402,0.02883\C,0,-0.
 271447,-0.667361,0.011712\H,0,-4.817733,-0.226763,-0.049088\H,0,-3.801
 416,1.303881,0.008414\H,0,-2.738126,-1.5611,0.082892\H,0,-1.334599,1.1
 75028,-0.023111\H,0,-0.347723,-1.774199,0.085164\H,0,0.71338,-0.20445,
 0.011131\\Version=ES64L-G09RevD.01\State=1-A\HF=-155.699413\MP2=-155.9
 255673\RMSD=4.850e-09\PG=C01 [X(C4H6)]\\@

 Normal termination of Gaussian 09 at Wed Aug 26 21:33:43 2020.
