 Gaussian 09, Revision D.01,
 Gaussian 09:  ES64L-G09RevD.01 24-Apr-2013

 --------------------
 #p B2PLYPD3/Def2QZVP
 --------------------

 ---------
 butadiene
 ---------
 Symbolic Z-matrix:
 Charge =  0 Multiplicity = 1

                         Standard orientation:
 ---------------------------------------------------------------------
 Center     Atomic      Atomic             Coordinates (Angstroms)
 Number     Number       Type             X           Y           Z
 ---------------------------------------------------------------------
      1          6           0       -1.869797    0.070751    0.062908
      2          6           0       -0.588174   -0.340941   -0.106256
      3          6           0        0.614899    0.446743   -0.066257
      4          6           0        1.830583   -0.147881    0.092041
      5          1           0       -2.715281   -0.652325    0.189782
      6          1           0       -2.193852    1.103401    0.058222
      7          1           0       -0.366212   -1.452985   -0.087281
      8          1           0        0.607375    1.586355   -0.131553
      9          1           0        2.049974   -1.178217   -0.077807
     10          1           0        2.692931    0.421745    0.154020
 ---------------------------------------------------------------------

 SCF Done:  E(RB2PLYPD3) =  -155.684741140     A.U. after   12 cycles
 E2(B2PLYPD3) =    -0.2277797790D+00 E(B2PLYPD3) =    -0.15591252091917D+03

 The electronic state is 1-A.
 Alpha  occ. eigenvalues --  -10.63820 -10.63503 -10.62379 -10.61369  -0.92587
 Alpha  occ. eigenvalues --   -0.84319  -0.70990  -0.63279  -0.54633  -0.53358
 Alpha  occ. eigenvalues --   -0.46299  -0.45429  -0.41109  -0.37642  -0.27173
 Alpha virt. eigenvalues --    0.00828   0.06947   0.07283   0.07836   0.09256
 Alpha virt. eigenvalues --    0.11357   0.12451   0.14829   0.15827   0.16476
 Alpha virt. eigenvalues --    0.18930   0.20059   0.21357   0.22704   0.23940

 Mulliken charges:
               1
     1  C   -0.172568
     2  C   -0.027325
     3  C   -0.037278
     4  C   -0.165772
     5  H    0.080484
     6  H    0.071304
     7  H    0.051877
     8  H    0.056029
     9  H    0.066177
    10  H    0.077072
 Sum of Mulliken charges =   0.00000

 Dipole moment (field-independent basis, Debye):
    X=              0.1228    Y=              0.0494    Z=             -0.0428  Tot=              0.1391
 Quadrupole moment (field-independent basis, Debye-Ang):
   XX=            -23.1615   YY=            -23.2945   ZZ=            -29.4243
   XY=             -0.4140   XZ=             -0.4917   YZ=              0.0018

 1\1\GINC-NODE28\SP\RB2PLYPD3-FC\def2QZVP\C4H6\BOITTIER\26-Aug-2020\0\\
 #p B2PLYPD3/Def2QZVP\\butadiene\\0,1\C,0,-3.876127,0.196931,0.091362\C
 ,0,-2.693309,-0.449821,-0.061342\C,0,-1.366241,0.105442,-0.063139\C,0,
 -0.277809,-0.693424,0.120306\H,0,-4.837886,-0.352437,0.255656\H,0,-4.0
 06193,1.270048,0.037484\H,0,-2.677943,-1.581547,0.01096\H,0,-1.1663,1.
 22282,-0.183669\H,0,-0.252267,-1.753358,0.000048\H,0,0.674726,-0.28891
 3,0.152043\\Version=ES64L-G09RevD.01\State=1-A\HF=-155.6847411\MP2=-15
 5.9125209\RMSD=4.748e-09\PG=C01 [X(C4H6)]\\@

 Normal termination of Gaussian 09 at Wed Aug 26 14:12:30 2020.
