 Gaussian 09, Revision D.01,
 Gaussian 09:  ES64L-G09RevD.01 24-Apr-2013

 --------------------
 #p B2PLYPD3/Def2QZVP
 --------------------

 ---------
 butadiene
 ---------
 Symbolic Z-matrix:
 Charge =  0 Multiplicity = 1

                         Standard orientation:
 ---------------------------------------------------------------------
 Center     Atomic      Atomic             Coordinates (Angstroms)
 Number     Number       Type             X           Y           Z
 ---------------------------------------------------------------------
      1          6           0        1.839809   -0.120878   -0.014193
      2          6           0        0.589225    0.407908   -0.013143
      3          6           0       -0.600349   -0.372499    0.011744
      4          6           0       -1.842763    0.090970    0.011965
      5          1           0        2.697754    0.516569    0.051306
      6          1           0        2.083092   -1.161806   -0.063669
      7          1           0        0.474048    1.487951    0.110151
      8          1           0       -0.457364   -1.462698    0.085562
      9          1           0       -1.997115    1.116688   -0.111290
     10          1           0       -2.715949   -0.529713   -0.050301
 ---------------------------------------------------------------------

 SCF Done:  E(RB2PLYPD3) =  -155.696322359     A.U. after   11 cycles
 E2(B2PLYPD3) =    -0.2259405467D+00 E(B2PLYPD3) =    -0.15592226290526D+03

 The electronic state is 1-A.
 Alpha  occ. eigenvalues --  -10.62857 -10.62242 -10.61764 -10.60802  -0.93319
 Alpha  occ. eigenvalues --   -0.84890  -0.71077  -0.64074  -0.54992  -0.54185
 Alpha  occ. eigenvalues --   -0.46921  -0.45557  -0.41248  -0.38272  -0.27431
 Alpha virt. eigenvalues --    0.01211   0.07055   0.07509   0.08008   0.09698
 Alpha virt. eigenvalues --    0.11662   0.12595   0.14971   0.15743   0.16235
 Alpha virt. eigenvalues --    0.18835   0.20117   0.22089   0.22912   0.23496

 Mulliken charges:
               1
     1  C   -0.178118
     2  C   -0.037849
     3  C   -0.017905
     4  C   -0.173060
     5  H    0.081407
     6  H    0.071277
     7  H    0.058202
     8  H    0.049911
     9  H    0.061113
    10  H    0.085022
 Sum of Mulliken charges =   0.00000

 Dipole moment (field-independent basis, Debye):
    X=              0.0547    Y=             -0.0140    Z=              0.0015  Tot=              0.0565
 Quadrupole moment (field-independent basis, Debye-Ang):
   XX=            -23.2117   YY=            -23.2821   ZZ=            -29.1657
   XY=             -0.2724   XZ=              0.4445   YZ=              0.0660

 1\1\GINC-NODE09\SP\RB2PLYPD3-FC\def2QZVP\C4H6\BOITTIER\26-Aug-2020\0\\
 #p B2PLYPD3/Def2QZVP\\butadiene\\0,1\C,0,-3.839879,0.2416,0.010313\C,0
 ,-2.70755,-0.507475,0.027455\C,0,-1.394845,0.041646,0.023911\C,0,-0.25
 8572,-0.641786,0.038012\H,0,-4.799666,-0.224957,0.09881\H,0,-3.888458,
 1.307273,-0.074223\H,0,-2.791501,-1.585604,0.187296\H,0,-1.334835,1.14
 1405,0.060764\H,0,-0.295963,-1.681925,-0.050464\H,0,0.713147,-0.194389
 ,-0.046707\\Version=ES64L-G09RevD.01\State=1-A\HF=-155.6963224\MP2=-15
 5.9222629\RMSD=5.589e-09\PG=C01 [X(C4H6)]\\@

 Normal termination of Gaussian 09 at Wed Aug 26 08:50:06 2020.
