 Gaussian 09, Revision D.01,
 Gaussian 09:  ES64L-G09RevD.01 24-Apr-2013

 --------------------
 #p B2PLYPD3/Def2QZVP
 --------------------

 ---------
 butadiene
 ---------
 Symbolic Z-matrix:
 Charge =  0 Multiplicity = 1

                         Standard orientation:
 ---------------------------------------------------------------------
 Center     Atomic      Atomic             Coordinates (Angstroms)
 Number     Number       Type             X           Y           Z
 ---------------------------------------------------------------------
      1          6           0        1.862714    0.088391    0.057992
      2          6           0        0.608647   -0.373685   -0.060441
      3          6           0       -0.630927    0.409175   -0.056696
      4          6           0       -1.832210   -0.127686    0.031426
      5          1           0        2.745957   -0.485541    0.011687
      6          1           0        2.052717    1.148894    0.020216
      7          1           0        0.459531   -1.451743    0.019611
      8          1           0       -0.592728    1.551522   -0.032667
      9          1           0       -1.971846   -1.227938    0.007762
     10          1           0       -2.742972    0.487641    0.139710
 ---------------------------------------------------------------------

 SCF Done:  E(RB2PLYPD3) =  -155.693630062     A.U. after   11 cycles
 E2(B2PLYPD3) =    -0.2261411366D+00 E(B2PLYPD3) =    -0.15591977119860D+03

 The electronic state is 1-A.
 Alpha  occ. eigenvalues --  -10.63155 -10.63029 -10.61968 -10.61319  -0.92775
 Alpha  occ. eigenvalues --   -0.85133  -0.70119  -0.63289  -0.54828  -0.53625
 Alpha  occ. eigenvalues --   -0.47080  -0.44705  -0.40508  -0.38133  -0.27999
 Alpha virt. eigenvalues --    0.01680   0.06998   0.07316   0.07893   0.09559
 Alpha virt. eigenvalues --    0.11554   0.12575   0.14431   0.15643   0.16461
 Alpha virt. eigenvalues --    0.18909   0.19567   0.22020   0.23038   0.23500

 Mulliken charges:
               1
     1  C   -0.166041
     2  C   -0.036365
     3  C   -0.026056
     4  C   -0.166058
     5  H    0.086417
     6  H    0.058151
     7  H    0.055293
     8  H    0.047207
     9  H    0.061941
    10  H    0.085512
 Sum of Mulliken charges =   0.00000

 Dipole moment (field-independent basis, Debye):
    X=             -0.0560    Y=              0.0009    Z=              0.0634  Tot=              0.0846
 Quadrupole moment (field-independent basis, Debye-Ang):
   XX=            -23.0770   YY=            -23.3818   ZZ=            -29.3046
   XY=              0.0129   XZ=             -0.3366   YZ=              0.0205

 1\1\GINC-NODE35\SP\RB2PLYPD3-FC\def2QZVP\C4H6\BOITTIER\26-Aug-2020\0\\
 #p B2PLYPD3/Def2QZVP\\butadiene\\0,1\C,0,-3.870411,0.196183,-0.03725\C
 ,0,-2.715654,-0.47476,0.091576\C,0,-1.35852,0.079366,0.067921\C,0,-0.2
 69802,-0.660911,-0.007889\H,0,-4.840017,-0.213473,0.023622\H,0,-3.8722
 48,1.274166,-0.025211\H,0,-2.757347,-1.563895,0.037729\H,0,-1.196906,1
 .209935,0.016076\H,0,-0.324193,-1.767761,0.042497\H,0,0.73382,-0.21679
 2,-0.131749\\Version=ES64L-G09RevD.01\State=1-A\HF=-155.6936301\MP2=-1
 55.9197712\RMSD=7.194e-09\PG=C01 [X(C4H6)]\\@

 Normal termination of Gaussian 09 at Wed Aug 26 08:25:38 2020.
