 Gaussian 09, Revision D.01,
 Gaussian 09:  ES64L-G09RevD.01 24-Apr-2013

 --------------------
 #p B2PLYPD3/Def2QZVP
 --------------------

 ---------
 butadiene
 ---------
 Symbolic Z-matrix:
 Charge =  0 Multiplicity = 1

                         Standard orientation:
 ---------------------------------------------------------------------
 Center     Atomic      Atomic             Coordinates (Angstroms)
 Number     Number       Type             X           Y           Z
 ---------------------------------------------------------------------
      1          6           0       -1.848863   -0.115487   -0.023060
      2          6           0       -0.612788    0.396903    0.019617
      3          6           0        0.617840   -0.397802    0.022630
      4          6           0        1.845844    0.119958   -0.027644
      5          1           0       -2.746269    0.509946    0.013687
      6          1           0       -1.965437   -1.177984   -0.063094
      7          1           0       -0.512278    1.483657    0.043733
      8          1           0        0.507715   -1.483209    0.085483
      9          1           0        2.011437    1.199743   -0.013844
     10          1           0        2.692633   -0.553589   -0.015221
 ---------------------------------------------------------------------

 SCF Done:  E(RB2PLYPD3) =  -155.700179938     A.U. after   11 cycles
 E2(B2PLYPD3) =    -0.2258578196D+00 E(B2PLYPD3) =    -0.15592603775765D+03

 The electronic state is 1-A.
 Alpha  occ. eigenvalues --  -10.62728 -10.62665 -10.61637 -10.61540  -0.92747
 Alpha  occ. eigenvalues --   -0.84988  -0.69839  -0.63864  -0.54248  -0.54104
 Alpha  occ. eigenvalues --   -0.46516  -0.45637  -0.41134  -0.37916  -0.27784
 Alpha virt. eigenvalues --    0.01770   0.06991   0.07416   0.07966   0.09595
 Alpha virt. eigenvalues --    0.11680   0.12355   0.14607   0.15826   0.16130
 Alpha virt. eigenvalues --    0.18814   0.20467   0.21362   0.22672   0.23995

 Mulliken charges:
               1
     1  C   -0.176642
     2  C   -0.028510
     3  C   -0.034115
     4  C   -0.175664
     5  H    0.087981
     6  H    0.065047
     7  H    0.052299
     8  H    0.052966
     9  H    0.070189
    10  H    0.086449
 Sum of Mulliken charges =   0.00000

 Dipole moment (field-independent basis, Debye):
    X=              0.0076    Y=             -0.0072    Z=              0.0743  Tot=              0.0750
 Quadrupole moment (field-independent basis, Debye-Ang):
   XX=            -23.5605   YY=            -23.0487   ZZ=            -29.3293
   XY=             -0.0325   XZ=              0.0313   YZ=              0.0284

 1\1\GINC-NODE28\SP\RB2PLYPD3-FC\def2QZVP\C4H6\BOITTIER\26-Aug-2020\0\\
 #p B2PLYPD3/Def2QZVP\\butadiene\\0,1\C,0,-3.852652,0.222368,0.040709\C
 ,0,-2.725141,-0.498928,0.014272\C,0,-1.37472,0.068343,-0.009705\C,0,-0
 .255754,-0.654204,0.056913\H,0,-4.84557,-0.237591,0.020571\H,0,-3.7818
 5,1.289601,0.050349\H,0,-2.815936,-1.586782,0.021211\H,0,-1.293945,1.1
 54094,-0.103553\H,0,-0.281211,-1.746268,0.074053\H,0,0.695542,-0.13944
 2,0.026465\\Version=ES64L-G09RevD.01\State=1-A\HF=-155.7001799\MP2=-15
 5.9260378\RMSD=2.743e-09\PG=C01 [X(C4H6)]\\@

 Normal termination of Gaussian 09 at Wed Aug 26 20:33:36 2020.
