 Gaussian 09, Revision D.01,
 Gaussian 09:  ES64L-G09RevD.01 24-Apr-2013

 --------------------
 #p B2PLYPD3/Def2QZVP
 --------------------

 ---------
 butadiene
 ---------
 Symbolic Z-matrix:
 Charge =  0 Multiplicity = 1

                         Standard orientation:
 ---------------------------------------------------------------------
 Center     Atomic      Atomic             Coordinates (Angstroms)
 Number     Number       Type             X           Y           Z
 ---------------------------------------------------------------------
      1          6           0       -1.820035    0.116768   -0.014502
      2          6           0       -0.611426   -0.415222    0.034736
      3          6           0        0.592664    0.367513    0.013388
      4          6           0        1.832307   -0.092061   -0.035356
      5          1           0       -2.735407   -0.490814   -0.050200
      6          1           0       -1.938432    1.221236   -0.171172
      7          1           0       -0.456197   -1.447893    0.124553
      8          1           0        0.482360    1.438876    0.205540
      9          1           0        2.057434   -1.156244   -0.100030
     10          1           0        2.629176    0.572853    0.001715
 ---------------------------------------------------------------------

 SCF Done:  E(RB2PLYPD3) =  -155.695826725     A.U. after   11 cycles
 E2(B2PLYPD3) =    -0.2251913558D+00 E(B2PLYPD3) =    -0.15592101808090D+03

 The electronic state is 1-A.
 Alpha  occ. eigenvalues --  -10.62016 -10.61994 -10.61792 -10.60808  -0.93556
 Alpha  occ. eigenvalues --   -0.85276  -0.70337  -0.64104  -0.54953  -0.54006
 Alpha  occ. eigenvalues --   -0.47295  -0.45141  -0.41124  -0.38129  -0.27921
 Alpha virt. eigenvalues --    0.01883   0.07089   0.07458   0.08036   0.09708
 Alpha virt. eigenvalues --    0.11699   0.12409   0.14805   0.15533   0.16195
 Alpha virt. eigenvalues --    0.18720   0.20088   0.21711   0.22472   0.24164

 Mulliken charges:
               1
     1  C   -0.163888
     2  C   -0.042040
     3  C   -0.017759
     4  C   -0.187231
     5  H    0.083504
     6  H    0.062637
     7  H    0.061192
     8  H    0.052558
     9  H    0.062624
    10  H    0.088403
 Sum of Mulliken charges =   0.00000

 Dipole moment (field-independent basis, Debye):
    X=             -0.0035    Y=             -0.0510    Z=              0.0366  Tot=              0.0629
 Quadrupole moment (field-independent basis, Debye-Ang):
   XX=            -23.5355   YY=            -23.2216   ZZ=            -29.0351
   XY=             -0.0567   XZ=              0.3470   YZ=              0.0337

 1\1\GINC-NODE08\SP\RB2PLYPD3-FC\def2QZVP\C4H6\BOITTIER\26-Aug-2020\0\\
 #p B2PLYPD3/Def2QZVP\\butadiene\\0,1\C,0,-3.818937,0.233331,-0.000219\
 C,0,-2.727587,-0.508438,0.069835\C,0,-1.400952,0.040669,0.031327\C,0,-
 0.265961,-0.638452,0.001489\H,0,-4.829799,-0.197945,-0.022487\H,0,-3.7
 34039,1.335812,-0.189269\H,0,-2.763232,-1.549027,0.190153\H,0,-1.31384
 7,1.119337,0.191942\H,0,-0.238755,-1.727272,-0.031392\H,0,0.638843,-0.
 129183,0.022936\\Version=ES64L-G09RevD.01\State=1-A\HF=-155.6958267\MP
 2=-155.9210181\RMSD=4.199e-09\PG=C01 [X(C4H6)]\\@

 Normal termination of Gaussian 09 at Wed Aug 26 08:39:01 2020.
