 Gaussian 09, Revision D.01,
 Gaussian 09:  ES64L-G09RevD.01 24-Apr-2013

 --------------------
 #p B2PLYPD3/Def2QZVP
 --------------------

 ---------
 butadiene
 ---------
 Symbolic Z-matrix:
 Charge =  0 Multiplicity = 1

                         Standard orientation:
 ---------------------------------------------------------------------
 Center     Atomic      Atomic             Coordinates (Angstroms)
 Number     Number       Type             X           Y           Z
 ---------------------------------------------------------------------
      1          6           0       -1.821666    0.083589    0.035174
      2          6           0       -0.581804   -0.375130   -0.029958
      3          6           0        0.585369    0.421686   -0.053032
      4          6           0        1.828616   -0.120491    0.024050
      5          1           0       -2.683022   -0.588836    0.113641
      6          1           0       -2.061095    1.161732    0.020212
      7          1           0       -0.465724   -1.422454   -0.139879
      8          1           0        0.408085    1.501343   -0.052439
      9          1           0        1.973689   -1.196543    0.064275
     10          1           0        2.764983    0.486835    0.136788
 ---------------------------------------------------------------------

 SCF Done:  E(RB2PLYPD3) =  -155.695042090     A.U. after   11 cycles
 E2(B2PLYPD3) =    -0.2264984868D+00 E(B2PLYPD3) =    -0.15592154057670D+03

 The electronic state is 1-A.
 Alpha  occ. eigenvalues --  -10.62816 -10.62469 -10.61712 -10.61570  -0.93631
 Alpha  occ. eigenvalues --   -0.84452  -0.70280  -0.64293  -0.54559  -0.53670
 Alpha  occ. eigenvalues --   -0.46553  -0.45113  -0.41505  -0.38343  -0.27296
 Alpha virt. eigenvalues --    0.01340   0.06978   0.07366   0.07975   0.09674
 Alpha virt. eigenvalues --    0.11634   0.12424   0.14712   0.15624   0.16271
 Alpha virt. eigenvalues --    0.18679   0.20288   0.21852   0.22457   0.23767

 Mulliken charges:
               1
     1  C   -0.179685
     2  C   -0.015882
     3  C   -0.037253
     4  C   -0.172056
     5  H    0.081501
     6  H    0.059630
     7  H    0.058340
     8  H    0.057155
     9  H    0.067000
    10  H    0.081249
 Sum of Mulliken charges =   0.00000

 Dipole moment (field-independent basis, Debye):
    X=             -0.0021    Y=             -0.0353    Z=              0.0693  Tot=              0.0777
 Quadrupole moment (field-independent basis, Debye-Ang):
   XX=            -23.5582   YY=            -23.2081   ZZ=            -29.2605
   XY=             -0.2588   XZ=              0.2515   YZ=              0.0488

 1\1\GINC-NODE34\SP\RB2PLYPD3-FC\def2QZVP\C4H6\BOITTIER\26-Aug-2020\0\\
 #p B2PLYPD3/Def2QZVP\\butadiene\\0,1\C,0,-3.827521,0.207885,0.052693\C
 ,0,-2.695263,-0.476008,0.005734\C,0,-1.399837,0.087804,-0.035844\C,0,-
 0.279619,-0.674523,0.061781\H,0,-4.799191,-0.289272,0.147235\H,0,-3.86
 1381,1.31087,0.005565\H,0,-2.777019,-1.52934,-0.073343\H,0,-1.372339,1
 .181124,-0.067224\H,0,-0.338024,-1.757096,0.133731\H,0,0.753882,-0.249
 718,0.160543\\Version=ES64L-G09RevD.01\State=1-A\HF=-155.6950421\MP2=-
 155.9215406\RMSD=7.063e-09\PG=C01 [X(C4H6)]\\@

 Normal termination of Gaussian 09 at Wed Aug 26 08:52:12 2020.
