 Gaussian 09, Revision D.01,
 Gaussian 09:  ES64L-G09RevD.01 24-Apr-2013

 --------------------
 #p B2PLYPD3/Def2QZVP
 --------------------

 ---------
 butadiene
 ---------
 Symbolic Z-matrix:
 Charge =  0 Multiplicity = 1

                         Standard orientation:
 ---------------------------------------------------------------------
 Center     Atomic      Atomic             Coordinates (Angstroms)
 Number     Number       Type             X           Y           Z
 ---------------------------------------------------------------------
      1          6           0       -1.846917    0.104589    0.016291
      2          6           0       -0.606685   -0.393990   -0.022012
      3          6           0        0.610250    0.414818   -0.021099
      4          6           0        1.846372   -0.117773    0.009498
      5          1           0       -2.723020   -0.549844    0.069885
      6          1           0       -2.037501    1.171760    0.025073
      7          1           0       -0.506291   -1.465323   -0.080504
      8          1           0        0.467729    1.500300   -0.034624
      9          1           0        2.010993   -1.190972    0.071818
     10          1           0        2.769969    0.488217    0.052285
 ---------------------------------------------------------------------

 SCF Done:  E(RB2PLYPD3) =  -155.699584082     A.U. after   11 cycles
 E2(B2PLYPD3) =    -0.2262090029D+00 E(B2PLYPD3) =    -0.15592579308440D+03

 The electronic state is 1-A.
 Alpha  occ. eigenvalues --  -10.63074 -10.62559 -10.62096 -10.61672  -0.92707
 Alpha  occ. eigenvalues --   -0.84642  -0.69918  -0.64106  -0.54347  -0.53714
 Alpha  occ. eigenvalues --   -0.46658  -0.45329  -0.41123  -0.37925  -0.27634
 Alpha virt. eigenvalues --    0.01610   0.06963   0.07415   0.07977   0.09447
 Alpha virt. eigenvalues --    0.11595   0.12433   0.14564   0.15863   0.16175
 Alpha virt. eigenvalues --    0.18861   0.20527   0.21602   0.22650   0.23599

 Mulliken charges:
               1
     1  C   -0.175795
     2  C   -0.028401
     3  C   -0.039466
     4  C   -0.169113
     5  H    0.083491
     6  H    0.064527
     7  H    0.058391
     8  H    0.058298
     9  H    0.065916
    10  H    0.082153
 Sum of Mulliken charges =   0.00000

 Dipole moment (field-independent basis, Debye):
    X=              0.0079    Y=             -0.0145    Z=              0.0671  Tot=              0.0691
 Quadrupole moment (field-independent basis, Debye-Ang):
   XX=            -23.3911   YY=            -23.1375   ZZ=            -29.3748
   XY=             -0.1906   XZ=              0.0748   YZ=             -0.0210

 1\1\GINC-NODE09\SP\RB2PLYPD3-FC\def2QZVP\C4H6\BOITTIER\26-Aug-2020\0\\
 #p B2PLYPD3/Def2QZVP\\butadiene\\0,1\C,0,-3.85117,0.2175,0.034999\C,0,
 -2.719988,-0.495419,0.015048\C,0,-1.378217,0.082783,-0.005802\C,0,-0.2
 56942,-0.660745,0.044145\H,0,-4.829861,-0.268062,0.106445\H,0,-3.84815
 5,1.301313,0.010624\H,0,-2.812638,-1.568743,-0.010359\H,0,-1.32471,1.1
 75341,-0.052916\H,0,-0.286363,-1.743677,0.13971\H,0,0.760125,-0.228357
 ,0.070636\\Version=ES64L-G09RevD.01\State=1-A\HF=-155.6995841\MP2=-155
 .9257931\RMSD=4.339e-09\PG=C01 [X(C4H6)]\\@

 Normal termination of Gaussian 09 at Wed Aug 26 09:40:29 2020.
