 Gaussian 09, Revision D.01,
 Gaussian 09:  ES64L-G09RevD.01 24-Apr-2013

 --------------------
 #p B2PLYPD3/Def2QZVP
 --------------------

 ---------
 butadiene
 ---------
 Symbolic Z-matrix:
 Charge =  0 Multiplicity = 1

                         Standard orientation:
 ---------------------------------------------------------------------
 Center     Atomic      Atomic             Coordinates (Angstroms)
 Number     Number       Type             X           Y           Z
 ---------------------------------------------------------------------
      1          6           0        1.834888   -0.116190   -0.006139
      2          6           0        0.603876    0.424578    0.017282
      3          6           0       -0.599022   -0.404063    0.009619
      4          6           0       -1.837615    0.100017   -0.019559
      5          1           0        2.699666    0.512944   -0.069594
      6          1           0        1.965977   -1.222490   -0.035616
      7          1           0        0.467864    1.507462    0.082225
      8          1           0       -0.429662   -1.477193    0.053618
      9          1           0       -1.996634    1.170547   -0.050610
     10          1           0       -2.719975   -0.517321    0.012754
 ---------------------------------------------------------------------

 SCF Done:  E(RB2PLYPD3) =  -155.699598917     A.U. after   11 cycles
 E2(B2PLYPD3) =    -0.2261680575D+00 E(B2PLYPD3) =    -0.15592576697482D+03

 The electronic state is 1-A.
 Alpha  occ. eigenvalues --  -10.62808 -10.62616 -10.61878 -10.61454  -0.92808
 Alpha  occ. eigenvalues --   -0.84653  -0.69926  -0.63973  -0.54597  -0.53579
 Alpha  occ. eigenvalues --   -0.46573  -0.45535  -0.41313  -0.37922  -0.27567
 Alpha virt. eigenvalues --    0.01740   0.07052   0.07266   0.08099   0.09343
 Alpha virt. eigenvalues --    0.11693   0.12430   0.14594   0.15809   0.16117
 Alpha virt. eigenvalues --    0.18727   0.20381   0.21558   0.23064   0.23753

 Mulliken charges:
               1
     1  C   -0.176720
     2  C   -0.034136
     3  C   -0.027820
     4  C   -0.176939
     5  H    0.088143
     6  H    0.064570
     7  H    0.057145
     8  H    0.055364
     9  H    0.064039
    10  H    0.086354
 Sum of Mulliken charges =   0.00000

 Dipole moment (field-independent basis, Debye):
    X=              0.0033    Y=              0.0235    Z=              0.0092  Tot=              0.0254
 Quadrupole moment (field-independent basis, Debye-Ang):
   XX=            -23.6375   YY=            -23.0185   ZZ=            -29.3567
   XY=             -0.1477   XZ=             -0.2180   YZ=             -0.0365

 1\1\GINC-NODE07\SP\RB2PLYPD3-FC\def2QZVP\C4H6\BOITTIER\26-Aug-2020\0\\
 #p B2PLYPD3/Def2QZVP\\butadiene\\0,1\C,0,-3.834683,0.233533,0.009239\C
 ,0,-2.722744,-0.521511,0.052453\C,0,-1.389033,0.073578,0.025008\C,0,-0
 .263056,-0.648312,0.014613\H,0,-4.799721,-0.229123,-0.039002\H,0,-3.76
 2093,1.343876,-0.052578\H,0,-2.78616,-1.608709,0.149062\H,0,-1.359978,
 1.160421,0.037462\H,0,-0.301781,-1.730341,0.014991\H,0,0.717062,-0.201
 355,0.032125\\Version=ES64L-G09RevD.01\State=1-A\HF=-155.6995989\MP2=-
 155.925767\RMSD=4.018e-09\PG=C01 [X(C4H6)]\\@

 Normal termination of Gaussian 09 at Wed Aug 26 16:30:04 2020.
