 Gaussian 09, Revision D.01,
 Gaussian 09:  ES64L-G09RevD.01 24-Apr-2013

 --------------------
 #p B2PLYPD3/Def2QZVP
 --------------------

 ---------
 butadiene
 ---------
 Symbolic Z-matrix:
 Charge =  0 Multiplicity = 1

                         Standard orientation:
 ---------------------------------------------------------------------
 Center     Atomic      Atomic             Coordinates (Angstroms)
 Number     Number       Type             X           Y           Z
 ---------------------------------------------------------------------
      1          6           0        1.842383   -0.112494   -0.012742
      2          6           0        0.610911    0.401101    0.019455
      3          6           0       -0.617782   -0.393171   -0.006779
      4          6           0       -1.845679    0.110064   -0.002122
      5          1           0        2.746432    0.505349   -0.002676
      6          1           0        1.986915   -1.204704   -0.041747
      7          1           0        0.501370    1.491265    0.042844
      8          1           0       -0.451857   -1.456680    0.076854
      9          1           0       -1.992164    1.164981   -0.061258
     10          1           0       -2.729697   -0.533208   -0.000887
 ---------------------------------------------------------------------

 SCF Done:  E(RB2PLYPD3) =  -155.700176612     A.U. after   11 cycles
 E2(B2PLYPD3) =    -0.2256852698D+00 E(B2PLYPD3) =    -0.15592586188187D+03

 The electronic state is 1-A.
 Alpha  occ. eigenvalues --  -10.62691 -10.62459 -10.61894 -10.61430  -0.92907
 Alpha  occ. eigenvalues --   -0.85009  -0.69923  -0.63961  -0.54465  -0.53847
 Alpha  occ. eigenvalues --   -0.46952  -0.45410  -0.40810  -0.38076  -0.27903
 Alpha virt. eigenvalues --    0.01834   0.06994   0.07412   0.08017   0.09603
 Alpha virt. eigenvalues --    0.11663   0.12428   0.14592   0.15699   0.16190
 Alpha virt. eigenvalues --    0.18801   0.20294   0.21639   0.22837   0.23736

 Mulliken charges:
               1
     1  C   -0.173249
     2  C   -0.031467
     3  C   -0.028746
     4  C   -0.175770
     5  H    0.087234
     6  H    0.060476
     7  H    0.050665
     8  H    0.055705
     9  H    0.068686
    10  H    0.086467
 Sum of Mulliken charges =   0.00000

 Dipole moment (field-independent basis, Debye):
    X=              0.0010    Y=              0.0115    Z=              0.0148  Tot=              0.0188
 Quadrupole moment (field-independent basis, Debye-Ang):
   XX=            -23.3756   YY=            -23.2058   ZZ=            -29.2813
   XY=             -0.0796   XZ=              0.0074   YZ=             -0.0812

 1\1\GINC-NODE27\SP\RB2PLYPD3-FC\def2QZVP\C4H6\BOITTIER\26-Aug-2020\0\\
 #p B2PLYPD3/Def2QZVP\\butadiene\\0,1\C,0,-3.846523,0.222364,0.007221\C
 ,0,-2.725412,-0.500346,0.053494\C,0,-1.375536,0.062858,0.010153\C,0,-0
 .256184,-0.649679,0.028641\H,0,-4.845683,-0.225144,0.030674\H,0,-3.795
 386,1.321902,-0.048043\H,0,-2.810639,-1.591806,0.103042\H,0,-1.350227,
 1.140621,0.068148\H,0,-0.299036,-1.714963,-0.005098\H,0,0.727797,-0.17
 3335,0.015849\\Version=ES64L-G09RevD.01\State=1-A\HF=-155.7001766\MP2=
 -155.9258619\RMSD=2.846e-09\PG=C01 [X(C4H6)]\\@

 Normal termination of Gaussian 09 at Wed Aug 26 20:34:29 2020.
