 Gaussian 09, Revision D.01,
 Gaussian 09:  ES64L-G09RevD.01 24-Apr-2013

 --------------------
 #p B2PLYPD3/Def2QZVP
 --------------------

 ---------
 butadiene
 ---------
 Symbolic Z-matrix:
 Charge =  0 Multiplicity = 1

                         Standard orientation:
 ---------------------------------------------------------------------
 Center     Atomic      Atomic             Coordinates (Angstroms)
 Number     Number       Type             X           Y           Z
 ---------------------------------------------------------------------
      1          6           0       -1.862999    0.093880    0.032926
      2          6           0       -0.625287   -0.363088   -0.061177
      3          6           0        0.652664    0.446569   -0.119046
      4          6           0        1.846832   -0.167831    0.072498
      5          1           0       -2.787669   -0.545818    0.162193
      6          1           0       -1.932639    1.127989    0.206136
      7          1           0       -0.526019   -1.447509   -0.115196
      8          1           0        0.536775    1.578868   -0.050612
      9          1           0        1.942976   -1.227032    0.061221
     10          1           0        2.699311    0.456328    0.185052
 ---------------------------------------------------------------------

 SCF Done:  E(RB2PLYPD3) =  -155.686484993     A.U. after   11 cycles
 E2(B2PLYPD3) =    -0.2266470717D+00 E(B2PLYPD3) =    -0.15591313206507D+03

 The electronic state is 1-A.
 Alpha  occ. eigenvalues --  -10.64196 -10.62716 -10.61880 -10.61199  -0.92107
 Alpha  occ. eigenvalues --   -0.85129  -0.69370  -0.63651  -0.54230  -0.53697
 Alpha  occ. eigenvalues --   -0.46772  -0.45463  -0.40475  -0.37456  -0.28036
 Alpha virt. eigenvalues --    0.01822   0.06970   0.07355   0.07907   0.09074
 Alpha virt. eigenvalues --    0.11607   0.12437   0.14356   0.15675   0.16233
 Alpha virt. eigenvalues --    0.18903   0.19854   0.21548   0.22431   0.23863

 Mulliken charges:
               1
     1  C   -0.172991
     2  C   -0.017949
     3  C   -0.056124
     4  C   -0.168143
     5  H    0.083460
     6  H    0.058698
     7  H    0.049730
     8  H    0.054570
     9  H    0.081004
    10  H    0.087746
 Sum of Mulliken charges =   0.00000

 Dipole moment (field-independent basis, Debye):
    X=              0.1771    Y=             -0.0377    Z=              0.3058  Tot=              0.3554
 Quadrupole moment (field-independent basis, Debye-Ang):
   XX=            -23.6506   YY=            -23.1039   ZZ=            -29.3413
   XY=              0.1260   XZ=             -0.1292   YZ=              0.2551

 1\1\GINC-NODE11\SP\RB2PLYPD3-FC\def2QZVP\C4H6\BOITTIER\26-Aug-2020\0\\
 #p B2PLYPD3/Def2QZVP\\butadiene\\0,1\C,0,-3.875428,0.187371,0.064936\C
 ,0,-2.731156,-0.470823,-0.018896\C,0,-1.336878,0.11386,-0.097562\C,0,-
 0.260288,-0.685445,0.108057\H,0,-4.892783,-0.286682,0.210544\H,0,-3.77
 1695,1.222554,0.212815\H,0,-2.813445,-1.557659,-0.04641\H,0,-1.262967,
 1.251001,-0.056797\H,0,-0.341268,-1.745872,0.122656\H,0,0.684465,-0.20
 8917,0.204633\\Version=ES64L-G09RevD.01\State=1-A\HF=-155.686485\MP2=-
 155.9131321\RMSD=9.234e-09\PG=C01 [X(C4H6)]\\@

 Normal termination of Gaussian 09 at Wed Aug 26 12:27:12 2020.
