 Gaussian 09, Revision D.01,
 Gaussian 09:  ES64L-G09RevD.01 24-Apr-2013

 --------------------
 #p B2PLYPD3/Def2QZVP
 --------------------

 ---------
 butadiene
 ---------
 Symbolic Z-matrix:
 Charge =  0 Multiplicity = 1

                         Standard orientation:
 ---------------------------------------------------------------------
 Center     Atomic      Atomic             Coordinates (Angstroms)
 Number     Number       Type             X           Y           Z
 ---------------------------------------------------------------------
      1          6           0       -1.850532    0.081645    0.018584
      2          6           0       -0.597591   -0.368562   -0.021207
      3          6           0        0.613733    0.413675   -0.023684
      4          6           0        1.837279   -0.127298    0.033082
      5          1           0       -2.695031   -0.551583   -0.050074
      6          1           0       -2.129132    1.117425    0.111487
      7          1           0       -0.377712   -1.420287   -0.028152
      8          1           0        0.510764    1.505088   -0.075391
      9          1           0        1.998343   -1.158615    0.030792
     10          1           0        2.675431    0.511215   -0.029309
 ---------------------------------------------------------------------

 SCF Done:  E(RB2PLYPD3) =  -155.697562444     A.U. after   11 cycles
 E2(B2PLYPD3) =    -0.2252913712D+00 E(B2PLYPD3) =    -0.15592285381496D+03

 The electronic state is 1-A.
 Alpha  occ. eigenvalues --  -10.62522 -10.62298 -10.61210 -10.60945  -0.93164
 Alpha  occ. eigenvalues --   -0.85115  -0.71149  -0.64261  -0.55313  -0.54024
 Alpha  occ. eigenvalues --   -0.47101  -0.46197  -0.40901  -0.38134  -0.27639
 Alpha virt. eigenvalues --    0.01480   0.07021   0.07544   0.08156   0.09802
 Alpha virt. eigenvalues --    0.11671   0.12537   0.15055   0.15849   0.16155
 Alpha virt. eigenvalues --    0.18939   0.20538   0.21935   0.22819   0.23569

 Mulliken charges:
               1
     1  C   -0.174361
     2  C   -0.031023
     3  C   -0.025277
     4  C   -0.179166
     5  H    0.084276
     6  H    0.064393
     7  H    0.054012
     8  H    0.052658
     9  H    0.069004
    10  H    0.085483
 Sum of Mulliken charges =   0.00000

 Dipole moment (field-independent basis, Debye):
    X=              0.0287    Y=              0.0038    Z=             -0.0639  Tot=              0.0701
 Quadrupole moment (field-independent basis, Debye-Ang):
   XX=            -23.1792   YY=            -23.2310   ZZ=            -29.1247
   XY=             -0.4124   XZ=             -0.1516   YZ=              0.0484

 1\1\GINC-NODE32\SP\RB2PLYPD3-FC\def2QZVP\C4H6\BOITTIER\26-Aug-2020\0\\
 #p B2PLYPD3/Def2QZVP\\butadiene\\0,1\C,0,-3.856208,0.207557,0.039124\C
 ,0,-2.70803,-0.467092,0.01335\C,0,-1.37324,0.077774,-0.012432\C,0,-0.2
 70182,-0.677742,0.061045\H,0,-4.803364,-0.260731,-0.010595\H,0,-3.9384
 91,1.279259,0.100559\H,0,-2.685946,-1.541062,0.038299\H,0,-1.273411,1.
 167412,-0.097171\H,0,-0.302115,-1.720672,0.090011\H,0,0.671017,-0.2069
 95,-0.020387\\Version=ES64L-G09RevD.01\State=1-A\HF=-155.6975624\MP2=-
 155.9228538\RMSD=6.253e-09\PG=C01 [X(C4H6)]\\@

 Normal termination of Gaussian 09 at Wed Aug 26 08:40:02 2020.
