 Gaussian 09, Revision D.01,
 Gaussian 09:  ES64L-G09RevD.01 24-Apr-2013

 --------------------
 #p B2PLYPD3/Def2QZVP
 --------------------

 ---------
 butadiene
 ---------
 Symbolic Z-matrix:
 Charge =  0 Multiplicity = 1

                         Standard orientation:
 ---------------------------------------------------------------------
 Center     Atomic      Atomic             Coordinates (Angstroms)
 Number     Number       Type             X           Y           Z
 ---------------------------------------------------------------------
      1          6           0        1.825533   -0.115639   -0.008941
      2          6           0        0.598781    0.411321   -0.002842
      3          6           0       -0.605714   -0.391409    0.012947
      4          6           0       -1.827866    0.109373   -0.021618
      5          1           0        2.750819    0.487785    0.019632
      6          1           0        1.954339   -1.215557   -0.046793
      7          1           0        0.503073    1.511571    0.082812
      8          1           0       -0.457023   -1.462899    0.052911
      9          1           0       -2.012539    1.152951   -0.035673
     10          1           0       -2.683070   -0.555722    0.049836
 ---------------------------------------------------------------------

 SCF Done:  E(RB2PLYPD3) =  -155.699278734     A.U. after   11 cycles
 E2(B2PLYPD3) =    -0.2256872746D+00 E(B2PLYPD3) =    -0.15592496600874D+03

 The electronic state is 1-A.
 Alpha  occ. eigenvalues --  -10.62659 -10.62239 -10.61991 -10.61048  -0.93214
 Alpha  occ. eigenvalues --   -0.84992  -0.69848  -0.63913  -0.54394  -0.54068
 Alpha  occ. eigenvalues --   -0.46628  -0.45257  -0.41021  -0.38290  -0.27791
 Alpha virt. eigenvalues --    0.01907   0.07019   0.07331   0.07967   0.09637
 Alpha virt. eigenvalues --    0.11698   0.12410   0.14679   0.15760   0.16200
 Alpha virt. eigenvalues --    0.18718   0.20264   0.21689   0.22772   0.23884

 Mulliken charges:
               1
     1  C   -0.173613
     2  C   -0.029183
     3  C   -0.027127
     4  C   -0.174657
     5  H    0.085081
     6  H    0.059365
     7  H    0.052800
     8  H    0.054880
     9  H    0.069893
    10  H    0.082560
 Sum of Mulliken charges =   0.00000

 Dipole moment (field-independent basis, Debye):
    X=              0.0037    Y=              0.0105    Z=              0.1161  Tot=              0.1166
 Quadrupole moment (field-independent basis, Debye-Ang):
   XX=            -23.5732   YY=            -23.0987   ZZ=            -29.2467
   XY=             -0.1079   XZ=             -0.0763   YZ=              0.0372

 1\1\GINC-NODE29\SP\RB2PLYPD3-FC\def2QZVP\C4H6\BOITTIER\26-Aug-2020\0\\
 #p B2PLYPD3/Def2QZVP\\butadiene\\0,1\C,0,-3.828109,0.227306,0.010147\C
 ,0,-2.715754,-0.510659,0.036944\C,0,-1.386764,0.06306,0.028841\C,0,-0.
 274384,-0.649699,0.014109\H,0,-4.846514,-0.199056,0.056608\H,0,-3.7576
 76,1.330601,-0.064839\H,0,-2.818637,-1.606747,0.159634\H,0,-1.340716,1
 .14457,0.032529\H,0,-0.279936,-1.709355,0.03547\H,0,0.686493,-0.14679,
 0.065379\\Version=ES64L-G09RevD.01\State=1-A\HF=-155.6992787\MP2=-155.
 924966\RMSD=3.593e-09\PG=C01 [X(C4H6)]\\@

 Normal termination of Gaussian 09 at Wed Aug 26 18:33:50 2020.
