 Gaussian 09, Revision D.01,
 Gaussian 09:  ES64L-G09RevD.01 24-Apr-2013

 --------------------
 #p B2PLYPD3/Def2QZVP
 --------------------

 ---------
 butadiene
 ---------
 Symbolic Z-matrix:
 Charge =  0 Multiplicity = 1

                         Standard orientation:
 ---------------------------------------------------------------------
 Center     Atomic      Atomic             Coordinates (Angstroms)
 Number     Number       Type             X           Y           Z
 ---------------------------------------------------------------------
      1          6           0        1.847449    0.107774    0.003084
      2          6           0        0.616399   -0.386818   -0.010384
      3          6           0       -0.612464    0.404830   -0.018338
      4          6           0       -1.836385   -0.121004    0.011605
      5          1           0        2.697487   -0.569979   -0.019389
      6          1           0        2.010353    1.195598    0.098569
      7          1           0        0.461463   -1.462220   -0.008672
      8          1           0       -0.555442    1.491338   -0.035217
      9          1           0       -2.010392   -1.190739    0.051234
     10          1           0       -2.693461    0.507313   -0.002329
 ---------------------------------------------------------------------

 SCF Done:  E(RB2PLYPD3) =  -155.700201411     A.U. after   11 cycles
 E2(B2PLYPD3) =    -0.2254908555D+00 E(B2PLYPD3) =    -0.15592569226695D+03

 The electronic state is 1-A.
 Alpha  occ. eigenvalues --  -10.62513 -10.62453 -10.61674 -10.61248  -0.92906
 Alpha  occ. eigenvalues --   -0.85165  -0.69947  -0.63839  -0.54470  -0.54094
 Alpha  occ. eigenvalues --   -0.46616  -0.45579  -0.41037  -0.38065  -0.27867
 Alpha virt. eigenvalues --    0.01894   0.07007   0.07406   0.08015   0.09679
 Alpha virt. eigenvalues --    0.11688   0.12298   0.14702   0.15905   0.16081
 Alpha virt. eigenvalues --    0.18807   0.20573   0.21286   0.22722   0.24005

 Mulliken charges:
               1
     1  C   -0.175334
     2  C   -0.032776
     3  C   -0.028340
     4  C   -0.175794
     5  H    0.087943
     6  H    0.069097
     7  H    0.054004
     8  H    0.052146
     9  H    0.063789
    10  H    0.085265
 Sum of Mulliken charges =   0.00000

 Dipole moment (field-independent basis, Debye):
    X=             -0.0501    Y=             -0.0088    Z=              0.0627  Tot=              0.0808
 Quadrupole moment (field-independent basis, Debye-Ang):
   XX=            -23.5716   YY=            -23.0309   ZZ=            -29.2554
   XY=              0.0007   XZ=              0.0593   YZ=              0.0465

 1\1\GINC-NODE13\SP\RB2PLYPD3-FC\def2QZVP\C4H6\BOITTIER\26-Aug-2020\0\\
 #p B2PLYPD3/Def2QZVP\\butadiene\\0,1\C,0,-3.849874,0.216634,0.012595\C
 ,0,-2.72551,-0.486984,0.044472\C,0,-1.376114,0.074985,0.030524\C,0,-0.
 264425,-0.659466,0.019974\H,0,-4.806188,-0.299257,0.054283\H,0,-3.8183
 66,1.312602,-0.117318\H,0,-2.762978,-1.572362,0.076829\H,0,-1.240262,1
 .154466,0.013211\H,0,-0.282242,-1.743824,0.0143\H,0,0.690201,-0.192314
 ,0.016241\\Version=ES64L-G09RevD.01\State=1-A\HF=-155.7002014\MP2=-155
 .9256923\RMSD=4.344e-09\PG=C01 [X(C4H6)]\\@

 Normal termination of Gaussian 09 at Wed Aug 26 19:34:31 2020.
