 Gaussian 09, Revision D.01,
 Gaussian 09:  ES64L-G09RevD.01 24-Apr-2013

 --------------------
 #p B2PLYPD3/Def2QZVP
 --------------------

 ---------
 butadiene
 ---------
 Symbolic Z-matrix:
 Charge =  0 Multiplicity = 1

                         Standard orientation:
 ---------------------------------------------------------------------
 Center     Atomic      Atomic             Coordinates (Angstroms)
 Number     Number       Type             X           Y           Z
 ---------------------------------------------------------------------
      1          6           0       -1.859936    0.074631    0.050987
      2          6           0       -0.616957   -0.322169   -0.075690
      3          6           0        0.635742    0.432994   -0.072448
      4          6           0        1.865073   -0.146543    0.060411
      5          1           0       -2.717777   -0.551543   -0.102323
      6          1           0       -2.108707    1.052207    0.367572
      7          1           0       -0.586890   -1.364413   -0.062830
      8          1           0        0.481580    1.483208   -0.188621
      9          1           0        1.875416   -1.270229    0.155966
     10          1           0        2.912845    0.417291    0.050674
 ---------------------------------------------------------------------

 SCF Done:  E(RB2PLYPD3) =  -155.677573470     A.U. after   12 cycles
 E2(B2PLYPD3) =    -0.2267220425D+00 E(B2PLYPD3) =    -0.15590429551242D+03

 The electronic state is 1-A.
 Alpha  occ. eigenvalues --  -10.64028 -10.63366 -10.61682 -10.60753  -0.92936
 Alpha  occ. eigenvalues --   -0.84917  -0.69904  -0.64556  -0.54153  -0.53751
 Alpha  occ. eigenvalues --   -0.47481  -0.44688  -0.40890  -0.37440  -0.27675
 Alpha virt. eigenvalues --    0.01136   0.06774   0.07557   0.07967   0.09607
 Alpha virt. eigenvalues --    0.11410   0.12421   0.14470   0.15469   0.16466
 Alpha virt. eigenvalues --    0.18956   0.19354   0.21411   0.22013   0.23841

 Mulliken charges:
               1
     1  C   -0.179037
     2  C   -0.011619
     3  C   -0.060397
     4  C   -0.159348
     5  H    0.084059
     6  H    0.057249
     7  H    0.050439
     8  H    0.067156
     9  H    0.065756
    10  H    0.085741
 Sum of Mulliken charges =   0.00000

 Dipole moment (field-independent basis, Debye):
    X=              0.0019    Y=             -0.0188    Z=              0.1112  Tot=              0.1128
 Quadrupole moment (field-independent basis, Debye-Ang):
   XX=            -22.9816   YY=            -23.6882   ZZ=            -29.1711
   XY=              0.1522   XZ=             -0.0810   YZ=              0.0742

 1\1\GINC-NODE05\SP\RB2PLYPD3-FC\def2QZVP\C4H6\BOITTIER\26-Aug-2020\0\\
 #p B2PLYPD3/Def2QZVP\\butadiene\\0,1\C,0,-3.875814,0.173986,0.075444\C
 ,0,-2.719262,-0.43344,-0.033711\C,0,-1.356486,0.097148,-0.062953\C,0,-
 0.242563,-0.676781,0.095095\H,0,-4.828647,-0.303164,-0.050757\H,0,-3.9
 52602,1.192242,0.349354\H,0,-2.866611,-1.464104,0.024277\H,0,-1.330814
 ,1.152348,-0.224525\H,0,-0.422591,-1.780739,0.239224\H,0,0.885671,-0.3
 00265,0.061135\\Version=ES64L-G09RevD.01\State=1-A\HF=-155.6775735\MP2
 =-155.9042955\RMSD=4.348e-09\PG=C01 [X(C4H6)]\\@

 Normal termination of Gaussian 09 at Wed Aug 26 12:59:54 2020.
