 Gaussian 09, Revision D.01,
 Gaussian 09:  ES64L-G09RevD.01 24-Apr-2013

 --------------------
 #p B2PLYPD3/Def2QZVP
 --------------------

 ---------
 butadiene
 ---------
 Symbolic Z-matrix:
 Charge =  0 Multiplicity = 1

                         Standard orientation:
 ---------------------------------------------------------------------
 Center     Atomic      Atomic             Coordinates (Angstroms)
 Number     Number       Type             X           Y           Z
 ---------------------------------------------------------------------
      1          6           0        1.801968    0.062919   -0.062458
      2          6           0        0.591485   -0.326834    0.070600
      3          6           0       -0.593939    0.425710    0.028078
      4          6           0       -1.821137   -0.132072   -0.076532
      5          1           0        2.561995   -0.600075    0.000651
      6          1           0        2.096980    1.101400   -0.133831
      7          1           0        0.536336   -1.392576    0.222120
      8          1           0       -0.422979    1.527034    0.173550
      9          1           0       -1.861464   -1.185241   -0.147399
     10          1           0       -2.781130    0.371122    0.126778
 ---------------------------------------------------------------------

 SCF Done:  E(RB2PLYPD3) =  -155.684042437     A.U. after   12 cycles
 E2(B2PLYPD3) =    -0.2250927730D+00 E(B2PLYPD3) =    -0.15590913521024D+03

 The electronic state is 1-A.
 Alpha  occ. eigenvalues --  -10.62901 -10.61826 -10.60884 -10.59695  -0.94286
 Alpha  occ. eigenvalues --   -0.85676  -0.71152  -0.63804  -0.55624  -0.54289
 Alpha  occ. eigenvalues --   -0.47661  -0.45188  -0.40944  -0.38274  -0.27927
 Alpha virt. eigenvalues --    0.01504   0.07138   0.07451   0.07987   0.10309
 Alpha virt. eigenvalues --    0.11620   0.12660   0.14970   0.15824   0.16287
 Alpha virt. eigenvalues --    0.18943   0.19688   0.21629   0.22059   0.24520

 Mulliken charges:
               1
     1  C   -0.166212
     2  C   -0.003482
     3  C   -0.041643
     4  C   -0.167330
     5  H    0.082671
     6  H    0.052620
     7  H    0.040602
     8  H    0.052781
     9  H    0.064687
    10  H    0.085306
 Sum of Mulliken charges =   0.00000

 Dipole moment (field-independent basis, Debye):
    X=              0.0808    Y=             -0.0764    Z=              0.2821  Tot=              0.3032
 Quadrupole moment (field-independent basis, Debye-Ang):
   XX=            -23.2540   YY=            -23.4688   ZZ=            -28.8320
   XY=              0.1532   XZ=             -0.3775   YZ=              0.1032

 1\1\GINC-NODE02\SP\RB2PLYPD3-FC\def2QZVP\C4H6\BOITTIER\26-Aug-2020\0\\
 #p B2PLYPD3/Def2QZVP\\butadiene\\0,1\C,0,-3.814187,0.179598,0.08044\C,
 0,-2.697485,-0.432206,-0.03598\C,0,-1.39341,0.090001,-0.029074\C,0,-0.
 288976,-0.679255,0.099572\H,0,-4.683864,-0.334039,0.048435\H,0,-3.9122
 39,1.256801,0.104687\H,0,-2.84096,-1.495526,-0.138795\H,0,-1.360013,1.
 196356,-0.224443\H,0,-0.442603,-1.717572,0.218355\H,0,0.745296,-0.3712
 76,-0.127488\\Version=ES64L-G09RevD.01\State=1-A\HF=-155.6840424\MP2=-
 155.9091352\RMSD=3.659e-09\PG=C01 [X(C4H6)]\\@

 Normal termination of Gaussian 09 at Wed Aug 26 14:09:51 2020.
