 Gaussian 09, Revision D.01,
 Gaussian 09:  ES64L-G09RevD.01 24-Apr-2013

 --------------------
 #p B2PLYPD3/Def2QZVP
 --------------------

 ---------
 butadiene
 ---------
 Symbolic Z-matrix:
 Charge =  0 Multiplicity = 1

                         Standard orientation:
 ---------------------------------------------------------------------
 Center     Atomic      Atomic             Coordinates (Angstroms)
 Number     Number       Type             X           Y           Z
 ---------------------------------------------------------------------
      1          6           0       -1.843745   -0.120315    0.024259
      2          6           0       -0.614458    0.424949   -0.016641
      3          6           0        0.602107   -0.374374   -0.023487
      4          6           0        1.852115    0.088113   -0.003230
      5          1           0       -2.792377    0.451036    0.051278
      6          1           0       -1.994101   -1.166956   -0.017964
      7          1           0       -0.441388    1.455151   -0.025365
      8          1           0        0.462118   -1.436190   -0.060932
      9          1           0        2.070922    1.154279    0.005405
     10          1           0        2.718714   -0.567552    0.162170
 ---------------------------------------------------------------------

 SCF Done:  E(RB2PLYPD3) =  -155.696655083     A.U. after   11 cycles
 E2(B2PLYPD3) =    -0.2257976557D+00 E(B2PLYPD3) =    -0.15592245273828D+03

 The electronic state is 1-A.
 Alpha  occ. eigenvalues --  -10.62536 -10.62320 -10.61930 -10.61686  -0.93004
 Alpha  occ. eigenvalues --   -0.84753  -0.70452  -0.64761  -0.54692  -0.53703
 Alpha  occ. eigenvalues --   -0.47363  -0.45404  -0.41075  -0.37938  -0.27655
 Alpha virt. eigenvalues --    0.01478   0.06924   0.07530   0.08166   0.09532
 Alpha virt. eigenvalues --    0.11618   0.12576   0.14648   0.15809   0.16240
 Alpha virt. eigenvalues --    0.18915   0.20290   0.21997   0.22545   0.23785

 Mulliken charges:
               1
     1  C   -0.167446
     2  C   -0.043611
     3  C   -0.023368
     4  C   -0.175742
     5  H    0.079722
     6  H    0.067612
     7  H    0.064765
     8  H    0.056343
     9  H    0.058916
    10  H    0.082809
 Sum of Mulliken charges =   0.00000

 Dipole moment (field-independent basis, Debye):
    X=             -0.0702    Y=             -0.0129    Z=              0.0762  Tot=              0.1044
 Quadrupole moment (field-independent basis, Debye-Ang):
   XX=            -23.2318   YY=            -23.3005   ZZ=            -29.2308
   XY=              0.3575   XZ=              0.3785   YZ=             -0.0189

 1\1\GINC-NODE08\SP\RB2PLYPD3-FC\def2QZVP\C4H6\BOITTIER\26-Aug-2020\0\\
 #p B2PLYPD3/Def2QZVP\\butadiene\\0,1\C,0,-3.842613,0.238861,-0.003343\
 C,0,-2.73244,-0.519065,0.053195\C,0,-1.391001,0.045878,0.033777\C,0,-0
 .245843,-0.636313,0.026584\H,0,-4.879338,-0.151278,-0.011491\H,0,-3.80
 0248,1.296196,0.006383\H,0,-2.749142,-1.562815,0.093854\H,0,-1.33572,1
 .1161,0.038243\H,0,-0.224212,-1.724246,0.050964\H,0,0.724218,-0.154268
 ,-0.160133\\Version=ES64L-G09RevD.01\State=1-A\HF=-155.6966551\MP2=-15
 5.9224527\RMSD=5.159e-09\PG=C01 [X(C4H6)]\\@

 Normal termination of Gaussian 09 at Wed Aug 26 09:10:35 2020.
