 Gaussian 09, Revision D.01,
 Gaussian 09:  ES64L-G09RevD.01 24-Apr-2013

 --------------------
 #p B2PLYPD3/Def2QZVP
 --------------------

 ---------
 butadiene
 ---------
 Symbolic Z-matrix:
 Charge =  0 Multiplicity = 1

                         Standard orientation:
 ---------------------------------------------------------------------
 Center     Atomic      Atomic             Coordinates (Angstroms)
 Number     Number       Type             X           Y           Z
 ---------------------------------------------------------------------
      1          6           0        1.883830    0.065148    0.037651
      2          6           0        0.616116   -0.368616   -0.076248
      3          6           0       -0.650310    0.439768   -0.012632
      4          6           0       -1.863318   -0.145018    0.014438
      5          1           0        2.765135   -0.566758    0.029753
      6          1           0        2.071717    1.238863    0.161836
      7          1           0        0.399835   -1.421254   -0.078424
      8          1           0       -0.454881    1.458090   -0.122700
      9          1           0       -2.015365   -1.210171    0.216084
     10          1           0       -2.684345    0.553542    0.014192
 ---------------------------------------------------------------------

 SCF Done:  E(RB2PLYPD3) =  -155.683769017     A.U. after   12 cycles
 E2(B2PLYPD3) =    -0.2270335666D+00 E(B2PLYPD3) =    -0.15591080258372D+03

 The electronic state is 1-A.
 Alpha  occ. eigenvalues --  -10.62992 -10.62888 -10.62770 -10.62159  -0.92179
 Alpha  occ. eigenvalues --   -0.84569  -0.69874  -0.64061  -0.54415  -0.52849
 Alpha  occ. eigenvalues --   -0.47893  -0.45029  -0.39865  -0.37390  -0.27968
 Alpha virt. eigenvalues --    0.01494   0.06917   0.07210   0.08219   0.09141
 Alpha virt. eigenvalues --    0.11607   0.12006   0.14472   0.15408   0.16194
 Alpha virt. eigenvalues --    0.18592   0.19871   0.21332   0.22685   0.23659

 Mulliken charges:
               1
     1  C   -0.171270
     2  C   -0.034825
     3  C   -0.046802
     4  C   -0.173167
     5  H    0.096002
     6  H    0.045922
     7  H    0.052073
     8  H    0.067945
     9  H    0.080200
    10  H    0.083922
 Sum of Mulliken charges =   0.00000

 Dipole moment (field-independent basis, Debye):
    X=             -0.0764    Y=             -0.0341    Z=              0.1461  Tot=              0.1684
 Quadrupole moment (field-independent basis, Debye-Ang):
   XX=            -23.6342   YY=            -23.1996   ZZ=            -29.4364
   XY=              0.1227   XZ=             -0.0391   YZ=             -0.2165

 1\1\GINC-NODE38\SP\RB2PLYPD3-FC\def2QZVP\C4H6\BOITTIER\26-Aug-2020\0\\
 #p B2PLYPD3/Def2QZVP\\butadiene\\0,1\C,0,-3.895559,0.187764,-0.02021\C
 ,0,-2.726091,-0.464791,0.101198\C,0,-1.335285,0.102561,0.029523\C,0,-0
 .246805,-0.690529,0.011778\H,0,-4.875878,-0.275737,-0.00583\H,0,-3.870
 032,1.374483,-0.159415\H,0,-2.702053,-1.539036,0.116932\H,0,-1.344891,
 1.140729,0.126489\H,0,-0.288334,-1.768144,-0.176242\H,0,0.686169,-0.15
 0548,0.004607\\Version=ES64L-G09RevD.01\State=1-A\HF=-155.683769\MP2=-
 155.9108026\RMSD=3.821e-09\PG=C01 [X(C4H6)]\\@

 Normal termination of Gaussian 09 at Wed Aug 26 12:25:24 2020.
