 Gaussian 09, Revision D.01,
 Gaussian 09:  ES64L-G09RevD.01 24-Apr-2013

 --------------------
 #p B2PLYPD3/Def2QZVP
 --------------------

 ---------
 butadiene
 ---------
 Symbolic Z-matrix:
 Charge =  0 Multiplicity = 1

                         Standard orientation:
 ---------------------------------------------------------------------
 Center     Atomic      Atomic             Coordinates (Angstroms)
 Number     Number       Type             X           Y           Z
 ---------------------------------------------------------------------
      1          6           0        1.843652    0.101254   -0.027235
      2          6           0        0.593374   -0.384662    0.029539
      3          6           0       -0.604624    0.406292    0.007922
      4          6           0       -1.838917   -0.114334   -0.012395
      5          1           0        2.692620   -0.562363   -0.001136
      6          1           0        2.061695    1.154098   -0.033273
      7          1           0        0.480383   -1.446463    0.045610
      8          1           0       -0.450164    1.473413    0.078455
      9          1           0       -1.995108   -1.175625   -0.049842
     10          1           0       -2.750330    0.505641   -0.026800
 ---------------------------------------------------------------------

 SCF Done:  E(RB2PLYPD3) =  -155.700170057     A.U. after   11 cycles
 E2(B2PLYPD3) =    -0.2258440264D+00 E(B2PLYPD3) =    -0.15592601408320D+03

 The electronic state is 1-A.
 Alpha  occ. eigenvalues --  -10.62490 -10.62239 -10.61813 -10.61459  -0.93180
 Alpha  occ. eigenvalues --   -0.84744  -0.70504  -0.64414  -0.54577  -0.54054
 Alpha  occ. eigenvalues --   -0.46712  -0.45680  -0.41322  -0.38196  -0.27491
 Alpha virt. eigenvalues --    0.01444   0.06983   0.07511   0.08051   0.09697
 Alpha virt. eigenvalues --    0.11664   0.12453   0.14816   0.15779   0.16249
 Alpha virt. eigenvalues --    0.18817   0.20353   0.21899   0.22575   0.23795

 Mulliken charges:
               1
     1  C   -0.178253
     2  C   -0.028286
     3  C   -0.031414
     4  C   -0.174444
     5  H    0.083275
     6  H    0.065202
     7  H    0.055340
     8  H    0.057946
     9  H    0.067113
    10  H    0.083521
 Sum of Mulliken charges =   0.00000

 Dipole moment (field-independent basis, Debye):
    X=             -0.0146    Y=             -0.0132    Z=              0.0357  Tot=              0.0408
 Quadrupole moment (field-independent basis, Debye-Ang):
   XX=            -23.3727   YY=            -23.1581   ZZ=            -29.2571
   XY=              0.2291   XZ=              0.0856   YZ=              0.0582

 1\1\GINC-NODE24\SP\RB2PLYPD3-FC\def2QZVP\C4H6\BOITTIER\26-Aug-2020\0\\
 #p B2PLYPD3/Def2QZVP\\butadiene\\0,1\C,0,-3.847389,0.220397,0.042969\C
 ,0,-2.706693,-0.486734,0.006753\C,0,-1.384648,0.073142,0.003451\C,0,-0
 .26569,-0.662461,0.045467\H,0,-4.803076,-0.278057,0.038193\H,0,-3.8700
 95,1.294887,0.011086\H,0,-2.788952,-1.551253,0.028651\H,0,-1.342532,1.
 147377,-0.105294\H,0,-0.305171,-1.732452,0.120944\H,0,0.743407,-0.2186
 75,0.040268\\Version=ES64L-G09RevD.01\State=1-A\HF=-155.7001701\MP2=-1
 55.9260141\RMSD=2.964e-09\PG=C01 [X(C4H6)]\\@

 Normal termination of Gaussian 09 at Wed Aug 26 09:28:19 2020.
