 Gaussian 09, Revision D.01,
 Gaussian 09:  ES64L-G09RevD.01 24-Apr-2013

 --------------------
 #p B2PLYPD3/Def2QZVP
 --------------------

 ---------
 butadiene
 ---------
 Symbolic Z-matrix:
 Charge =  0 Multiplicity = 1

                         Standard orientation:
 ---------------------------------------------------------------------
 Center     Atomic      Atomic             Coordinates (Angstroms)
 Number     Number       Type             X           Y           Z
 ---------------------------------------------------------------------
      1          6           0        1.823955   -0.121431    0.015126
      2          6           0        0.598460    0.416181   -0.041952
      3          6           0       -0.582313   -0.376069   -0.002479
      4          6           0       -1.817562    0.102249   -0.002754
      5          1           0        2.721873    0.476554    0.018380
      6          1           0        1.914667   -1.228023    0.086911
      7          1           0        0.488578    1.524861   -0.010656
      8          1           0       -0.508911   -1.459075   -0.041708
      9          1           0       -2.066853    1.142631    0.142858
     10          1           0       -2.684596   -0.582527   -0.003437
 ---------------------------------------------------------------------

 SCF Done:  E(RB2PLYPD3) =  -155.696564901     A.U. after   11 cycles
 E2(B2PLYPD3) =    -0.2261625851D+00 E(B2PLYPD3) =    -0.15592272748593D+03

 The electronic state is 1-A.
 Alpha  occ. eigenvalues --  -10.62693 -10.62097 -10.61902 -10.61378  -0.93502
 Alpha  occ. eigenvalues --   -0.84878  -0.70027  -0.63747  -0.54717  -0.53846
 Alpha  occ. eigenvalues --   -0.46274  -0.44924  -0.41315  -0.38545  -0.27524
 Alpha virt. eigenvalues --    0.01614   0.07008   0.07292   0.07899   0.09698
 Alpha virt. eigenvalues --    0.11672   0.12374   0.14757   0.15742   0.16294
 Alpha virt. eigenvalues --    0.18631   0.20221   0.21753   0.22337   0.24098

 Mulliken charges:
               1
     1  C   -0.171957
     2  C   -0.031497
     3  C   -0.021348
     4  C   -0.172861
     5  H    0.089263
     6  H    0.062120
     7  H    0.053384
     8  H    0.053498
     9  H    0.065365
    10  H    0.074032
 Sum of Mulliken charges =   0.00000

 Dipole moment (field-independent basis, Debye):
    X=              0.0283    Y=              0.0167    Z=              0.1545  Tot=              0.1580
 Quadrupole moment (field-independent basis, Debye-Ang):
   XX=            -23.6366   YY=            -23.1146   ZZ=            -29.2446
   XY=              0.0203   XZ=             -0.0328   YZ=              0.1327

 1\1\GINC-NODE01\SP\RB2PLYPD3-FC\def2QZVP\C4H6\BOITTIER\26-Aug-2020\0\\
 #p B2PLYPD3/Def2QZVP\\butadiene\\0,1\C,0,-3.820976,0.236009,0.034218\C
 ,0,-2.712956,-0.515815,-0.000033\C,0,-1.408378,0.05106,0.013187\C,0,-0
 .279818,-0.642167,0.033544\H,0,-4.812091,-0.189448,0.057248\H,0,-3.710
 074,1.342661,0.065037\H,0,-2.804945,-1.624207,0.072283\H,0,-1.285179,1
 .127339,-0.066023\H,0,-0.221876,-1.704424,0.21793\H,0,0.696604,-0.1257
 34,0.009815\\Version=ES64L-G09RevD.01\State=1-A\HF=-155.6965649\MP2=-1
 55.9227275\RMSD=5.657e-09\PG=C01 [X(C4H6)]\\@

 Normal termination of Gaussian 09 at Wed Aug 26 11:16:49 2020.
