 Gaussian 09, Revision D.01,
 Gaussian 09:  ES64L-G09RevD.01 24-Apr-2013

 --------------------
 #p B2PLYPD3/Def2QZVP
 --------------------

 ---------
 butadiene
 ---------
 Symbolic Z-matrix:
 Charge =  0 Multiplicity = 1

                         Standard orientation:
 ---------------------------------------------------------------------
 Center     Atomic      Atomic             Coordinates (Angstroms)
 Number     Number       Type             X           Y           Z
 ---------------------------------------------------------------------
      1          6           0       -1.837330    0.100264    0.006369
      2          6           0       -0.602534   -0.396534   -0.019418
      3          6           0        0.604298    0.423531   -0.016361
      4          6           0        1.827401   -0.120322    0.020260
      5          1           0       -2.724399   -0.517913    0.056611
      6          1           0       -1.983400    1.165422    0.071124
      7          1           0       -0.464233   -1.470875   -0.081475
      8          1           0        0.480803    1.479981   -0.054210
      9          1           0        2.004535   -1.192200    0.070012
     10          1           0        2.735680    0.493948   -0.007168
 ---------------------------------------------------------------------

 SCF Done:  E(RB2PLYPD3) =  -155.700584435     A.U. after   11 cycles
 E2(B2PLYPD3) =    -0.2256409450D+00 E(B2PLYPD3) =    -0.15592622538011D+03

 The electronic state is 1-A.
 Alpha  occ. eigenvalues --  -10.62528 -10.62421 -10.61806 -10.61284  -0.92984
 Alpha  occ. eigenvalues --   -0.84819  -0.69941  -0.64445  -0.54567  -0.53894
 Alpha  occ. eigenvalues --   -0.46917  -0.45322  -0.41222  -0.38057  -0.27684
 Alpha virt. eigenvalues --    0.01839   0.07019   0.07439   0.08077   0.09439
 Alpha virt. eigenvalues --    0.11675   0.12509   0.14654   0.15853   0.16224
 Alpha virt. eigenvalues --    0.18786   0.20387   0.21755   0.22938   0.23659

 Mulliken charges:
               1
     1  C   -0.175945
     2  C   -0.026479
     3  C   -0.040267
     4  C   -0.171029
     5  H    0.085422
     6  H    0.061590
     7  H    0.056873
     8  H    0.063034
     9  H    0.066958
    10  H    0.079843
 Sum of Mulliken charges =   0.00000

 Dipole moment (field-independent basis, Debye):
    X=              0.0332    Y=             -0.0008    Z=              0.0299  Tot=              0.0447
 Quadrupole moment (field-independent basis, Debye-Ang):
   XX=            -23.4775   YY=            -23.0873   ZZ=            -29.2577
   XY=             -0.1894   XZ=             -0.1912   YZ=             -0.0137

 1\1\GINC-NODE36\SP\RB2PLYPD3-FC\def2QZVP\C4H6\BOITTIER\26-Aug-2020\0\\
 #p B2PLYPD3/Def2QZVP\\butadiene\\0,1\C,0,-3.840556,0.214481,0.028315\C
 ,0,-2.715735,-0.497458,0.017525\C,0,-1.380806,0.09118,-0.00321\C,0,-0.
 275659,-0.663102,0.049763\H,0,-4.824294,-0.231806,0.096475\H,0,-3.7918
 25,1.289937,0.061641\H,0,-2.77375,-1.580463,-0.012836\H,0,-1.311957,1.
 151025,-0.072181\H,0,-0.294472,-1.747447,0.131101\H,0,0.728351,-0.2238
 21,0.004527\\Version=ES64L-G09RevD.01\State=1-A\HF=-155.7005844\MP2=-1
 55.9262254\RMSD=4.893e-09\PG=C01 [X(C4H6)]\\@

 Normal termination of Gaussian 09 at Wed Aug 26 20:37:16 2020.
