 Gaussian 09, Revision D.01,
 Gaussian 09:  ES64L-G09RevD.01 24-Apr-2013

 --------------------
 #p B2PLYPD3/Def2QZVP
 --------------------

 ---------
 butadiene
 ---------
 Symbolic Z-matrix:
 Charge =  0 Multiplicity = 1

                         Standard orientation:
 ---------------------------------------------------------------------
 Center     Atomic      Atomic             Coordinates (Angstroms)
 Number     Number       Type             X           Y           Z
 ---------------------------------------------------------------------
      1          6           0       -1.822370   -0.115658    0.008970
      2          6           0       -0.591561    0.435240   -0.020301
      3          6           0        0.595284   -0.391655   -0.056857
      4          6           0        1.840286    0.081749    0.033143
      5          1           0       -2.783462    0.421002    0.153519
      6          1           0       -1.955766   -1.177360    0.064595
      7          1           0       -0.491677    1.497716   -0.084652
      8          1           0        0.365549   -1.429131   -0.075431
      9          1           0        2.029099    1.180893    0.013674
     10          1           0        2.706421   -0.551178    0.138560
 ---------------------------------------------------------------------

 SCF Done:  E(RB2PLYPD3) =  -155.695757799     A.U. after   11 cycles
 E2(B2PLYPD3) =    -0.2262637774D+00 E(B2PLYPD3) =    -0.15592202157654D+03

 The electronic state is 1-A.
 Alpha  occ. eigenvalues --  -10.62635 -10.62352 -10.61887 -10.61866  -0.93177
 Alpha  occ. eigenvalues --   -0.84509  -0.70175  -0.64723  -0.54892  -0.53317
 Alpha  occ. eigenvalues --   -0.47036  -0.45075  -0.41409  -0.38038  -0.27475
 Alpha virt. eigenvalues --    0.01537   0.07014   0.07388   0.08155   0.09311
 Alpha virt. eigenvalues --    0.11606   0.12612   0.14512   0.15800   0.16309
 Alpha virt. eigenvalues --    0.18792   0.20352   0.21732   0.23227   0.23380

 Mulliken charges:
               1
     1  C   -0.171080
     2  C   -0.027957
     3  C   -0.034558
     4  C   -0.174000
     5  H    0.076781
     6  H    0.057173
     7  H    0.063183
     8  H    0.060511
     9  H    0.062821
    10  H    0.087127
 Sum of Mulliken charges =   0.00000

 Dipole moment (field-independent basis, Debye):
    X=             -0.0290    Y=             -0.0251    Z=              0.1393  Tot=              0.1445
 Quadrupole moment (field-independent basis, Debye-Ang):
   XX=            -23.3943   YY=            -23.2624   ZZ=            -29.2557
   XY=              0.3201   XZ=             -0.1184   YZ=             -0.1174

 1\1\GINC-NODE20\SP\RB2PLYPD3-FC\def2QZVP\C4H6\BOITTIER\26-Aug-2020\0\\
 #p B2PLYPD3/Def2QZVP\\butadiene\\0,1\C,0,-3.823644,0.237494,0.001395\C
 ,0,-2.716425,-0.530734,0.057317\C,0,-1.396519,0.062142,0.063623\C,0,-0
 .261496,-0.637542,-0.002771\H,0,-4.868313,-0.116809,-0.124035\H,0,-3.7
 57812,1.302302,-0.098347\H,0,-2.81529,-1.58972,0.165701\H,0,-1.429516,
 1.124107,0.038702\H,0,-0.27999,-1.750886,0.062568\H,0,0.706627,-0.1813
 61,-0.131365\\Version=ES64L-G09RevD.01\State=1-A\HF=-155.6957578\MP2=-
 155.9220216\RMSD=5.251e-09\PG=C01 [X(C4H6)]\\@

 Normal termination of Gaussian 09 at Wed Aug 26 11:19:55 2020.
