 Gaussian 09, Revision D.01,
 Gaussian 09:  ES64L-G09RevD.01 24-Apr-2013

 --------------------
 #p B2PLYPD3/Def2QZVP
 --------------------

 ---------
 butadiene
 ---------
 Symbolic Z-matrix:
 Charge =  0 Multiplicity = 1

                         Standard orientation:
 ---------------------------------------------------------------------
 Center     Atomic      Atomic             Coordinates (Angstroms)
 Number     Number       Type             X           Y           Z
 ---------------------------------------------------------------------
      1          6           0       -1.838858    0.116895    0.008741
      2          6           0       -0.600066   -0.430076   -0.010971
      3          6           0        0.601686    0.395732   -0.008933
      4          6           0        1.836882   -0.098592   -0.005102
      5          1           0       -2.755327   -0.481675    0.038100
      6          1           0       -1.985214    1.222833   -0.008899
      7          1           0       -0.450473   -1.504059    0.006124
      8          1           0        0.470648    1.470753   -0.027838
      9          1           0        2.024465   -1.158063   -0.008156
     10          1           0        2.698037    0.546463    0.098258
 ---------------------------------------------------------------------

 SCF Done:  E(RB2PLYPD3) =  -155.699119673     A.U. after   11 cycles
 E2(B2PLYPD3) =    -0.2262491498D+00 E(B2PLYPD3) =    -0.15592536882235D+03

 The electronic state is 1-A.
 Alpha  occ. eigenvalues --  -10.62996 -10.62430 -10.62363 -10.61258  -0.92826
 Alpha  occ. eigenvalues --   -0.84560  -0.69886  -0.64171  -0.54446  -0.53650
 Alpha  occ. eigenvalues --   -0.46595  -0.45347  -0.41293  -0.37979  -0.27533
 Alpha virt. eigenvalues --    0.01649   0.06995   0.07332   0.08068   0.09366
 Alpha virt. eigenvalues --    0.11652   0.12437   0.14593   0.15828   0.16197
 Alpha virt. eigenvalues --    0.18776   0.20368   0.21665   0.22869   0.23758

 Mulliken charges:
               1
     1  C   -0.171136
     2  C   -0.042481
     3  C   -0.022034
     4  C   -0.176546
     5  H    0.084647
     6  H    0.063619
     7  H    0.060117
     8  H    0.056779
     9  H    0.063598
    10  H    0.083438
 Sum of Mulliken charges =   0.00000

 Dipole moment (field-independent basis, Debye):
    X=             -0.0106    Y=             -0.0110    Z=              0.0762  Tot=              0.0778
 Quadrupole moment (field-independent basis, Debye-Ang):
   XX=            -23.5450   YY=            -23.0552   ZZ=            -29.3705
   XY=             -0.2112   XZ=              0.1659   YZ=             -0.0018

 1\1\GINC-NODE34\SP\RB2PLYPD3-FC\def2QZVP\C4H6\BOITTIER\26-Aug-2020\0\\
 #p B2PLYPD3/Def2QZVP\\butadiene\\0,1\C,0,-3.838501,0.236222,0.026092\C
 ,0,-2.719981,-0.527377,0.026518\C,0,-1.388013,0.065653,0.007841\C,0,-0
 .263394,-0.644847,0.030227\H,0,-4.848525,-0.184444,0.070309\H,0,-3.781
 195,1.349306,-0.024811\H,0,-2.76829,-1.609658,0.075938\H,0,-1.321274,1
 .145525,-0.043361\H,0,-0.271753,-1.720377,0.059196\H,0,0.701005,-0.164
 479,0.117116\\Version=ES64L-G09RevD.01\State=1-A\HF=-155.6991197\MP2=-
 155.9253688\RMSD=5.915e-09\PG=C01 [X(C4H6)]\\@

 Normal termination of Gaussian 09 at Wed Aug 26 19:51:11 2020.
