 Gaussian 09, Revision D.01,
 Gaussian 09:  ES64L-G09RevD.01 24-Apr-2013

 --------------------
 #p B2PLYPD3/Def2QZVP
 --------------------

 ---------
 butadiene
 ---------
 Symbolic Z-matrix:
 Charge =  0 Multiplicity = 1

                         Standard orientation:
 ---------------------------------------------------------------------
 Center     Atomic      Atomic             Coordinates (Angstroms)
 Number     Number       Type             X           Y           Z
 ---------------------------------------------------------------------
      1          6           0       -1.834623   -0.092325    0.017142
      2          6           0       -0.593317    0.383827   -0.027069
      3          6           0        0.605388   -0.422729   -0.029729
      4          6           0        1.832758    0.113788   -0.000299
      5          1           0       -2.649996    0.555829    0.046266
      6          1           0       -2.086047   -1.152701    0.025403
      7          1           0       -0.393607    1.441628    0.045127
      8          1           0        0.441498   -1.463920   -0.021233
      9          1           0        1.881803    1.239973   -0.012256
     10          1           0        2.745113   -0.516176    0.156422
 ---------------------------------------------------------------------

 SCF Done:  E(RB2PLYPD3) =  -155.694680182     A.U. after   11 cycles
 E2(B2PLYPD3) =    -0.2259954019D+00 E(B2PLYPD3) =    -0.15592067558425D+03

 The electronic state is 1-A.
 Alpha  occ. eigenvalues --  -10.62503 -10.62263 -10.62057 -10.61102  -0.93288
 Alpha  occ. eigenvalues --   -0.84805  -0.70174  -0.64382  -0.54775  -0.53463
 Alpha  occ. eigenvalues --   -0.46880  -0.45493  -0.41112  -0.38229  -0.27622
 Alpha virt. eigenvalues --    0.01656   0.06983   0.07344   0.08154   0.09572
 Alpha virt. eigenvalues --    0.11747   0.12405   0.14692   0.15637   0.16091
 Alpha virt. eigenvalues --    0.18656   0.20122   0.21750   0.22933   0.24095

 Mulliken charges:
               1
     1  C   -0.180772
     2  C   -0.024059
     3  C   -0.030477
     4  C   -0.173006
     5  H    0.085876
     6  H    0.064820
     7  H    0.050884
     8  H    0.058565
     9  H    0.059651
    10  H    0.088518
 Sum of Mulliken charges =   0.00000

 Dipole moment (field-independent basis, Debye):
    X=             -0.0539    Y=             -0.0577    Z=              0.1821  Tot=              0.1985
 Quadrupole moment (field-independent basis, Debye-Ang):
   XX=            -23.6523   YY=            -23.1466   ZZ=            -29.2393
   XY=              0.1409   XZ=              0.2553   YZ=             -0.0407

 1\1\GINC-NODE11\SP\RB2PLYPD3-FC\def2QZVP\C4H6\BOITTIER\26-Aug-2020\0\\
 #p B2PLYPD3/Def2QZVP\\butadiene\\0,1\C,0,-3.839809,0.212934,0.000509\C
 ,0,-2.707723,-0.483193,0.057979\C,0,-1.380565,0.087497,0.037962\C,0,-0
 .273721,-0.66738,0.023513\H,0,-4.761101,-0.273778,-0.01039\H,0,-3.8908
 91,1.300881,-0.037457\H,0,-2.707408,-1.561261,0.015451\H,0,-1.349171,1
 .140401,0.000294\H,0,-0.433674,-1.782442,0.06703\H,0,0.738542,-0.22159
 3,-0.150856\\Version=ES64L-G09RevD.01\State=1-A\HF=-155.6946802\MP2=-1
 55.9206756\RMSD=5.030e-09\PG=C01 [X(C4H6)]\\@

 Normal termination of Gaussian 09 at Wed Aug 26 09:11:37 2020.
