 Gaussian 09, Revision D.01,
 Gaussian 09:  ES64L-G09RevD.01 24-Apr-2013

 --------------------
 #p B2PLYPD3/Def2QZVP
 --------------------

 ---------
 butadiene
 ---------
 Symbolic Z-matrix:
 Charge =  0 Multiplicity = 1

                         Standard orientation:
 ---------------------------------------------------------------------
 Center     Atomic      Atomic             Coordinates (Angstroms)
 Number     Number       Type             X           Y           Z
 ---------------------------------------------------------------------
      1          6           0       -1.814421   -0.139495    0.045293
      2          6           0       -0.595822    0.439631   -0.043273
      3          6           0        0.604235   -0.378348   -0.032899
      4          6           0        1.818107    0.083325    0.016940
      5          1           0       -2.683057    0.492951   -0.021527
      6          1           0       -1.986158   -1.235276    0.010911
      7          1           0       -0.500348    1.531498    0.024620
      8          1           0        0.455496   -1.426958   -0.039692
      9          1           0        1.976416    1.186137    0.035092
     10          1           0        2.665062   -0.579027    0.074225
 ---------------------------------------------------------------------

 SCF Done:  E(RB2PLYPD3) =  -155.695775793     A.U. after   11 cycles
 E2(B2PLYPD3) =    -0.2256558187D+00 E(B2PLYPD3) =    -0.15592143161160D+03

 The electronic state is 1-A.
 Alpha  occ. eigenvalues --  -10.62906 -10.61939 -10.61459 -10.61004  -0.93324
 Alpha  occ. eigenvalues --   -0.85025  -0.69649  -0.64048  -0.54621  -0.53795
 Alpha  occ. eigenvalues --   -0.46503  -0.45222  -0.41145  -0.38322  -0.27795
 Alpha virt. eigenvalues --    0.02003   0.07050   0.07273   0.08075   0.09543
 Alpha virt. eigenvalues --    0.11778   0.12316   0.14696   0.15659   0.16241
 Alpha virt. eigenvalues --    0.18676   0.19863   0.21804   0.22949   0.24175

 Mulliken charges:
               1
     1  C   -0.172919
     2  C   -0.043708
     3  C   -0.016818
     4  C   -0.174303
     5  H    0.080093
     6  H    0.067629
     7  H    0.059585
     8  H    0.055223
     9  H    0.058603
    10  H    0.086616
 Sum of Mulliken charges =   0.00000

 Dipole moment (field-independent basis, Debye):
    X=             -0.0292    Y=             -0.0351    Z=              0.0193  Tot=              0.0496
 Quadrupole moment (field-independent basis, Debye-Ang):
   XX=            -23.9081   YY=            -22.8900   ZZ=            -29.2270
   XY=              0.0450   XZ=              0.2999   YZ=              0.0432

 1\1\GINC-NODE23\SP\RB2PLYPD3-FC\def2QZVP\C4H6\BOITTIER\26-Aug-2020\0\\
 #p B2PLYPD3/Def2QZVP\\butadiene\\0,1\C,0,-3.812378,0.25071,-0.024559\C
 ,0,-2.718738,-0.537593,0.079096\C,0,-1.390159,0.048128,0.04529\C,0,-0.
 280627,-0.627601,0.007354\H,0,-4.781034,-0.211332,0.060314\H,0,-3.7820
 47,1.359977,-0.020321\H,0,-2.823542,-1.630061,0.041307\H,0,-1.345938,1
 .106103,0.023236\H,0,-0.325346,-1.740901,0.019544\H,0,0.672196,-0.1319
 65,-0.068797\\Version=ES64L-G09RevD.01\State=1-A\HF=-155.6957758\MP2=-
 155.9214316\RMSD=6.714e-09\PG=C01 [X(C4H6)]\\@

 Normal termination of Gaussian 09 at Wed Aug 26 09:06:03 2020.
