 Gaussian 09, Revision D.01,
 Gaussian 09:  ES64L-G09RevD.01 24-Apr-2013

 --------------------
 #p B2PLYPD3/Def2QZVP
 --------------------

 ---------
 butadiene
 ---------
 Symbolic Z-matrix:
 Charge =  0 Multiplicity = 1

                         Standard orientation:
 ---------------------------------------------------------------------
 Center     Atomic      Atomic             Coordinates (Angstroms)
 Number     Number       Type             X           Y           Z
 ---------------------------------------------------------------------
      1          6           0        1.845824   -0.082268   -0.039610
      2          6           0        0.589751    0.343317    0.024258
      3          6           0       -0.620346   -0.447820    0.074179
      4          6           0       -1.821093    0.153571   -0.017960
      5          1           0        2.779885    0.528941    0.025937
      6          1           0        1.927243   -1.127817   -0.028588
      7          1           0        0.444122    1.520292    0.004864
      8          1           0       -0.532358   -1.535084   -0.091743
      9          1           0       -1.843906    1.278447   -0.068993
     10          1           0       -2.739802   -0.465572   -0.086678
 ---------------------------------------------------------------------

 SCF Done:  E(RB2PLYPD3) =  -155.683211882     A.U. after   11 cycles
 E2(B2PLYPD3) =    -0.2275468095D+00 E(B2PLYPD3) =    -0.15591075869135D+03

 The electronic state is 1-A.
 Alpha  occ. eigenvalues --  -10.63285 -10.63127 -10.62809 -10.61247  -0.93063
 Alpha  occ. eigenvalues --   -0.84868  -0.69452  -0.62975  -0.54314  -0.53381
 Alpha  occ. eigenvalues --   -0.46606  -0.44496  -0.40581  -0.38125  -0.27716
 Alpha virt. eigenvalues --    0.01491   0.06856   0.07099   0.07803   0.09415
 Alpha virt. eigenvalues --    0.11625   0.12474   0.14293   0.15404   0.16030
 Alpha virt. eigenvalues --    0.18596   0.19749   0.21252   0.23189   0.23732

 Mulliken charges:
               1
     1  C   -0.177824
     2  C   -0.006500
     3  C   -0.043522
     4  C   -0.166241
     5  H    0.093424
     6  H    0.056125
     7  H    0.027635
     8  H    0.057848
     9  H    0.071091
    10  H    0.087965
 Sum of Mulliken charges =   0.00000

 Dipole moment (field-independent basis, Debye):
    X=             -0.1090    Y=             -0.0918    Z=             -0.1573  Tot=              0.2122
 Quadrupole moment (field-independent basis, Debye-Ang):
   XX=            -23.5243   YY=            -23.3586   ZZ=            -29.4436
   XY=              0.2747   XZ=              0.5392   YZ=              0.1491

 1\1\GINC-NODE12\SP\RB2PLYPD3-FC\def2QZVP\C4H6\BOITTIER\26-Aug-2020\0\\
 #p B2PLYPD3/Def2QZVP\\butadiene\\0,1\C,0,-3.858333,0.180412,-0.018379\
 C,0,-2.694106,-0.453471,0.057032\C,0,-1.36527,0.117912,0.078054\C,0,-0
 .287096,-0.684546,0.003518\H,0,-4.883329,-0.257784,0.069435\H,0,-3.757
 985,1.224104,-0.042034\H,0,-2.753959,-1.637908,0.076566\H,0,-1.265571,
 1.19806,-0.123823\H,0,-0.459173,-1.797505,-0.010051\H,0,0.724123,-0.23
 5991,-0.087698\\Version=ES64L-G09RevD.01\State=1-A\HF=-155.6832119\MP2
 =-155.9107587\RMSD=8.072e-09\PG=C01 [X(C4H6)]\\@

 Normal termination of Gaussian 09 at Wed Aug 26 12:00:51 2020.
