 Gaussian 09, Revision D.01,
 Gaussian 09:  ES64L-G09RevD.01 24-Apr-2013

 --------------------
 #p B2PLYPD3/Def2QZVP
 --------------------

 ---------
 butadiene
 ---------
 Symbolic Z-matrix:
 Charge =  0 Multiplicity = 1

                         Standard orientation:
 ---------------------------------------------------------------------
 Center     Atomic      Atomic             Coordinates (Angstroms)
 Number     Number       Type             X           Y           Z
 ---------------------------------------------------------------------
      1          6           0        1.842148    0.106876   -0.044256
      2          6           0        0.622528   -0.397904    0.009418
      3          6           0       -0.618741    0.378408    0.031357
      4          6           0       -1.860685   -0.105472   -0.021021
      5          1           0        2.752680   -0.489648    0.059470
      6          1           0        1.952790    1.201043   -0.073081
      7          1           0        0.503828   -1.461045    0.170398
      8          1           0       -0.438318    1.481834    0.127266
      9          1           0       -2.030063   -1.179019   -0.126698
     10          1           0       -2.652412    0.555389   -0.010346
 ---------------------------------------------------------------------

 SCF Done:  E(RB2PLYPD3) =  -155.696154532     A.U. after   11 cycles
 E2(B2PLYPD3) =    -0.2255999359D+00 E(B2PLYPD3) =    -0.15592175446737D+03

 The electronic state is 1-A.
 Alpha  occ. eigenvalues --  -10.62950 -10.62315 -10.61709 -10.61193  -0.92898
 Alpha  occ. eigenvalues --   -0.85325  -0.70264  -0.63431  -0.54939  -0.53784
 Alpha  occ. eigenvalues --   -0.47375  -0.45420  -0.40620  -0.37795  -0.28096
 Alpha virt. eigenvalues --    0.01787   0.07077   0.07361   0.08033   0.09711
 Alpha virt. eigenvalues --    0.11642   0.12393   0.14648   0.15666   0.16093
 Alpha virt. eigenvalues --    0.18889   0.20227   0.21399   0.22605   0.23882

 Mulliken charges:
               1
     1  C   -0.170984
     2  C   -0.024639
     3  C   -0.031658
     4  C   -0.181737
     5  H    0.088255
     6  H    0.057981
     7  H    0.053705
     8  H    0.042756
     9  H    0.070577
    10  H    0.095744
 Sum of Mulliken charges =   0.00000

 Dipole moment (field-independent basis, Debye):
    X=              0.0146    Y=             -0.0148    Z=              0.1500  Tot=              0.1514
 Quadrupole moment (field-independent basis, Debye-Ang):
   XX=            -23.3671   YY=            -23.3068   ZZ=            -29.1899
   XY=              0.0435   XZ=              0.4081   YZ=             -0.0318

 1\1\GINC-NODE09\SP\RB2PLYPD3-FC\def2QZVP\C4H6\BOITTIER\26-Aug-2020\0\\
 #p B2PLYPD3/Def2QZVP\\butadiene\\0,1\C,0,-3.847222,0.220662,0.053234\C
 ,0,-2.736747,-0.494065,0.019083\C,0,-1.377247,0.048447,-0.017388\C,0,-
 0.241104,-0.646812,0.054028\H,0,-4.849276,-0.207166,-0.039066\H,0,-3.7
 61609,1.31745,0.052332\H,0,-2.808898,-1.565348,-0.112908\H,0,-1.35864,
 1.16336,-0.143571\H,0,-0.265271,-1.730106,0.189125\H,0,0.65549,-0.1376
 86,0.029665\\Version=ES64L-G09RevD.01\State=1-A\HF=-155.6961545\MP2=-1
 55.9217545\RMSD=6.744e-09\PG=C01 [X(C4H6)]\\@

 Normal termination of Gaussian 09 at Wed Aug 26 10:26:28 2020.
