 Gaussian 09, Revision D.01,
 Gaussian 09:  ES64L-G09RevD.01 24-Apr-2013

 --------------------
 #p B2PLYPD3/Def2QZVP
 --------------------

 ---------
 butadiene
 ---------
 Symbolic Z-matrix:
 Charge =  0 Multiplicity = 1

                         Standard orientation:
 ---------------------------------------------------------------------
 Center     Atomic      Atomic             Coordinates (Angstroms)
 Number     Number       Type             X           Y           Z
 ---------------------------------------------------------------------
      1          6           0        1.835534   -0.069472    0.070714
      2          6           0        0.574319    0.355313   -0.075534
      3          6           0       -0.587907   -0.454849   -0.092613
      4          6           0       -1.816996    0.113425    0.017113
      5          1           0        2.651248    0.557528    0.062759
      6          1           0        2.052879   -1.141789    0.050634
      7          1           0        0.451091    1.524938    0.015873
      8          1           0       -0.443770   -1.532393    0.019869
      9          1           0       -1.822121    1.250291    0.040217
     10          1           0       -2.919022   -0.325081    0.292568
 ---------------------------------------------------------------------

 SCF Done:  E(RB2PLYPD3) =  -155.670377684     A.U. after   12 cycles
 E2(B2PLYPD3) =    -0.2287401271D+00 E(B2PLYPD3) =    -0.15589911781144D+03

 The electronic state is 1-A.
 Alpha  occ. eigenvalues --  -10.64170 -10.63394 -10.63322 -10.61041  -0.93410
 Alpha  occ. eigenvalues --   -0.84337  -0.69838  -0.63228  -0.54490  -0.53102
 Alpha  occ. eigenvalues --   -0.47019  -0.42877  -0.40894  -0.38575  -0.27321
 Alpha virt. eigenvalues --    0.00966   0.06751   0.07148   0.07644   0.09296
 Alpha virt. eigenvalues --    0.11278   0.12712   0.14031   0.15597   0.16531
 Alpha virt. eigenvalues --    0.18725   0.19393   0.22091   0.22367   0.23941

 Mulliken charges:
               1
     1  C   -0.177948
     2  C   -0.008875
     3  C   -0.037804
     4  C   -0.151206
     5  H    0.091064
     6  H    0.054011
     7  H    0.036800
     8  H    0.062675
     9  H    0.050598
    10  H    0.080684
 Sum of Mulliken charges =   0.00000

 Dipole moment (field-independent basis, Debye):
    X=             -0.0294    Y=             -0.0129    Z=              0.3112  Tot=              0.3128
 Quadrupole moment (field-independent basis, Debye-Ang):
   XX=            -23.3039   YY=            -23.6073   ZZ=            -29.4485
   XY=             -0.1261   XZ=             -0.7498   YZ=             -0.0584

 1\1\GINC-NODE39\SP\RB2PLYPD3-FC\def2QZVP\C4H6\BOITTIER\26-Aug-2020\0\\
 #p B2PLYPD3/Def2QZVP\\butadiene\\0,1\C,0,-3.844157,0.189528,0.086745\C
 ,0,-2.682939,-0.466238,-0.031737\C,0,-1.391086,0.114245,-0.071466\C,0,
 -0.288163,-0.666022,0.071289\H,0,-4.761614,-0.276036,0.097043\H,0,-3.8
 59741,1.281799,0.021893\H,0,-2.777885,-1.633784,0.107488\H,0,-1.333873
 ,1.203571,-0.00346\H,0,-0.493071,-1.782409,0.139961\H,0,0.87564,-0.427
 423,0.33823\\Version=ES64L-G09RevD.01\State=1-A\HF=-155.6703777\MP2=-1
 55.8991178\RMSD=5.421e-09\PG=C01 [X(C4H6)]\\@

 Normal termination of Gaussian 09 at Wed Aug 26 11:37:29 2020.
