 Gaussian 09, Revision D.01,
 Gaussian 09:  ES64L-G09RevD.01 24-Apr-2013

 --------------------
 #p B2PLYPD3/Def2QZVP
 --------------------

 ---------
 butadiene
 ---------
 Symbolic Z-matrix:
 Charge =  0 Multiplicity = 1

                         Standard orientation:
 ---------------------------------------------------------------------
 Center     Atomic      Atomic             Coordinates (Angstroms)
 Number     Number       Type             X           Y           Z
 ---------------------------------------------------------------------
      1          6           0        1.803615    0.154415    0.045982
      2          6           0        0.601891   -0.461217   -0.043158
      3          6           0       -0.599675    0.338596   -0.096458
      4          6           0       -1.800864   -0.091165    0.080392
      5          1           0        2.778908   -0.392282    0.159467
      6          1           0        1.857086    1.220849    0.010637
      7          1           0        0.507203   -1.506369   -0.054069
      8          1           0       -0.566181    1.490867   -0.149341
      9          1           0       -2.071543   -1.076872   -0.117131
     10          1           0       -2.535275    0.620031    0.229887
 ---------------------------------------------------------------------

 SCF Done:  E(RB2PLYPD3) =  -155.681483146     A.U. after   12 cycles
 E2(B2PLYPD3) =    -0.2255089147D+00 E(B2PLYPD3) =    -0.15590699206107D+03

 The electronic state is 1-A.
 Alpha  occ. eigenvalues --  -10.62592 -10.62109 -10.62062 -10.59373  -0.93658
 Alpha  occ. eigenvalues --   -0.85530  -0.70092  -0.63993  -0.55121  -0.54367
 Alpha  occ. eigenvalues --   -0.47028  -0.44810  -0.41896  -0.37736  -0.27585
 Alpha virt. eigenvalues --    0.02001   0.06952   0.07451   0.07991   0.09397
 Alpha virt. eigenvalues --    0.11720   0.12474   0.14770   0.15977   0.16418
 Alpha virt. eigenvalues --    0.18468   0.20060   0.21600   0.22765   0.24870

 Mulliken charges:
               1
     1  C   -0.165415
     2  C   -0.051310
     3  C   -0.007819
     4  C   -0.176027
     5  H    0.078505
     6  H    0.072005
     7  H    0.069668
     8  H    0.035864
     9  H    0.069657
    10  H    0.074873
 Sum of Mulliken charges =   0.00000

 Dipole moment (field-independent basis, Debye):
    X=             -0.0048    Y=             -0.0309    Z=             -0.0477  Tot=              0.0570
 Quadrupole moment (field-independent basis, Debye-Ang):
   XX=            -23.7981   YY=            -23.0330   ZZ=            -28.9718
   XY=             -0.0207   XZ=              0.1944   YZ=              0.1770

 1\1\GINC-NODE12\SP\RB2PLYPD3-FC\def2QZVP\C4H6\BOITTIER\26-Aug-2020\0\\
 #p B2PLYPD3/Def2QZVP\\butadiene\\0,1\C,0,-3.798233,0.258539,-0.038009\
 C,0,-2.72374,-0.554389,0.087305\C,0,-1.399528,0.022205,0.104731\C,0,-0
 .294046,-0.621453,-0.045066\H,0,-4.855317,-0.112293,-0.127504\H,0,-3.6
 6229,1.318038,-0.057247\H,0,-2.815125,-1.597899,0.151825\H,0,-1.228671
 ,1.163441,0.098718\H,0,-0.200782,-1.628135,0.203516\H,0,0.553703,-0.05
 9741,-0.227575\\Version=ES64L-G09RevD.01\State=1-A\HF=-155.6814831\MP2
 =-155.9069921\RMSD=3.232e-09\PG=C01 [X(C4H6)]\\@

 Normal termination of Gaussian 09 at Wed Aug 26 12:57:05 2020.
