 Gaussian 09, Revision D.01,
 Gaussian 09:  ES64L-G09RevD.01 24-Apr-2013

 --------------------
 #p B2PLYPD3/Def2QZVP
 --------------------

 ---------
 butadiene
 ---------
 Symbolic Z-matrix:
 Charge =  0 Multiplicity = 1

                         Standard orientation:
 ---------------------------------------------------------------------
 Center     Atomic      Atomic             Coordinates (Angstroms)
 Number     Number       Type             X           Y           Z
 ---------------------------------------------------------------------
      1          6           0        1.869411    0.084547   -0.043428
      2          6           0        0.590519   -0.343980    0.024926
      3          6           0       -0.620893    0.430679    0.046666
      4          6           0       -1.858425   -0.133237   -0.081557
      5          1           0        2.679389   -0.663980    0.136926
      6          1           0        2.203751    1.069878   -0.234552
      7          1           0        0.384434   -1.405415    0.105286
      8          1           0       -0.458213    1.525943    0.265784
      9          1           0       -1.944503   -1.273191    0.029239
     10          1           0       -2.748532    0.518713    0.017676
 ---------------------------------------------------------------------

 SCF Done:  E(RB2PLYPD3) =  -155.683713089     A.U. after   11 cycles
 E2(B2PLYPD3) =    -0.2281526542D+00 E(B2PLYPD3) =    -0.15591186574343D+03

 The electronic state is 1-A.
 Alpha  occ. eigenvalues --  -10.63529 -10.63226 -10.62701 -10.62042  -0.92713
 Alpha  occ. eigenvalues --   -0.84161  -0.70427  -0.63329  -0.54410  -0.52706
 Alpha  occ. eigenvalues --   -0.46591  -0.45684  -0.40805  -0.37342  -0.27330
 Alpha virt. eigenvalues --    0.00591   0.06882   0.07226   0.07803   0.09431
 Alpha virt. eigenvalues --    0.11569   0.12283   0.14707   0.15351   0.16133
 Alpha virt. eigenvalues --    0.18911   0.19645   0.21519   0.21955   0.23844

 Mulliken charges:
               1
     1  C   -0.187822
     2  C   -0.015957
     3  C   -0.044275
     4  C   -0.170851
     5  H    0.079263
     6  H    0.077956
     7  H    0.052357
     8  H    0.057574
     9  H    0.065197
    10  H    0.086557
 Sum of Mulliken charges =   0.00000

 Dipole moment (field-independent basis, Debye):
    X=              0.0102    Y=              0.0552    Z=              0.3155  Tot=              0.3204
 Quadrupole moment (field-independent basis, Debye-Ang):
   XX=            -23.7272   YY=            -23.3496   ZZ=            -29.4252
   XY=              0.3666   XZ=             -0.3736   YZ=             -0.2405

 1\1\GINC-NODE36\SP\RB2PLYPD3-FC\def2QZVP\C4H6\BOITTIER\26-Aug-2020\0\\
 #p B2PLYPD3/Def2QZVP\\butadiene\\0,1\C,0,-3.877502,0.208366,0.06201\C,
 0,-2.699205,-0.448938,0.003352\C,0,-1.366601,0.089751,-0.042152\C,0,-0
 .252407,-0.687695,0.099541\H,0,-4.812071,-0.383676,-0.095947\H,0,-4.02
 4437,1.243088,0.226172\H,0,-2.691529,-1.531945,-0.047737\H,0,-1.32747,
 1.189934,-0.291445\H,0,-0.377293,-1.826697,0.020432\H,0,0.74133,-0.212
 816,-0.019429\\Version=ES64L-G09RevD.01\State=1-A\HF=-155.6837131\MP2=
 -155.9118657\RMSD=9.952e-09\PG=C01 [X(C4H6)]\\@

 Normal termination of Gaussian 09 at Wed Aug 26 12:10:32 2020.
