 Gaussian 09, Revision D.01,
 Gaussian 09:  ES64L-G09RevD.01 24-Apr-2013

 --------------------
 #p B2PLYPD3/Def2QZVP
 --------------------

 ---------
 butadiene
 ---------
 Symbolic Z-matrix:
 Charge =  0 Multiplicity = 1

                         Standard orientation:
 ---------------------------------------------------------------------
 Center     Atomic      Atomic             Coordinates (Angstroms)
 Number     Number       Type             X           Y           Z
 ---------------------------------------------------------------------
      1          6           0        1.842355   -0.101568   -0.017938
      2          6           0        0.606996    0.390842    0.014476
      3          6           0       -0.605129   -0.420702    0.008412
      4          6           0       -1.840540    0.116457   -0.021769
      5          1           0        2.710957    0.565084   -0.011276
      6          1           0        1.998387   -1.173198   -0.025209
      7          1           0        0.443644    1.465039    0.096716
      8          1           0       -0.433698   -1.471283    0.056246
      9          1           0       -1.985505    1.198221   -0.058066
     10          1           0       -2.755875   -0.494040    0.042506
 ---------------------------------------------------------------------

 SCF Done:  E(RB2PLYPD3) =  -155.699499107     A.U. after   11 cycles
 E2(B2PLYPD3) =    -0.2260486715D+00 E(B2PLYPD3) =    -0.15592554777895D+03

 The electronic state is 1-A.
 Alpha  occ. eigenvalues --  -10.62637 -10.62420 -10.62124 -10.61578  -0.92915
 Alpha  occ. eigenvalues --   -0.84670  -0.69956  -0.64240  -0.54352  -0.53655
 Alpha  occ. eigenvalues --   -0.46894  -0.45588  -0.41027  -0.37951  -0.27668
 Alpha virt. eigenvalues --    0.01678   0.06987   0.07375   0.08070   0.09489
 Alpha virt. eigenvalues --    0.11699   0.12397   0.14631   0.15770   0.16055
 Alpha virt. eigenvalues --    0.18751   0.20423   0.21524   0.22911   0.23755

 Mulliken charges:
               1
     1  C   -0.180949
     2  C   -0.021564
     3  C   -0.039351
     4  C   -0.172897
     5  H    0.087491
     6  H    0.065470
     7  H    0.052681
     8  H    0.058914
     9  H    0.066065
    10  H    0.084142
 Sum of Mulliken charges =   0.00000

 Dipole moment (field-independent basis, Debye):
    X=             -0.0151    Y=             -0.0019    Z=              0.1058  Tot=              0.1069
 Quadrupole moment (field-independent basis, Debye-Ang):
   XX=            -23.5464   YY=            -23.1267   ZZ=            -29.3322
   XY=             -0.2165   XZ=             -0.0870   YZ=             -0.0353

 1\1\GINC-NODE39\SP\RB2PLYPD3-FC\def2QZVP\C4H6\BOITTIER\26-Aug-2020\0\\
 #p B2PLYPD3/Def2QZVP\\butadiene\\0,1\C,0,-3.845583,0.216729,0.001988\C
 ,0,-2.719801,-0.490262,0.051076\C,0,-1.380723,0.08775,0.025403\C,0,-0.
 263163,-0.66498,0.013165\H,0,-4.820572,-0.281069,0.025067\H,0,-3.80489
 5,1.298271,-0.035444\H,0,-2.753556,-1.573571,0.163537\H,0,-1.358847,1.
 15292,0.043603\H,0,-0.316686,-1.755689,0.0073\H,0,0.747799,-0.228882,0
 .06267\\Version=ES64L-G09RevD.01\State=1-A\HF=-155.6994991\MP2=-155.92
 55478\RMSD=5.839e-09\PG=C01 [X(C4H6)]\\@

 Normal termination of Gaussian 09 at Wed Aug 26 20:16:02 2020.
