 Gaussian 09, Revision D.01,
 Gaussian 09:  ES64L-G09RevD.01 24-Apr-2013

 --------------------
 #p B2PLYPD3/Def2QZVP
 --------------------

 ---------
 butadiene
 ---------
 Symbolic Z-matrix:
 Charge =  0 Multiplicity = 1

                         Standard orientation:
 ---------------------------------------------------------------------
 Center     Atomic      Atomic             Coordinates (Angstroms)
 Number     Number       Type             X           Y           Z
 ---------------------------------------------------------------------
      1          6           0        1.835512    0.098347   -0.028708
      2          6           0        0.608697   -0.387001    0.031744
      3          6           0       -0.606940    0.419047    0.006010
      4          6           0       -1.829961   -0.126044   -0.014793
      5          1           0        2.699903   -0.549513   -0.008671
      6          1           0        2.000506    1.180719   -0.026561
      7          1           0        0.449704   -1.452713    0.065546
      8          1           0       -0.532194    1.510645    0.075699
      9          1           0       -1.968654   -1.207756   -0.062957
     10          1           0       -2.693111    0.492526   -0.008575
 ---------------------------------------------------------------------

 SCF Done:  E(RB2PLYPD3) =  -155.700508180     A.U. after   11 cycles
 E2(B2PLYPD3) =    -0.2254824229D+00 E(B2PLYPD3) =    -0.15592599060339D+03

 The electronic state is 1-A.
 Alpha  occ. eigenvalues --  -10.62657 -10.62225 -10.61405 -10.61336  -0.93016
 Alpha  occ. eigenvalues --   -0.85086  -0.69939  -0.63946  -0.54610  -0.54039
 Alpha  occ. eigenvalues --   -0.46639  -0.45524  -0.41178  -0.38093  -0.27814
 Alpha virt. eigenvalues --    0.01951   0.07058   0.07368   0.08055   0.09591
 Alpha virt. eigenvalues --    0.11703   0.12387   0.14669   0.15822   0.16196
 Alpha virt. eigenvalues --    0.18767   0.20363   0.21552   0.22803   0.24002

 Mulliken charges:
               1
     1  C   -0.172518
     2  C   -0.030199
     3  C   -0.030508
     4  C   -0.178739
     5  H    0.086281
     6  H    0.064640
     7  H    0.054910
     8  H    0.054009
     9  H    0.065269
    10  H    0.086855
 Sum of Mulliken charges =   0.00000

 Dipole moment (field-independent basis, Debye):
    X=             -0.0314    Y=             -0.0030    Z=              0.0567  Tot=              0.0649
 Quadrupole moment (field-independent basis, Debye-Ang):
   XX=            -23.5871   YY=            -23.0240   ZZ=            -29.2408
   XY=              0.0235   XZ=              0.0476   YZ=              0.0784

 1\1\GINC-NODE13\SP\RB2PLYPD3-FC\def2QZVP\C4H6\BOITTIER\26-Aug-2020\0\\
 #p B2PLYPD3/Def2QZVP\\butadiene\\0,1\C,0,-3.839769,0.21014,0.044644\C,
 0,-2.719584,-0.488339,0.004595\C,0,-1.379471,0.08807,0.003934\C,0,-0.2
 73343,-0.66555,0.047239\H,0,-4.806016,-0.273245,0.04608\H,0,-3.808876,
 1.303788,0.002966\H,0,-2.753559,-1.565828,0.009732\H,0,-1.258418,1.172
 241,-0.10537\H,0,-0.329803,-1.752195,0.13482\H,0,0.686343,-0.211688,0.
 020622\\Version=ES64L-G09RevD.01\State=1-A\HF=-155.7005082\MP2=-155.92
 59906\RMSD=5.850e-09\PG=C01 [X(C4H6)]\\@

 Normal termination of Gaussian 09 at Wed Aug 26 21:27:01 2020.
