 Gaussian 09, Revision D.01,
 Gaussian 09:  ES64L-G09RevD.01 24-Apr-2013

 --------------------
 #p B2PLYPD3/Def2QZVP
 --------------------

 ---------
 butadiene
 ---------
 Symbolic Z-matrix:
 Charge =  0 Multiplicity = 1

                         Standard orientation:
 ---------------------------------------------------------------------
 Center     Atomic      Atomic             Coordinates (Angstroms)
 Number     Number       Type             X           Y           Z
 ---------------------------------------------------------------------
      1          6           0       -1.811075   -0.128083   -0.053750
      2          6           0       -0.609592    0.414785    0.042594
      3          6           0        0.598527   -0.350090    0.051240
      4          6           0        1.847868    0.108369   -0.073972
      5          1           0       -2.830379    0.408210   -0.002553
      6          1           0       -1.750218   -1.244249   -0.236495
      7          1           0       -0.522229    1.518638    0.205524
      8          1           0        0.417126   -1.389159    0.359152
      9          1           0        2.003947    1.093571   -0.101879
     10          1           0        2.527389   -0.656895   -0.020424
 ---------------------------------------------------------------------

 SCF Done:  E(RB2PLYPD3) =  -155.675784264     A.U. after   12 cycles
 E2(B2PLYPD3) =    -0.2264137260D+00 E(B2PLYPD3) =    -0.15590219798998D+03

 The electronic state is 1-A.
 Alpha  occ. eigenvalues --  -10.62633 -10.62306 -10.62219 -10.60009  -0.93670
 Alpha  occ. eigenvalues --   -0.85507  -0.70229  -0.63554  -0.55366  -0.53834
 Alpha  occ. eigenvalues --   -0.46666  -0.45862  -0.41009  -0.37298  -0.27902
 Alpha virt. eigenvalues --    0.01667   0.07115   0.07241   0.07880   0.09582
 Alpha virt. eigenvalues --    0.11699   0.12368   0.14625   0.15102   0.16247
 Alpha virt. eigenvalues --    0.18427   0.19668   0.21315   0.22278   0.24475

 Mulliken charges:
               1
     1  C   -0.168921
     2  C   -0.027443
     3  C   -0.022128
     4  C   -0.195680
     5  H    0.092527
     6  H    0.052231
     7  H    0.044404
     8  H    0.051108
     9  H    0.081966
    10  H    0.091936
 Sum of Mulliken charges =   0.00000

 Dipole moment (field-independent basis, Debye):
    X=             -0.0441    Y=              0.0703    Z=              0.2301  Tot=              0.2446
 Quadrupole moment (field-independent basis, Debye-Ang):
   XX=            -23.8086   YY=            -23.3954   ZZ=            -29.0155
   XY=             -0.2092   XZ=              0.1326   YZ=              0.0011

 1\1\GINC-NODE24\SP\RB2PLYPD3-FC\def2QZVP\C4H6\BOITTIER\26-Aug-2020\0\\
 #p B2PLYPD3/Def2QZVP\\butadiene\\0,1\C,0,-3.814385,0.234801,0.069043\C
 ,0,-2.727176,-0.512379,-0.016085\C,0,-1.403521,0.028092,-0.038184\C,0,
 -0.253813,-0.640269,0.096652\H,0,-4.912164,-0.114969,0.02715\H,0,-3.55
 797,1.326142,0.230757\H,0,-2.835463,-1.617266,-0.158101\H,0,-1.400377,
 1.076926,-0.365779\H,0,-0.273131,-1.636872,0.143256\H,0,0.549418,-0.00
 7403,0.029228\\Version=ES64L-G09RevD.01\State=1-A\HF=-155.6757843\MP2=
 -155.902198\RMSD=4.538e-09\PG=C01 [X(C4H6)]\\@

 Normal termination of Gaussian 09 at Wed Aug 26 13:47:02 2020.
