 Gaussian 09, Revision D.01,
 Gaussian 09:  ES64L-G09RevD.01 24-Apr-2013

 --------------------
 #p B2PLYPD3/Def2QZVP
 --------------------

 ---------
 butadiene
 ---------
 Symbolic Z-matrix:
 Charge =  0 Multiplicity = 1

                         Standard orientation:
 ---------------------------------------------------------------------
 Center     Atomic      Atomic             Coordinates (Angstroms)
 Number     Number       Type             X           Y           Z
 ---------------------------------------------------------------------
      1          6           0        1.843412    0.106530   -0.011801
      2          6           0        0.614115   -0.382296    0.015889
      3          6           0       -0.612344    0.414114   -0.001362
      4          6           0       -1.842264   -0.118888   -0.005515
      5          1           0        2.706783   -0.555593    0.002891
      6          1           0        2.027842    1.150574   -0.070499
      7          1           0        0.513917   -1.464112    0.067803
      8          1           0       -0.503893    1.510078    0.092283
      9          1           0       -1.976318   -1.221793   -0.071906
     10          1           0       -2.785849    0.464094   -0.003836
 ---------------------------------------------------------------------

 SCF Done:  E(RB2PLYPD3) =  -155.698630727     A.U. after   11 cycles
 E2(B2PLYPD3) =    -0.2258950096D+00 E(B2PLYPD3) =    -0.15592452573678D+03

 The electronic state is 1-A.
 Alpha  occ. eigenvalues --  -10.63060 -10.62450 -10.62307 -10.61142  -0.92838
 Alpha  occ. eigenvalues --   -0.84957  -0.69762  -0.63824  -0.54389  -0.53883
 Alpha  occ. eigenvalues --   -0.46744  -0.45084  -0.40874  -0.38060  -0.27885
 Alpha virt. eigenvalues --    0.01820   0.06986   0.07394   0.07907   0.09572
 Alpha virt. eigenvalues --    0.11593   0.12425   0.14529   0.15771   0.16249
 Alpha virt. eigenvalues --    0.18827   0.20328   0.21576   0.22617   0.23751

 Mulliken charges:
               1
     1  C   -0.175301
     2  C   -0.023996
     3  C   -0.039883
     4  C   -0.167540
     5  H    0.084284
     6  H    0.067096
     7  H    0.053668
     8  H    0.056469
     9  H    0.060387
    10  H    0.084816
 Sum of Mulliken charges =   0.00000

 Dipole moment (field-independent basis, Debye):
    X=             -0.0063    Y=              0.0033    Z=              0.0186  Tot=              0.0199
 Quadrupole moment (field-independent basis, Debye-Ang):
   XX=            -23.3243   YY=            -23.2068   ZZ=            -29.3119
   XY=              0.0560   XZ=             -0.0120   YZ=              0.0426

 1\1\GINC-NODE29\SP\RB2PLYPD3-FC\def2QZVP\C4H6\BOITTIER\26-Aug-2020\0\\
 #p B2PLYPD3/Def2QZVP\\butadiene\\0,1\C,0,-3.848209,0.212197,0.028916\C
 ,0,-2.724023,-0.485668,0.020082\C,0,-1.376674,0.082981,0.012384\C,0,-0
 .2595,-0.657379,0.03688\H,0,-4.814519,-0.288041,0.035245\H,0,-3.846124
 ,1.273783,0.051693\H,0,-2.815636,-1.569387,0.005221\H,0,-1.291316,1.17
 7144,-0.118726\H,0,-0.320987,-1.763791,0.141034\H,0,0.771805,-0.249652
 ,0.017028\\Version=ES64L-G09RevD.01\State=1-A\HF=-155.6986307\MP2=-155
 .9245257\RMSD=4.144e-09\PG=C01 [X(C4H6)]\\@

 Normal termination of Gaussian 09 at Wed Aug 26 21:24:01 2020.
