 Gaussian 09, Revision D.01,
 Gaussian 09:  ES64L-G09RevD.01 24-Apr-2013

 --------------------
 #p B2PLYPD3/Def2QZVP
 --------------------

 ---------
 butadiene
 ---------
 Symbolic Z-matrix:
 Charge =  0 Multiplicity = 1

                         Standard orientation:
 ---------------------------------------------------------------------
 Center     Atomic      Atomic             Coordinates (Angstroms)
 Number     Number       Type             X           Y           Z
 ---------------------------------------------------------------------
      1          6           0        1.818955   -0.135442    0.008912
      2          6           0        0.603582    0.434452   -0.037798
      3          6           0       -0.601908   -0.385769   -0.015003
      4          6           0       -1.835058    0.100211    0.015219
      5          1           0        2.735310    0.464021    0.012357
      6          1           0        1.909707   -1.212546    0.173451
      7          1           0        0.554895    1.519252   -0.031300
      8          1           0       -0.437319   -1.462553   -0.104928
      9          1           0       -2.002281    1.210311    0.129279
     10          1           0       -2.673739   -0.599202   -0.006844
 ---------------------------------------------------------------------

 SCF Done:  E(RB2PLYPD3) =  -155.696555666     A.U. after   11 cycles
 E2(B2PLYPD3) =    -0.2263064340D+00 E(B2PLYPD3) =    -0.15592286209995D+03

 The electronic state is 1-A.
 Alpha  occ. eigenvalues --  -10.62648 -10.62463 -10.61843 -10.61786  -0.92974
 Alpha  occ. eigenvalues --   -0.84787  -0.69338  -0.63831  -0.54084  -0.53806
 Alpha  occ. eigenvalues --   -0.46123  -0.45250  -0.41296  -0.38068  -0.27668
 Alpha virt. eigenvalues --    0.01877   0.07029   0.07253   0.07924   0.09350
 Alpha virt. eigenvalues --    0.11732   0.12230   0.14588   0.15631   0.16270
 Alpha virt. eigenvalues --    0.18634   0.20148   0.21199   0.22889   0.23976

 Mulliken charges:
               1
     1  C   -0.172651
     2  C   -0.034769
     3  C   -0.028548
     4  C   -0.178054
     5  H    0.082029
     6  H    0.063416
     7  H    0.058165
     8  H    0.055905
     9  H    0.067736
    10  H    0.086769
 Sum of Mulliken charges =   0.00000

 Dipole moment (field-independent basis, Debye):
    X=              0.0549    Y=              0.0076    Z=              0.1297  Tot=              0.1410
 Quadrupole moment (field-independent basis, Debye-Ang):
   XX=            -23.9488   YY=            -22.9463   ZZ=            -29.3281
   XY=              0.1162   XZ=              0.1835   YZ=              0.0600

 1\1\GINC-NODE08\SP\RB2PLYPD3-FC\def2QZVP\C4H6\BOITTIER\26-Aug-2020\0\\
 #p B2PLYPD3/Def2QZVP\\butadiene\\0,1\C,0,-3.819517,0.242471,0.031086\C
 ,0,-2.724688,-0.535124,0.003005\C,0,-1.392776,0.058587,0.000652\C,0,-0
 .265187,-0.637228,0.046834\H,0,-4.827607,-0.184558,0.052881\H,0,-3.717
 037,1.323177,0.161604\H,0,-2.869069,-1.610626,0.043657\H,0,-1.3643,1.1
 4417,-0.123199\H,0,-0.296855,-1.7553,0.195857\H,0,0.684088,-0.098685,0
 .003242\\Version=ES64L-G09RevD.01\State=1-A\HF=-155.6965557\MP2=-155.9
 228621\RMSD=6.467e-09\PG=C01 [X(C4H6)]\\@

 Normal termination of Gaussian 09 at Wed Aug 26 11:14:38 2020.
