 Gaussian 09, Revision D.01,
 Gaussian 09:  ES64L-G09RevD.01 24-Apr-2013

 --------------------
 #p B2PLYPD3/Def2QZVP
 --------------------

 ---------
 butadiene
 ---------
 Symbolic Z-matrix:
 Charge =  0 Multiplicity = 1

                         Standard orientation:
 ---------------------------------------------------------------------
 Center     Atomic      Atomic             Coordinates (Angstroms)
 Number     Number       Type             X           Y           Z
 ---------------------------------------------------------------------
      1          6           0       -1.853451    0.061341    0.023062
      2          6           0       -0.600783   -0.323494   -0.007246
      3          6           0        0.619340    0.428299   -0.027412
      4          6           0        1.841421   -0.143147   -0.011997
      5          1           0       -2.732877   -0.515879   -0.198973
      6          1           0       -2.072262    1.064866    0.275952
      7          1           0       -0.490219   -1.375981   -0.052933
      8          1           0        0.598850    1.528253   -0.139066
      9          1           0        1.952382   -1.306571    0.191173
     10          1           0        2.704962    0.467318    0.065408
 ---------------------------------------------------------------------

 SCF Done:  E(RB2PLYPD3) =  -155.682893976     A.U. after   11 cycles
 E2(B2PLYPD3) =    -0.2262706563D+00 E(B2PLYPD3) =    -0.15590916463195D+03

 The electronic state is 1-A.
 Alpha  occ. eigenvalues --  -10.63132 -10.62721 -10.61746 -10.60783  -0.93352
 Alpha  occ. eigenvalues --   -0.85290  -0.70536  -0.63720  -0.55296  -0.53708
 Alpha  occ. eigenvalues --   -0.47307  -0.44529  -0.40902  -0.38102  -0.27625
 Alpha virt. eigenvalues --    0.01150   0.06979   0.07437   0.07911   0.09701
 Alpha virt. eigenvalues --    0.11595   0.12419   0.14666   0.15621   0.16683
 Alpha virt. eigenvalues --    0.19047   0.19206   0.21849   0.22325   0.23521

 Mulliken charges:
               1
     1  C   -0.179210
     2  C   -0.013245
     3  C   -0.050131
     4  C   -0.161575
     5  H    0.088629
     6  H    0.058262
     7  H    0.053912
     8  H    0.058619
     9  H    0.056401
    10  H    0.088338
 Sum of Mulliken charges =   0.00000

 Dipole moment (field-independent basis, Debye):
    X=              0.0010    Y=              0.0753    Z=              0.1082  Tot=              0.1318
 Quadrupole moment (field-independent basis, Debye-Ang):
   XX=            -23.2562   YY=            -23.5369   ZZ=            -29.0360
   XY=              0.2707   XZ=              0.5791   YZ=              0.0963

 1\1\GINC-NODE39\SP\RB2PLYPD3-FC\def2QZVP\C4H6\BOITTIER\26-Aug-2020\0\\
 #p B2PLYPD3/Def2QZVP\\butadiene\\0,1\C,0,-3.867692,0.170459,0.037298\C
 ,0,-2.702283,-0.429476,0.027684\C,0,-1.368955,0.094842,-0.012679\C,0,-
 0.266442,-0.681638,0.029914\H,0,-4.83514,-0.250798,-0.168759\H,0,-3.90
 6335,1.205314,0.252881\H,0,-2.778628,-1.485959,0.020326\H,0,-1.195729,
 1.176485,-0.163763\H,0,-0.361692,-1.838313,0.275225\H,0,0.691089,-0.23
 0122,0.090158\\Version=ES64L-G09RevD.01\State=1-A\HF=-155.682894\MP2=-
 155.9091646\RMSD=8.146e-09\PG=C01 [X(C4H6)]\\@

 Normal termination of Gaussian 09 at Wed Aug 26 11:28:35 2020.
