 Gaussian 09, Revision D.01,
 Gaussian 09:  ES64L-G09RevD.01 24-Apr-2013

 --------------------
 #p B2PLYPD3/Def2QZVP
 --------------------

 ---------
 butadiene
 ---------
 Symbolic Z-matrix:
 Charge =  0 Multiplicity = 1

                         Standard orientation:
 ---------------------------------------------------------------------
 Center     Atomic      Atomic             Coordinates (Angstroms)
 Number     Number       Type             X           Y           Z
 ---------------------------------------------------------------------
      1          6           0       -1.832108   -0.108713    0.019841
      2          6           0       -0.594385    0.392680   -0.038063
      3          6           0        0.607408   -0.416964   -0.022193
      4          6           0        1.828243    0.120826    0.017693
      5          1           0       -2.673706    0.550423    0.107776
      6          1           0       -2.025079   -1.164634   -0.003626
      7          1           0       -0.495195    1.488726   -0.043130
      8          1           0        0.453143   -1.477062   -0.020886
      9          1           0        1.957915    1.199433    0.031615
     10          1           0        2.727971   -0.523859    0.064585
 ---------------------------------------------------------------------

 SCF Done:  E(RB2PLYPD3) =  -155.699923292     A.U. after   11 cycles
 E2(B2PLYPD3) =    -0.2258126796D+00 E(B2PLYPD3) =    -0.15592573597159D+03

 The electronic state is 1-A.
 Alpha  occ. eigenvalues --  -10.62520 -10.62379 -10.61837 -10.61198  -0.93090
 Alpha  occ. eigenvalues --   -0.84846  -0.69949  -0.64156  -0.54268  -0.54133
 Alpha  occ. eigenvalues --   -0.46550  -0.45535  -0.41325  -0.38154  -0.27583
 Alpha virt. eigenvalues --    0.01799   0.07002   0.07383   0.08025   0.09538
 Alpha virt. eigenvalues --    0.11739   0.12364   0.14743   0.15914   0.16025
 Alpha virt. eigenvalues --    0.18708   0.20508   0.21446   0.22854   0.24065

 Mulliken charges:
               1
     1  C   -0.182378
     2  C   -0.022044
     3  C   -0.036760
     4  C   -0.172628
     5  H    0.084486
     6  H    0.066034
     7  H    0.050528
     8  H    0.059717
     9  H    0.069682
    10  H    0.083363
 Sum of Mulliken charges =   0.00000

 Dipole moment (field-independent basis, Debye):
    X=             -0.0017    Y=             -0.0159    Z=              0.0811  Tot=              0.0827
 Quadrupole moment (field-independent basis, Debye-Ang):
   XX=            -23.7322   YY=            -22.9689   ZZ=            -29.2766
   XY=              0.1291   XZ=             -0.0567   YZ=              0.0607

 1\1\GINC-NODE30\SP\RB2PLYPD3-FC\def2QZVP\C4H6\BOITTIER\26-Aug-2020\0\\
 #p B2PLYPD3/Def2QZVP\\butadiene\\0,1\C,0,-3.836144,0.220363,-0.004006\
 C,0,-2.70888,-0.494234,0.069012\C,0,-1.380916,0.084952,0.035287\C,0,-0
 .277066,-0.664843,0.011425\H,0,-4.78295,-0.278332,-0.077093\H,0,-3.835
 639,1.294023,-0.007455\H,0,-2.808789,-1.589736,0.1018\H,0,-1.341648,1.
 155124,0.007047\H,0,-0.343898,-1.749166,0.024856\H,0,0.723977,-0.19421
 2,-0.04979\\Version=ES64L-G09RevD.01\State=1-A\HF=-155.6999233\MP2=-15
 5.925736\RMSD=3.304e-09\PG=C01 [X(C4H6)]\\@

 Normal termination of Gaussian 09 at Wed Aug 26 21:43:19 2020.
