 Gaussian 09, Revision D.01,
 Gaussian 09:  ES64L-G09RevD.01 24-Apr-2013

 --------------------
 #p B2PLYPD3/Def2QZVP
 --------------------

 ---------
 butadiene
 ---------
 Symbolic Z-matrix:
 Charge =  0 Multiplicity = 1

                         Standard orientation:
 ---------------------------------------------------------------------
 Center     Atomic      Atomic             Coordinates (Angstroms)
 Number     Number       Type             X           Y           Z
 ---------------------------------------------------------------------
      1          6           0       -1.837369   -0.115379    0.094580
      2          6           0       -0.596275    0.373489   -0.122096
      3          6           0        0.628161   -0.394125   -0.046410
      4          6           0        1.820428    0.107946    0.049804
      5          1           0       -2.671589    0.540314    0.227933
      6          1           0       -2.128147   -1.106031   -0.048176
      7          1           0       -0.571430    1.483700   -0.162446
      8          1           0        0.585526   -1.537394   -0.170214
      9          1           0        1.973770    1.250974    0.080403
     10          1           0        2.722200   -0.463143    0.217231
 ---------------------------------------------------------------------

 SCF Done:  E(RB2PLYPD3) =  -155.683138163     A.U. after   12 cycles
 E2(B2PLYPD3) =    -0.2263374433D+00 E(B2PLYPD3) =    -0.15590947560642D+03

 The electronic state is 1-A.
 Alpha  occ. eigenvalues --  -10.63226 -10.62870 -10.61695 -10.61181  -0.93134
 Alpha  occ. eigenvalues --   -0.85335  -0.70298  -0.63035  -0.54829  -0.53901
 Alpha  occ. eigenvalues --   -0.46811  -0.44698  -0.41016  -0.37574  -0.27831
 Alpha virt. eigenvalues --    0.01656   0.07008   0.07183   0.07780   0.09563
 Alpha virt. eigenvalues --    0.11368   0.12472   0.14490   0.15705   0.16708
 Alpha virt. eigenvalues --    0.18716   0.19745   0.21851   0.22521   0.23703

 Mulliken charges:
               1
     1  C   -0.163810
     2  C   -0.046560
     3  C   -0.020673
     4  C   -0.159211
     5  H    0.071709
     6  H    0.072681
     7  H    0.056163
     8  H    0.051416
     9  H    0.050633
    10  H    0.087653
 Sum of Mulliken charges =   0.00000

 Dipole moment (field-independent basis, Debye):
    X=             -0.0125    Y=             -0.0312    Z=             -0.0010  Tot=              0.0336
 Quadrupole moment (field-independent basis, Debye-Ang):
   XX=            -23.2175   YY=            -23.4089   ZZ=            -29.1173
   XY=             -0.0744   XZ=              0.2109   YZ=              0.2145

 1\1\GINC-NODE37\SP\RB2PLYPD3-FC\def2QZVP\C4H6\BOITTIER\26-Aug-2020\0\\
 #p B2PLYPD3/Def2QZVP\\butadiene\\0,1\C,0,-3.843638,0.216326,-0.072182\
 C,0,-2.706778,-0.480337,0.14796\C,0,-1.367116,0.060742,0.065836\C,0,-0
 .281167,-0.642798,-0.026783\H,0,-4.779879,-0.284405,-0.200095\H,0,-3.9
 56481,1.243633,0.062839\H,0,-2.876367,-1.577444,0.197066\H,0,-1.208986
 ,1.194773,0.180623\H,0,-0.330097,-1.795231,-0.048405\H,0,0.706284,-0.2
 39499,-0.198994\\Version=ES64L-G09RevD.01\State=1-A\HF=-155.6831382\MP
 2=-155.9094756\RMSD=2.912e-09\PG=C01 [X(C4H6)]\\@

 Normal termination of Gaussian 09 at Wed Aug 26 15:18:42 2020.
