 Gaussian 09, Revision D.01,
 Gaussian 09:  ES64L-G09RevD.01 24-Apr-2013

 --------------------
 #p B2PLYPD3/Def2QZVP
 --------------------

 ---------
 butadiene
 ---------
 Symbolic Z-matrix:
 Charge =  0 Multiplicity = 1

                         Standard orientation:
 ---------------------------------------------------------------------
 Center     Atomic      Atomic             Coordinates (Angstroms)
 Number     Number       Type             X           Y           Z
 ---------------------------------------------------------------------
      1          6           0       -1.831026    0.080908   -0.027887
      2          6           0       -0.585656   -0.370781    0.015819
      3          6           0        0.589652    0.417600    0.025306
      4          6           0        1.819911   -0.126410   -0.009642
      5          1           0       -2.670494   -0.545073    0.026041
      6          1           0       -2.004971    1.161186   -0.143194
      7          1           0       -0.481959   -1.421157    0.135664
      8          1           0        0.485750    1.498214    0.163998
      9          1           0        2.002903   -1.199090   -0.122099
     10          1           0        2.711484    0.498015   -0.081988
 ---------------------------------------------------------------------

 SCF Done:  E(RB2PLYPD3) =  -155.696679856     A.U. after   11 cycles
 E2(B2PLYPD3) =    -0.2258182360D+00 E(B2PLYPD3) =    -0.15592249809246D+03

 The electronic state is 1-A.
 Alpha  occ. eigenvalues --  -10.62597 -10.61935 -10.61634 -10.61015  -0.93626
 Alpha  occ. eigenvalues --   -0.84892  -0.70569  -0.64143  -0.55114  -0.53988
 Alpha  occ. eigenvalues --   -0.46881  -0.44962  -0.41620  -0.38302  -0.27469
 Alpha virt. eigenvalues --    0.01461   0.07105   0.07450   0.07979   0.09711
 Alpha virt. eigenvalues --    0.11680   0.12472   0.14828   0.15665   0.16321
 Alpha virt. eigenvalues --    0.18746   0.20114   0.21820   0.22581   0.23776

 Mulliken charges:
               1
     1  C   -0.181392
     2  C   -0.019171
     3  C   -0.038872
     4  C   -0.172120
     5  H    0.089407
     6  H    0.057800
     7  H    0.055968
     8  H    0.061548
     9  H    0.066851
    10  H    0.079981
 Sum of Mulliken charges =   0.00000

 Dipole moment (field-independent basis, Debye):
    X=              0.0276    Y=             -0.0340    Z=              0.0054  Tot=              0.0441
 Quadrupole moment (field-independent basis, Debye-Ang):
   XX=            -23.5120   YY=            -23.1892   ZZ=            -29.1121
   XY=             -0.0323   XZ=             -0.3044   YZ=             -0.0371

 1\1\GINC-NODE07\SP\RB2PLYPD3-FC\def2QZVP\C4H6\BOITTIER\26-Aug-2020\0\\
 #p B2PLYPD3/Def2QZVP\\butadiene\\0,1\C,0,-3.836625,0.200632,-0.004311\
 C,0,-2.69532,-0.471062,0.05163\C,0,-1.395058,0.087627,0.038719\C,0,-0.
 286009,-0.674154,0.018622\H,0,-4.776573,-0.25853,0.067348\H,0,-3.8096,
 1.290898,-0.14972\H,0,-2.785872,-1.518901,0.20076\H,0,-1.297741,1.1723
 04,0.14718\H,0,-0.303983,-1.764865,-0.063859\H,0,0.704769,-0.226611,-0
 .07142\\Version=ES64L-G09RevD.01\State=1-A\HF=-155.6966799\MP2=-155.92
 24981\RMSD=6.441e-09\PG=C01 [X(C4H6)]\\@

 Normal termination of Gaussian 09 at Wed Aug 26 10:03:17 2020.
