 Gaussian 09, Revision D.01,
 Gaussian 09:  ES64L-G09RevD.01 24-Apr-2013

 --------------------
 #p B2PLYPD3/Def2QZVP
 --------------------

 ---------
 butadiene
 ---------
 Symbolic Z-matrix:
 Charge =  0 Multiplicity = 1

                         Standard orientation:
 ---------------------------------------------------------------------
 Center     Atomic      Atomic             Coordinates (Angstroms)
 Number     Number       Type             X           Y           Z
 ---------------------------------------------------------------------
      1          6           0        1.827560   -0.091228    0.038103
      2          6           0        0.601320    0.394960   -0.031588
      3          6           0       -0.605345   -0.447959   -0.036007
      4          6           0       -1.829052    0.126447    0.040141
      5          1           0        2.727168    0.518500   -0.081822
      6          1           0        1.983536   -1.159957    0.149866
      7          1           0        0.441718    1.485220   -0.052293
      8          1           0       -0.456019   -1.489544   -0.133146
      9          1           0       -1.960044    1.240009    0.052195
     10          1           0       -2.703251   -0.487548    0.001312
 ---------------------------------------------------------------------

 SCF Done:  E(RB2PLYPD3) =  -155.696322980     A.U. after   11 cycles
 E2(B2PLYPD3) =    -0.2260990018D+00 E(B2PLYPD3) =    -0.15592242198150D+03

 The electronic state is 1-A.
 Alpha  occ. eigenvalues --  -10.62750 -10.62465 -10.62111 -10.61267  -0.92792
 Alpha  occ. eigenvalues --   -0.84671  -0.69644  -0.64230  -0.54514  -0.53479
 Alpha  occ. eigenvalues --   -0.46887  -0.45389  -0.41102  -0.37750  -0.27657
 Alpha virt. eigenvalues --    0.01853   0.07031   0.07303   0.08105   0.09244
 Alpha virt. eigenvalues --    0.11714   0.12413   0.14552   0.15621   0.16298
 Alpha virt. eigenvalues --    0.18804   0.20091   0.21637   0.22839   0.23808

 Mulliken charges:
               1
     1  C   -0.176062
     2  C   -0.019533
     3  C   -0.051281
     4  C   -0.171609
     5  H    0.084833
     6  H    0.059277
     7  H    0.054298
     8  H    0.066864
     9  H    0.068241
    10  H    0.084973
 Sum of Mulliken charges =   0.00000

 Dipole moment (field-independent basis, Debye):
    X=             -0.0348    Y=             -0.0390    Z=             -0.1107  Tot=              0.1224
 Quadrupole moment (field-independent basis, Debye-Ang):
   XX=            -23.7164   YY=            -23.0031   ZZ=            -29.3108
   XY=             -0.2053   XZ=             -0.0232   YZ=             -0.0492

 1\1\GINC-NODE40\SP\RB2PLYPD3-FC\def2QZVP\C4H6\BOITTIER\26-Aug-2020\0\\
 #p B2PLYPD3/Def2QZVP\\butadiene\\0,1\C,0,-3.83369,0.206828,0.05498\C,0
 ,-2.716664,-0.496277,0.002102\C,0,-1.37678,0.112433,-0.025373\C,0,-0.2
 77763,-0.672574,0.07016\H,0,-4.829668,-0.232279,-0.048261\H,0,-3.79216
 7,1.288941,0.134404\H,0,-2.758206,-1.5975,0.014347\H,0,-1.334424,1.160
 436,-0.153932\H,0,-0.351557,-1.790517,0.115795\H,0,0.693424,-0.229375,
 0.014545\\Version=ES64L-G09RevD.01\State=1-A\HF=-155.696323\MP2=-155.9
 22422\RMSD=7.657e-09\PG=C01 [X(C4H6)]\\@

 Normal termination of Gaussian 09 at Wed Aug 26 10:55:49 2020.
