 Gaussian 09, Revision D.01,
 Gaussian 09:  ES64L-G09RevD.01 24-Apr-2013

 --------------------
 #p B2PLYPD3/Def2QZVP
 --------------------

 ---------
 butadiene
 ---------
 Symbolic Z-matrix:
 Charge =  0 Multiplicity = 1

                         Standard orientation:
 ---------------------------------------------------------------------
 Center     Atomic      Atomic             Coordinates (Angstroms)
 Number     Number       Type             X           Y           Z
 ---------------------------------------------------------------------
      1          6           0        1.852317   -0.090995   -0.014318
      2          6           0        0.613454    0.359717    0.033869
      3          6           0       -0.617849   -0.422216    0.001624
      4          6           0       -1.838742    0.129055   -0.033896
      5          1           0        2.648469    0.598294   -0.022836
      6          1           0        2.045232   -1.160670   -0.132767
      7          1           0        0.475919    1.460875    0.114819
      8          1           0       -0.501528   -1.476100    0.147072
      9          1           0       -2.009733    1.228875   -0.090427
     10          1           0       -2.713440   -0.504642    0.060462
 ---------------------------------------------------------------------

 SCF Done:  E(RB2PLYPD3) =  -155.697457355     A.U. after   11 cycles
 E2(B2PLYPD3) =    -0.2256538544D+00 E(B2PLYPD3) =    -0.15592311120948D+03

 The electronic state is 1-A.
 Alpha  occ. eigenvalues --  -10.62582 -10.62382 -10.62112 -10.60996  -0.92918
 Alpha  occ. eigenvalues --   -0.85178  -0.70121  -0.63556  -0.54643  -0.53895
 Alpha  occ. eigenvalues --   -0.47144  -0.45288  -0.40782  -0.37930  -0.27944
 Alpha virt. eigenvalues --    0.01776   0.07040   0.07391   0.07997   0.09678
 Alpha virt. eigenvalues --    0.11643   0.12268   0.14767   0.15659   0.16093
 Alpha virt. eigenvalues --    0.18824   0.20183   0.21343   0.22564   0.24048

 Mulliken charges:
               1
     1  C   -0.180895
     2  C   -0.018210
     3  C   -0.043418
     4  C   -0.172489
     5  H    0.091377
     6  H    0.064564
     7  H    0.043629
     8  H    0.061921
     9  H    0.069049
    10  H    0.084474
 Sum of Mulliken charges =   0.00000

 Dipole moment (field-independent basis, Debye):
    X=             -0.0537    Y=             -0.0009    Z=              0.0810  Tot=              0.0972
 Quadrupole moment (field-independent basis, Debye-Ang):
   XX=            -23.5980   YY=            -23.1019   ZZ=            -29.2150
   XY=             -0.0882   XZ=             -0.4022   YZ=             -0.0840

 1\1\GINC-NODE02\SP\RB2PLYPD3-FC\def2QZVP\C4H6\BOITTIER\26-Aug-2020\0\\
 #p B2PLYPD3/Def2QZVP\\butadiene\\0,1\C,0,-3.858028,0.202886,0.001858\C
 ,0,-2.719756,-0.460789,0.066024\C,0,-1.368459,0.087532,0.022349\C,0,-0
 .265782,-0.673747,0.004977\H,0,-4.76459,-0.333012,0.004821\H,0,-3.8564
 81,1.286844,-0.141261\H,0,-2.78139,-1.566668,0.172087\H,0,-1.29458,1.1
 48265,0.143778\H,0,-0.294154,-1.787414,-0.026274\H,0,0.708054,-0.20461
 9,0.089446\\Version=ES64L-G09RevD.01\State=1-A\HF=-155.6974574\MP2=-15
 5.9231112\RMSD=7.388e-09\PG=C01 [X(C4H6)]\\@

 Normal termination of Gaussian 09 at Wed Aug 26 09:08:22 2020.
