 Gaussian 09, Revision D.01,
 Gaussian 09:  ES64L-G09RevD.01 24-Apr-2013

 --------------------
 #p B2PLYPD3/Def2QZVP
 --------------------

 ---------
 butadiene
 ---------
 Symbolic Z-matrix:
 Charge =  0 Multiplicity = 1

                         Standard orientation:
 ---------------------------------------------------------------------
 Center     Atomic      Atomic             Coordinates (Angstroms)
 Number     Number       Type             X           Y           Z
 ---------------------------------------------------------------------
      1          6           0       -1.837761    0.096614   -0.005194
      2          6           0       -0.592930   -0.401934   -0.007556
      3          6           0        0.607478    0.418872    0.005074
      4          6           0        1.834971   -0.111443    0.004752
      5          1           0       -2.722819   -0.509636    0.008543
      6          1           0       -2.017198    1.175814    0.071283
      7          1           0       -0.466621   -1.460341   -0.021560
      8          1           0        0.428383    1.475845   -0.060254
      9          1           0        1.972786   -1.187635    0.033579
     10          1           0        2.734918    0.493301   -0.014043
 ---------------------------------------------------------------------

 SCF Done:  E(RB2PLYPD3) =  -155.700371079     A.U. after   11 cycles
 E2(B2PLYPD3) =    -0.2257782148D+00 E(B2PLYPD3) =    -0.15592614929371D+03

 The electronic state is 1-A.
 Alpha  occ. eigenvalues --  -10.62540 -10.62353 -10.61691 -10.61560  -0.93017
 Alpha  occ. eigenvalues --   -0.84712  -0.70187  -0.64497  -0.54814  -0.53675
 Alpha  occ. eigenvalues --   -0.46980  -0.45411  -0.41278  -0.38081  -0.27588
 Alpha virt. eigenvalues --    0.01689   0.07035   0.07414   0.08167   0.09423
 Alpha virt. eigenvalues --    0.11674   0.12548   0.14640   0.15821   0.16231
 Alpha virt. eigenvalues --    0.18786   0.20481   0.21722   0.22978   0.23729

 Mulliken charges:
               1
     1  C   -0.176177
     2  C   -0.029032
     3  C   -0.034168
     4  C   -0.173329
     5  H    0.084688
     6  H    0.058462
     7  H    0.057376
     8  H    0.060654
     9  H    0.066137
    10  H    0.085389
 Sum of Mulliken charges =   0.00000

 Dipole moment (field-independent basis, Debye):
    X=              0.0181    Y=             -0.0159    Z=              0.0174  Tot=              0.0297
 Quadrupole moment (field-independent basis, Debye-Ang):
   XX=            -23.3812   YY=            -23.1554   ZZ=            -29.2736
   XY=             -0.2044   XZ=             -0.1790   YZ=             -0.0238

 1\1\GINC-NODE32\SP\RB2PLYPD3-FC\def2QZVP\C4H6\BOITTIER\26-Aug-2020\0\\
 #p B2PLYPD3/Def2QZVP\\butadiene\\0,1\C,0,-3.842629,0.216331,0.015807\C
 ,0,-2.710126,-0.501589,0.029504\C,0,-1.379698,0.085497,0.017198\C,0,-0
 .270045,-0.6604,0.033912\H,0,-4.823627,-0.216873,0.047952\H,0,-3.82107
 5,1.311968,0.058655\H,0,-2.779777,-1.565152,0.048429\H,0,-1.362618,1.1
 5489,-0.081001\H,0,-0.331416,-1.742235,0.096206\H,0,0.725288,-0.231557
 ,-0.003234\\Version=ES64L-G09RevD.01\State=1-A\HF=-155.7003711\MP2=-15
 5.9261493\RMSD=3.637e-09\PG=C01 [X(C4H6)]\\@

 Normal termination of Gaussian 09 at Wed Aug 26 11:54:08 2020.
