 Gaussian 09, Revision D.01,
 Gaussian 09:  ES64L-G09RevD.01 24-Apr-2013

 --------------------
 #p B2PLYPD3/Def2QZVP
 --------------------

 ---------
 butadiene
 ---------
 Symbolic Z-matrix:
 Charge =  0 Multiplicity = 1

                         Standard orientation:
 ---------------------------------------------------------------------
 Center     Atomic      Atomic             Coordinates (Angstroms)
 Number     Number       Type             X           Y           Z
 ---------------------------------------------------------------------
      1          6           0        1.816647   -0.112198    0.024702
      2          6           0        0.610034    0.451004   -0.068065
      3          6           0       -0.566444   -0.405626   -0.109613
      4          6           0       -1.833044    0.083350    0.065853
      5          1           0        2.819099    0.428167    0.248134
      6          1           0        1.917717   -1.195489    0.076874
      7          1           0        0.363861    1.516360   -0.026006
      8          1           0       -0.468790   -1.470668    0.032070
      9          1           0       -2.112743    1.096077    0.040866
     10          1           0       -2.682298   -0.473628    0.150799
 ---------------------------------------------------------------------

 SCF Done:  E(RB2PLYPD3) =  -155.682537180     A.U. after   12 cycles
 E2(B2PLYPD3) =    -0.2271056441D+00 E(B2PLYPD3) =    -0.15590964282432D+03

 The electronic state is 1-A.
 Alpha  occ. eigenvalues --  -10.63154 -10.63005 -10.62575 -10.60861  -0.92944
 Alpha  occ. eigenvalues --   -0.84384  -0.70591  -0.64723  -0.54833  -0.53280
 Alpha  occ. eigenvalues --   -0.47179  -0.44684  -0.41118  -0.38045  -0.27308
 Alpha virt. eigenvalues --    0.01365   0.07027   0.07331   0.08122   0.08783
 Alpha virt. eigenvalues --    0.11555   0.12779   0.14557   0.15656   0.16565
 Alpha virt. eigenvalues --    0.18757   0.19552   0.22616   0.23081   0.24014

 Mulliken charges:
               1
     1  C   -0.153850
     2  C   -0.036196
     3  C   -0.030252
     4  C   -0.174739
     5  H    0.072275
     6  H    0.063268
     7  H    0.065738
     8  H    0.063617
     9  H    0.053893
    10  H    0.076246
 Sum of Mulliken charges =   0.00000

 Dipole moment (field-independent basis, Debye):
    X=             -0.0841    Y=             -0.0002    Z=              0.3438  Tot=              0.3539
 Quadrupole moment (field-independent basis, Debye-Ang):
   XX=            -23.2880   YY=            -23.3349   ZZ=            -29.2714
   XY=             -0.6228   XZ=              0.2881   YZ=             -0.1262

 1\1\GINC-NODE29\SP\RB2PLYPD3-FC\def2QZVP\C4H6\BOITTIER\26-Aug-2020\0\\
 #p B2PLYPD3/Def2QZVP\\butadiene\\0,1\C,0,-3.811012,0.239779,0.059591\C
 ,0,-2.732749,-0.542326,-0.026296\C,0,-1.415872,0.076121,-0.081067\C,0,
 -0.263729,-0.640739,0.100144\H,0,-4.89664,-0.098478,0.291585\H,0,-3.70
 5583,1.323283,0.096495\H,0,-2.691961,-1.634319,0.030634\H,0,-1.310214,
 1.142291,0.045594\H,0,-0.180323,-1.688306,0.089257\H,0,0.675697,-0.253
 006,0.176403\\Version=ES64L-G09RevD.01\State=1-A\HF=-155.6825372\MP2=-
 155.9096428\RMSD=4.582e-09\PG=C01 [X(C4H6)]\\@

 Normal termination of Gaussian 09 at Wed Aug 26 13:34:26 2020.
