 Gaussian 09, Revision D.01,
 Gaussian 09:  ES64L-G09RevD.01 24-Apr-2013

 --------------------
 #p B2PLYPD3/Def2QZVP
 --------------------

 ---------
 butadiene
 ---------
 Symbolic Z-matrix:
 Charge =  0 Multiplicity = 1

                         Standard orientation:
 ---------------------------------------------------------------------
 Center     Atomic      Atomic             Coordinates (Angstroms)
 Number     Number       Type             X           Y           Z
 ---------------------------------------------------------------------
      1          6           0       -1.853645    0.095172    0.039398
      2          6           0       -0.603946   -0.383875   -0.054839
      3          6           0        0.615340    0.417840   -0.051002
      4          6           0        1.856526   -0.113017    0.025784
      5          1           0       -2.705297   -0.571434    0.046194
      6          1           0       -2.076054    1.148395    0.032416
      7          1           0       -0.404871   -1.452191    0.046506
      8          1           0        0.446715    1.512071   -0.011286
      9          1           0        1.937167   -1.220427   -0.004078
     10          1           0        2.716685    0.486870    0.134202
 ---------------------------------------------------------------------

 SCF Done:  E(RB2PLYPD3) =  -155.696678345     A.U. after   11 cycles
 E2(B2PLYPD3) =    -0.2265736105D+00 E(B2PLYPD3) =    -0.15592325195506D+03

 The electronic state is 1-A.
 Alpha  occ. eigenvalues --  -10.63067 -10.62781 -10.61963 -10.61687  -0.92669
 Alpha  occ. eigenvalues --   -0.84656  -0.70441  -0.63674  -0.54944  -0.53268
 Alpha  occ. eigenvalues --   -0.47045  -0.45581  -0.40910  -0.37863  -0.27573
 Alpha virt. eigenvalues --    0.01363   0.07034   0.07299   0.08137   0.09394
 Alpha virt. eigenvalues --    0.11664   0.12423   0.14651   0.15617   0.16100
 Alpha virt. eigenvalues --    0.18831   0.19939   0.21716   0.23238   0.23762

 Mulliken charges:
               1
     1  C   -0.177639
     2  C   -0.025942
     3  C   -0.030790
     4  C   -0.179011
     5  H    0.085804
     6  H    0.067541
     7  H    0.052273
     8  H    0.048730
     9  H    0.063256
    10  H    0.095779
 Sum of Mulliken charges =   0.00000

 Dipole moment (field-independent basis, Debye):
    X=             -0.0010    Y=              0.0375    Z=              0.1513  Tot=              0.1559
 Quadrupole moment (field-independent basis, Debye-Ang):
   XX=            -23.4018   YY=            -23.2367   ZZ=            -29.3760
   XY=             -0.2080   XZ=              0.1961   YZ=              0.0321

 1\1\GINC-NODE34\SP\RB2PLYPD3-FC\def2QZVP\C4H6\BOITTIER\26-Aug-2020\0\\
 #p B2PLYPD3/Def2QZVP\\butadiene\\0,1\C,0,-3.8592,0.216736,0.060108\C,0
 ,-2.718116,-0.485024,-0.014563\C,0,-1.373051,0.080551,-0.033126\C,0,-0
 .24929,-0.664982,0.064798\H,0,-4.818126,-0.282774,0.086027\H,0,-3.8857
 99,1.292058,0.018052\H,0,-2.716938,-1.567839,0.122226\H,0,-1.339154,1.
 187887,-0.029682\H,0,-0.37207,-1.768899,0.07136\H,0,0.706166,-0.228823
 ,0.156237\\Version=ES64L-G09RevD.01\State=1-A\HF=-155.6966783\MP2=-155
 .923252\RMSD=4.847e-09\PG=C01 [X(C4H6)]\\@

 Normal termination of Gaussian 09 at Wed Aug 26 10:03:25 2020.
