 Gaussian 09, Revision D.01,
 Gaussian 09:  ES64L-G09RevD.01 24-Apr-2013

 --------------------
 #p B2PLYPD3/Def2QZVP
 --------------------

 ---------
 butadiene
 ---------
 Symbolic Z-matrix:
 Charge =  0 Multiplicity = 1

                         Standard orientation:
 ---------------------------------------------------------------------
 Center     Atomic      Atomic             Coordinates (Angstroms)
 Number     Number       Type             X           Y           Z
 ---------------------------------------------------------------------
      1          6           0        1.834753    0.115653   -0.010356
      2          6           0        0.595316   -0.405966    0.029096
      3          6           0       -0.592909    0.363700    0.013543
      4          6           0       -1.830560   -0.100394   -0.037476
      5          1           0        2.750821   -0.484370   -0.024922
      6          1           0        1.958326    1.204681   -0.036084
      7          1           0        0.443707   -1.491865    0.023956
      8          1           0       -0.499911    1.468095   -0.009871
      9          1           0       -2.040303   -1.111884   -0.036985
     10          1           0       -2.652246    0.577386    0.115061
 ---------------------------------------------------------------------

 SCF Done:  E(RB2PLYPD3) =  -155.695730280     A.U. after   11 cycles
 E2(B2PLYPD3) =    -0.2259151382D+00 E(B2PLYPD3) =    -0.15592164541841D+03

 The electronic state is 1-A.
 Alpha  occ. eigenvalues --  -10.62610 -10.62144 -10.62132 -10.60601  -0.93578
 Alpha  occ. eigenvalues --   -0.85038  -0.70719  -0.63924  -0.54677  -0.54350
 Alpha  occ. eigenvalues --   -0.46622  -0.45505  -0.41164  -0.38519  -0.27517
 Alpha virt. eigenvalues --    0.01331   0.06977   0.07421   0.07966   0.09948
 Alpha virt. eigenvalues --    0.11735   0.12502   0.14874   0.15769   0.16150
 Alpha virt. eigenvalues --    0.18781   0.20062   0.21969   0.22543   0.23996

 Mulliken charges:
               1
     1  C   -0.171759
     2  C   -0.037037
     3  C   -0.007818
     4  C   -0.177179
     5  H    0.088374
     6  H    0.064718
     7  H    0.050989
     8  H    0.044679
     9  H    0.063391
    10  H    0.081640
 Sum of Mulliken charges =   0.00000

 Dipole moment (field-independent basis, Debye):
    X=              0.0382    Y=             -0.0307    Z=              0.0591  Tot=              0.0768
 Quadrupole moment (field-independent basis, Debye-Ang):
   XX=            -23.4447   YY=            -23.2306   ZZ=            -29.1739
   XY=              0.1268   XZ=             -0.4216   YZ=              0.0622

 1\1\GINC-NODE07\SP\RB2PLYPD3-FC\def2QZVP\C4H6\BOITTIER\26-Aug-2020\0\\
 #p B2PLYPD3/Def2QZVP\\butadiene\\0,1\C,0,-3.833766,0.235,0.033265\C,0,
 -2.710032,-0.504216,0.008197\C,0,-1.401668,0.036703,-0.001643\C,0,-0.2
 68608,-0.642927,0.061946\H,0,-4.843478,-0.187757,0.0676\H,0,-3.757242,
 1.328617,0.025568\H,0,-2.758203,-1.598927,0.046612\H,0,-1.292303,1.139
 796,-0.012169\H,0,-0.246135,-1.675242,0.092357\H,0,0.66146,-0.130734,-
 0.112561\\Version=ES64L-G09RevD.01\State=1-A\HF=-155.6957303\MP2=-155.
 9216454\RMSD=7.048e-09\PG=C01 [X(C4H6)]\\@

 Normal termination of Gaussian 09 at Wed Aug 26 11:05:51 2020.
