 Gaussian 09, Revision D.01,
 Gaussian 09:  ES64L-G09RevD.01 24-Apr-2013

 --------------------
 #p B2PLYPD3/Def2QZVP
 --------------------

 ---------
 butadiene
 ---------
 Symbolic Z-matrix:
 Charge =  0 Multiplicity = 1

                         Standard orientation:
 ---------------------------------------------------------------------
 Center     Atomic      Atomic             Coordinates (Angstroms)
 Number     Number       Type             X           Y           Z
 ---------------------------------------------------------------------
      1          6           0       -1.806243    0.067616    0.006339
      2          6           0       -0.585386   -0.357648   -0.014403
      3          6           0        0.615077    0.436847   -0.086926
      4          6           0        1.806852   -0.143094    0.051641
      5          1           0       -2.696207   -0.540978    0.227753
      6          1           0       -1.951476    1.188257    0.116995
      7          1           0       -0.460603   -1.394474   -0.206790
      8          1           0        0.432369    1.513131   -0.094723
      9          1           0        1.818633   -1.270302    0.015226
     10          1           0        2.675478    0.482042    0.201632
 ---------------------------------------------------------------------

 SCF Done:  E(RB2PLYPD3) =  -155.685104064     A.U. after   11 cycles
 E2(B2PLYPD3) =    -0.2260816861D+00 E(B2PLYPD3) =    -0.15591118575022D+03

 The electronic state is 1-A.
 Alpha  occ. eigenvalues --  -10.62489 -10.62203 -10.61367 -10.61204  -0.93894
 Alpha  occ. eigenvalues --   -0.85375  -0.69501  -0.63978  -0.54834  -0.53327
 Alpha  occ. eigenvalues --   -0.46985  -0.44776  -0.41079  -0.37981  -0.28074
 Alpha virt. eigenvalues --    0.02042   0.07060   0.07209   0.08022   0.09420
 Alpha virt. eigenvalues --    0.11744   0.12474   0.14387   0.15107   0.16202
 Alpha virt. eigenvalues --    0.18282   0.19371   0.22116   0.22431   0.24474

 Mulliken charges:
               1
     1  C   -0.170275
     2  C   -0.007971
     3  C   -0.043412
     4  C   -0.171425
     5  H    0.083658
     6  H    0.038137
     7  H    0.054259
     8  H    0.055032
     9  H    0.070082
    10  H    0.091916
 Sum of Mulliken charges =   0.00000

 Dipole moment (field-independent basis, Debye):
    X=              0.1059    Y=             -0.0143    Z=              0.1776  Tot=              0.2072
 Quadrupole moment (field-independent basis, Debye-Ang):
   XX=            -24.0346   YY=            -23.2983   ZZ=            -29.0014
   XY=              0.2571   XZ=             -0.1471   YZ=              0.2369

 1\1\GINC-NODE32\SP\RB2PLYPD3-FC\def2QZVP\C4H6\BOITTIER\26-Aug-2020\0\\
 #p B2PLYPD3/Def2QZVP\\butadiene\\0,1\C,0,-3.820317,0.178521,0.035377\C
 ,0,-2.696425,-0.460577,0.021469\C,0,-1.372502,0.102614,-0.065922\C,0,-
 0.304541,-0.680565,0.082226\H,0,-4.804708,-0.255353,0.268135\H,0,-3.76
 0352,1.308715,0.126148\H,0,-2.761679,-1.506076,-0.1525\H,0,-1.357859,1
 .193896,-0.092772\H,0,-0.496665,-1.791819,0.065882\H,0,0.663267,-0.220
 106,0.220532\\Version=ES64L-G09RevD.01\State=1-A\HF=-155.6851041\MP2=-
 155.9111858\RMSD=6.994e-09\PG=C01 [X(C4H6)]\\@

 Normal termination of Gaussian 09 at Wed Aug 26 15:51:57 2020.
