 Gaussian 09, Revision D.01,
 Gaussian 09:  ES64L-G09RevD.01 24-Apr-2013

 --------------------
 #p B2PLYPD3/Def2QZVP
 --------------------

 ---------
 butadiene
 ---------
 Symbolic Z-matrix:
 Charge =  0 Multiplicity = 1

                         Standard orientation:
 ---------------------------------------------------------------------
 Center     Atomic      Atomic             Coordinates (Angstroms)
 Number     Number       Type             X           Y           Z
 ---------------------------------------------------------------------
      1          6           0        1.826181   -0.114019    0.017000
      2          6           0        0.593610    0.384679   -0.046569
      3          6           0       -0.594276   -0.419874   -0.022681
      4          6           0       -1.813871    0.122778    0.034203
      5          1           0        2.631779    0.614668    0.028185
      6          1           0        1.998567   -1.165178    0.062858
      7          1           0        0.450488    1.462014    0.060676
      8          1           0       -0.531483   -1.486124   -0.024695
      9          1           0       -1.904532    1.198980   -0.024893
     10          1           0       -2.714686   -0.465748    0.006156
 ---------------------------------------------------------------------

 SCF Done:  E(RB2PLYPD3) =  -155.697938873     A.U. after   11 cycles
 E2(B2PLYPD3) =    -0.2256955259D+00 E(B2PLYPD3) =    -0.15592363439855D+03

 The electronic state is 1-A.
 Alpha  occ. eigenvalues --  -10.62216 -10.62029 -10.61265 -10.61213  -0.93448
 Alpha  occ. eigenvalues --   -0.85040  -0.70000  -0.64343  -0.54719  -0.54194
 Alpha  occ. eigenvalues --   -0.46073  -0.45725  -0.41738  -0.38304  -0.27516
 Alpha virt. eigenvalues --    0.01777   0.07050   0.07432   0.08049   0.09531
 Alpha virt. eigenvalues --    0.11845   0.12412   0.14795   0.15580   0.16265
 Alpha virt. eigenvalues --    0.18622   0.20097   0.21485   0.23178   0.24434

 Mulliken charges:
               1
     1  C   -0.184160
     2  C   -0.024469
     3  C   -0.030573
     4  C   -0.174606
     5  H    0.084663
     6  H    0.075116
     7  H    0.054448
     8  H    0.055522
     9  H    0.060374
    10  H    0.083685
 Sum of Mulliken charges =   0.00000

 Dipole moment (field-independent basis, Debye):
    X=             -0.0330    Y=             -0.0369    Z=              0.0471  Tot=              0.0684
 Quadrupole moment (field-independent basis, Debye-Ang):
   XX=            -23.9183   YY=            -22.9056   ZZ=            -29.1915
   XY=              0.0518   XZ=              0.3177   YZ=              0.0210

 1\1\GINC-NODE38\SP\RB2PLYPD3-FC\def2QZVP\C4H6\BOITTIER\26-Aug-2020\0\\
 #p B2PLYPD3/Def2QZVP\\butadiene\\0,1\C,0,-3.827222,0.222745,0.041566\C
 ,0,-2.704567,-0.490942,-0.006066\C,0,-1.391491,0.087644,-0.010352\C,0,
 -0.28866,-0.662937,0.063897\H,0,-4.750371,-0.348712,0.078036\H,0,-3.80
 7933,1.288707,0.051967\H,0,-2.756291,-1.572312,0.137457\H,0,-1.26201,1
 .147184,-0.048392\H,0,-0.392929,-1.739289,0.041178\H,0,0.702901,-0.246
 936,0.015242\\Version=ES64L-G09RevD.01\State=1-A\HF=-155.6979389\MP2=-
 155.9236344\RMSD=3.620e-09\PG=C01 [X(C4H6)]\\@

 Normal termination of Gaussian 09 at Wed Aug 26 08:49:39 2020.
