 Gaussian 09, Revision D.01,
 Gaussian 09:  ES64L-G09RevD.01 24-Apr-2013

 --------------------
 #p B2PLYPD3/Def2QZVP
 --------------------

 ---------
 butadiene
 ---------
 Symbolic Z-matrix:
 Charge =  0 Multiplicity = 1

                         Standard orientation:
 ---------------------------------------------------------------------
 Center     Atomic      Atomic             Coordinates (Angstroms)
 Number     Number       Type             X           Y           Z
 ---------------------------------------------------------------------
      1          6           0       -1.846049    0.090803    0.015355
      2          6           0       -0.612089   -0.384259   -0.018337
      3          6           0        0.601422    0.414150    0.002331
      4          6           0        1.843641   -0.119271   -0.000236
      5          1           0       -2.721006   -0.515084   -0.038156
      6          1           0       -2.002144    1.162703    0.047519
      7          1           0       -0.451477   -1.448427   -0.012963
      8          1           0        0.479676    1.472804   -0.046229
      9          1           0        2.026021   -1.185372    0.065104
     10          1           0        2.747378    0.504838   -0.009951
 ---------------------------------------------------------------------

 SCF Done:  E(RB2PLYPD3) =  -155.699961140     A.U. after   11 cycles
 E2(B2PLYPD3) =    -0.2256551073D+00 E(B2PLYPD3) =    -0.15592561624709D+03

 The electronic state is 1-A.
 Alpha  occ. eigenvalues --  -10.62675 -10.62207 -10.62047 -10.61176  -0.93013
 Alpha  occ. eigenvalues --   -0.84852  -0.70351  -0.64406  -0.54887  -0.53762
 Alpha  occ. eigenvalues --   -0.47118  -0.45428  -0.41101  -0.38106  -0.27674
 Alpha virt. eigenvalues --    0.01594   0.06996   0.07488   0.08127   0.09619
 Alpha virt. eigenvalues --    0.11640   0.12516   0.14684   0.15781   0.16305
 Alpha virt. eigenvalues --    0.18869   0.20319   0.21905   0.22834   0.23596

 Mulliken charges:
               1
     1  C   -0.173405
     2  C   -0.024289
     3  C   -0.038410
     4  C   -0.174607
     5  H    0.088827
     6  H    0.059278
     7  H    0.053757
     8  H    0.059970
     9  H    0.067032
    10  H    0.081846
 Sum of Mulliken charges =   0.00000

 Dipole moment (field-independent basis, Debye):
    X=              0.0064    Y=             -0.0081    Z=             -0.0046  Tot=              0.0113
 Quadrupole moment (field-independent basis, Debye-Ang):
   XX=            -23.2453   YY=            -23.2271   ZZ=            -29.2485
   XY=             -0.1868   XZ=              0.1029   YZ=             -0.0618

 1\1\GINC-NODE16\SP\RB2PLYPD3-FC\def2QZVP\C4H6\BOITTIER\26-Aug-2020\0\\
 #p B2PLYPD3/Def2QZVP\\butadiene\\0,1\C,0,-3.849921,0.20845,0.031691\C,
 0,-2.722316,-0.48278,0.018085\C,0,-1.384387,0.083279,0.01408\C,0,-0.25
 9097,-0.665716,0.03365\H,0,-4.82019,-0.230744,-0.002946\H,0,-3.80953,1
 .291364,0.025807\H,0,-2.75673,-1.557598,0.061225\H,0,-1.312901,1.14413
 8,-0.071918\H,0,-0.272234,-1.744271,0.136846\H,0,0.742542,-0.216028,0.
 004541\\Version=ES64L-G09RevD.01\State=1-A\HF=-155.6999611\MP2=-155.92
 56162\RMSD=5.581e-09\PG=C01 [X(C4H6)]\\@

 Normal termination of Gaussian 09 at Wed Aug 26 16:21:06 2020.
