 Gaussian 09, Revision D.01,
 Gaussian 09:  ES64L-G09RevD.01 24-Apr-2013

 --------------------
 #p B2PLYPD3/Def2QZVP
 --------------------

 ---------
 butadiene
 ---------
 Symbolic Z-matrix:
 Charge =  0 Multiplicity = 1

                         Standard orientation:
 ---------------------------------------------------------------------
 Center     Atomic      Atomic             Coordinates (Angstroms)
 Number     Number       Type             X           Y           Z
 ---------------------------------------------------------------------
      1          6           0        1.833134    0.094828    0.010510
      2          6           0        0.601608   -0.389079   -0.033957
      3          6           0       -0.596490    0.410558   -0.014033
      4          6           0       -1.826675   -0.117856    0.020011
      5          1           0        2.690870   -0.536485    0.014399
      6          1           0        1.987160    1.180678    0.114333
      7          1           0        0.418625   -1.429969   -0.030115
      8          1           0       -0.500335    1.489839   -0.057913
      9          1           0       -1.957304   -1.199746    0.089726
     10          1           0       -2.708476    0.504977   -0.025613
 ---------------------------------------------------------------------

 SCF Done:  E(RB2PLYPD3) =  -155.699898714     A.U. after   11 cycles
 E2(B2PLYPD3) =    -0.2254848264D+00 E(B2PLYPD3) =    -0.15592538354022D+03

 The electronic state is 1-A.
 Alpha  occ. eigenvalues --  -10.62329 -10.61901 -10.61611 -10.61340  -0.93363
 Alpha  occ. eigenvalues --   -0.84975  -0.70225  -0.64310  -0.54840  -0.53928
 Alpha  occ. eigenvalues --   -0.46797  -0.45526  -0.41339  -0.38294  -0.27645
 Alpha virt. eigenvalues --    0.01751   0.07045   0.07417   0.08118   0.09687
 Alpha virt. eigenvalues --    0.11742   0.12440   0.14736   0.15845   0.16156
 Alpha virt. eigenvalues --    0.18723   0.20507   0.21469   0.22868   0.23937

 Mulliken charges:
               1
     1  C   -0.174527
     2  C   -0.030301
     3  C   -0.025058
     4  C   -0.180631
     5  H    0.088335
     6  H    0.063141
     7  H    0.055979
     8  H    0.053233
     9  H    0.062932
    10  H    0.086896
 Sum of Mulliken charges =   0.00000

 Dipole moment (field-independent basis, Debye):
    X=             -0.0143    Y=             -0.0151    Z=              0.0650  Tot=              0.0683
 Quadrupole moment (field-independent basis, Debye-Ang):
   XX=            -23.5631   YY=            -23.1180   ZZ=            -29.1818
   XY=              0.0184   XZ=              0.2110   YZ=             -0.0420

 1\1\GINC-NODE24\SP\RB2PLYPD3-FC\def2QZVP\C4H6\BOITTIER\26-Aug-2020\0\\
 #p B2PLYPD3/Def2QZVP\\butadiene\\0,1\C,0,-3.836122,0.211543,0.003884\C
 ,0,-2.713135,-0.487014,0.064855\C,0,-1.389577,0.080573,0.028889\C,0,-0
 .276098,-0.663491,0.012495\H,0,-4.794403,-0.253104,0.012973\H,0,-3.790
 15,1.304289,-0.127893\H,0,-2.722581,-1.543578,0.087966\H,0,-1.287721,1
 .160101,0.045134\H,0,-0.344562,-1.752513,-0.029391\H,0,0.704352,-0.210
 493,0.045425\\Version=ES64L-G09RevD.01\State=1-A\HF=-155.6998987\MP2=-
 155.9253835\RMSD=5.048e-09\PG=C01 [X(C4H6)]\\@

 Normal termination of Gaussian 09 at Wed Aug 26 20:28:33 2020.
