 Gaussian 09, Revision D.01,
 Gaussian 09:  ES64L-G09RevD.01 24-Apr-2013

 --------------------
 #p B2PLYPD3/Def2QZVP
 --------------------

 ---------
 butadiene
 ---------
 Symbolic Z-matrix:
 Charge =  0 Multiplicity = 1

                         Standard orientation:
 ---------------------------------------------------------------------
 Center     Atomic      Atomic             Coordinates (Angstroms)
 Number     Number       Type             X           Y           Z
 ---------------------------------------------------------------------
      1          6           0       -1.841453    0.081517   -0.096978
      2          6           0       -0.603296   -0.379150    0.114261
      3          6           0        0.615557    0.438204    0.065162
      4          6           0        1.850640   -0.153544   -0.056418
      5          1           0       -2.754652   -0.536776   -0.002228
      6          1           0       -2.170905    1.135288   -0.067491
      7          1           0       -0.505215   -1.429488    0.008103
      8          1           0        0.515013    1.471646    0.098443
      9          1           0        2.113166   -1.115532   -0.079640
     10          1           0        2.673905    0.552699   -0.113342
 ---------------------------------------------------------------------

 SCF Done:  E(RB2PLYPD3) =  -155.680778957     A.U. after   12 cycles
 E2(B2PLYPD3) =    -0.2266892369D+00 E(B2PLYPD3) =    -0.15590746819345D+03

 The electronic state is 1-A.
 Alpha  occ. eigenvalues --  -10.63088 -10.62505 -10.61922 -10.61396  -0.92572
 Alpha  occ. eigenvalues --   -0.84612  -0.70904  -0.65281  -0.54456  -0.54345
 Alpha  occ. eigenvalues --   -0.47447  -0.45165  -0.40755  -0.37561  -0.27460
 Alpha virt. eigenvalues --    0.01078   0.06888   0.07650   0.08143   0.08966
 Alpha virt. eigenvalues --    0.11507   0.12584   0.14938   0.15467   0.16635
 Alpha virt. eigenvalues --    0.19062   0.19432   0.22464   0.23300   0.23418

 Mulliken charges:
               1
     1  C   -0.155901
     2  C   -0.043804
     3  C   -0.048827
     4  C   -0.174543
     5  H    0.067465
     6  H    0.051611
     7  H    0.072202
     8  H    0.077693
     9  H    0.083670
    10  H    0.070434
 Sum of Mulliken charges =   0.00000

 Dipole moment (field-independent basis, Debye):
    X=              0.0541    Y=              0.0026    Z=             -0.0036  Tot=              0.0543
 Quadrupole moment (field-independent basis, Debye-Ang):
   XX=            -23.3504   YY=            -23.0843   ZZ=            -29.2953
   XY=             -0.5928   XZ=             -0.3012   YZ=              0.1203

 1\1\GINC-NODE28\SP\RB2PLYPD3-FC\def2QZVP\C4H6\BOITTIER\26-Aug-2020\0\\
 #p B2PLYPD3/Def2QZVP\\butadiene\\0,1\C,0,-3.851114,0.199507,-0.074633\
 C,0,-2.716223,-0.47514,0.14157\C,0,-1.369676,0.10734,0.081518\C,0,-0.2
 62496,-0.699702,-0.033434\H,0,-4.860889,-0.242009,0.028393\H,0,-3.9842
 46,1.295794,-0.058094\H,0,-2.810236,-1.527087,0.048468\H,0,-1.281354,1
 .142232,0.101962\H,0,-0.178548,-1.693535,-0.044812\H,0,0.674863,-0.154
 952,-0.099678\\Version=ES64L-G09RevD.01\State=1-A\HF=-155.680779\MP2=-
 155.9074682\RMSD=3.680e-09\PG=C01 [X(C4H6)]\\@

 Normal termination of Gaussian 09 at Wed Aug 26 15:39:30 2020.
