 Gaussian 09, Revision D.01,
 Gaussian 09:  ES64L-G09RevD.01 24-Apr-2013

 --------------------
 #p B2PLYPD3/Def2QZVP
 --------------------

 ---------
 butadiene
 ---------
 Symbolic Z-matrix:
 Charge =  0 Multiplicity = 1

                         Standard orientation:
 ---------------------------------------------------------------------
 Center     Atomic      Atomic             Coordinates (Angstroms)
 Number     Number       Type             X           Y           Z
 ---------------------------------------------------------------------
      1          6           0        1.819584    0.070875   -0.061221
      2          6           0        0.577013   -0.378131    0.048136
      3          6           0       -0.601778    0.443804    0.088261
      4          6           0       -1.808801   -0.117250   -0.100759
      5          1           0        2.718866   -0.466329   -0.031084
      6          1           0        2.086294    1.126681   -0.139661
      7          1           0        0.389027   -1.417939    0.211562
      8          1           0       -0.509526    1.471790    0.161278
      9          1           0       -1.792875   -1.227971   -0.033306
     10          1           0       -2.807899    0.397980   -0.015294
 ---------------------------------------------------------------------

 SCF Done:  E(RB2PLYPD3) =  -155.687599289     A.U. after   12 cycles
 E2(B2PLYPD3) =    -0.2262020305D+00 E(B2PLYPD3) =    -0.15591380131958D+03

 The electronic state is 1-A.
 Alpha  occ. eigenvalues --  -10.62397 -10.62300 -10.62088 -10.61078  -0.93603
 Alpha  occ. eigenvalues --   -0.84736  -0.70236  -0.65120  -0.55523  -0.53204
 Alpha  occ. eigenvalues --   -0.47477  -0.44402  -0.41354  -0.37968  -0.27715
 Alpha virt. eigenvalues --    0.01520   0.07052   0.07461   0.08055   0.09484
 Alpha virt. eigenvalues --    0.11528   0.12909   0.14462   0.15694   0.16589
 Alpha virt. eigenvalues --    0.18970   0.19803   0.21979   0.22169   0.23819

 Mulliken charges:
               1
     1  C   -0.171099
     2  C   -0.025331
     3  C   -0.040388
     4  C   -0.153496
     5  H    0.080527
     6  H    0.051615
     7  H    0.060822
     8  H    0.068823
     9  H    0.049740
    10  H    0.078787
 Sum of Mulliken charges =   0.00000

 Dipole moment (field-independent basis, Debye):
    X=              0.0478    Y=              0.0833    Z=              0.2526  Tot=              0.2702
 Quadrupole moment (field-independent basis, Debye-Ang):
   XX=            -23.1032   YY=            -23.5279   ZZ=            -29.1230
   XY=              0.1308   XZ=             -0.2669   YZ=             -0.1813

 1\1\GINC-NODE15\SP\RB2PLYPD3-FC\def2QZVP\C4H6\BOITTIER\26-Aug-2020\0\\
 #p B2PLYPD3/Def2QZVP\\butadiene\\0,1\C,0,-3.829205,0.190523,0.082697\C
 ,0,-2.691528,-0.482743,-0.017067\C,0,-1.381542,0.106154,-0.079301\C,0,
 -0.297713,-0.663379,0.122067\H,0,-4.812352,-0.171949,0.0672\H,0,-3.895
 989,1.279013,0.135079\H,0,-2.699665,-1.543043,-0.154703\H,0,-1.282902,
 1.131411,-0.177866\H,0,-0.518774,-1.753363,0.082419\H,0,0.778792,-0.34
 374,0.022414\\Version=ES64L-G09RevD.01\State=1-A\HF=-155.6875993\MP2=-
 155.9138013\RMSD=4.207e-09\PG=C01 [X(C4H6)]\\@

 Normal termination of Gaussian 09 at Wed Aug 26 14:13:08 2020.
