 Gaussian 09, Revision D.01,
 Gaussian 09:  ES64L-G09RevD.01 24-Apr-2013

 --------------------
 #p B2PLYPD3/Def2QZVP
 --------------------

 ---------
 butadiene
 ---------
 Symbolic Z-matrix:
 Charge =  0 Multiplicity = 1

                         Standard orientation:
 ---------------------------------------------------------------------
 Center     Atomic      Atomic             Coordinates (Angstroms)
 Number     Number       Type             X           Y           Z
 ---------------------------------------------------------------------
      1          6           0        1.850426    0.099771    0.010904
      2          6           0        0.608495   -0.383989   -0.007460
      3          6           0       -0.614998    0.408560   -0.023801
      4          6           0       -1.841920   -0.120825    0.020982
      5          1           0        2.726869   -0.546757   -0.008848
      6          1           0        2.021003    1.149172    0.039209
      7          1           0        0.420684   -1.442455   -0.033255
      8          1           0       -0.491821    1.498450   -0.005090
      9          1           0       -1.983363   -1.190547    0.025013
     10          1           0       -2.705390    0.511032   -0.020776
 ---------------------------------------------------------------------

 SCF Done:  E(RB2PLYPD3) =  -155.700706551     A.U. after   11 cycles
 E2(B2PLYPD3) =    -0.2255676581D+00 E(B2PLYPD3) =    -0.15592627420900D+03

 The electronic state is 1-A.
 Alpha  occ. eigenvalues --  -10.62659 -10.62388 -10.61469 -10.61410  -0.92940
 Alpha  occ. eigenvalues --   -0.85009  -0.70354  -0.64106  -0.54661  -0.53952
 Alpha  occ. eigenvalues --   -0.46920  -0.45929  -0.40931  -0.38061  -0.27765
 Alpha virt. eigenvalues --    0.01690   0.06999   0.07454   0.08106   0.09659
 Alpha virt. eigenvalues --    0.11710   0.12446   0.14759   0.15782   0.16107
 Alpha virt. eigenvalues --    0.18836   0.20428   0.21715   0.22927   0.23756

 Mulliken charges:
               1
     1  C   -0.177997
     2  C   -0.027428
     3  C   -0.029439
     4  C   -0.177467
     5  H    0.087158
     6  H    0.067526
     7  H    0.052874
     8  H    0.050589
     9  H    0.066014
    10  H    0.088171
 Sum of Mulliken charges =   0.00000

 Dipole moment (field-independent basis, Debye):
    X=             -0.0260    Y=              0.0087    Z=             -0.0241  Tot=              0.0365
 Quadrupole moment (field-independent basis, Debye-Ang):
   XX=            -23.3949   YY=            -23.1550   ZZ=            -29.2532
   XY=              0.1837   XZ=              0.0458   YZ=              0.0522

 1\1\GINC-NODE23\SP\RB2PLYPD3-FC\def2QZVP\C4H6\BOITTIER\26-Aug-2020\0\\
 #p B2PLYPD3/Def2QZVP\\butadiene\\0,1\C,0,-3.854582,0.214655,0.006565\C
 ,0,-2.71959,-0.483318,0.043697\C,0,-1.373663,0.076834,0.036823\C,0,-0.
 261853,-0.665372,0.012306\H,0,-4.832758,-0.263044,0.04552\H,0,-3.83413
 8,1.276131,-0.056604\H,0,-2.724717,-1.556883,0.104696\H,0,-1.299286,1.
 169925,-0.017979\H,0,-0.314723,-1.742657,0.043757\H,0,0.70115,-0.19775
 5,0.03528\\Version=ES64L-G09RevD.01\State=1-A\HF=-155.7007066\MP2=-155
 .9262742\RMSD=3.977e-09\PG=C01 [X(C4H6)]\\@

 Normal termination of Gaussian 09 at Wed Aug 26 08:51:54 2020.
