 Gaussian 09, Revision D.01,
 Gaussian 09:  ES64L-G09RevD.01 24-Apr-2013

 --------------------
 #p B2PLYPD3/Def2QZVP
 --------------------

 ---------
 butadiene
 ---------
 Symbolic Z-matrix:
 Charge =  0 Multiplicity = 1

                         Standard orientation:
 ---------------------------------------------------------------------
 Center     Atomic      Atomic             Coordinates (Angstroms)
 Number     Number       Type             X           Y           Z
 ---------------------------------------------------------------------
      1          6           0        1.858107    0.115644    0.043776
      2          6           0        0.617035   -0.389206   -0.047132
      3          6           0       -0.625951    0.383876   -0.079609
      4          6           0       -1.864515   -0.118767    0.081064
      5          1           0        2.862627   -0.506277   -0.116284
      6          1           0        2.078592    1.215876    0.264036
      7          1           0        0.494216   -1.468818   -0.000777
      8          1           0       -0.656071    1.491802   -0.153958
      9          1           0       -1.936407   -1.208530    0.034792
     10          1           0       -2.751018    0.526667   -0.016405
 ---------------------------------------------------------------------

 SCF Done:  E(RB2PLYPD3) =  -155.679124751     A.U. after   12 cycles
 E2(B2PLYPD3) =    -0.2280058585D+00 E(B2PLYPD3) =    -0.15590713060919D+03

 The electronic state is 1-A.
 Alpha  occ. eigenvalues --  -10.63760 -10.63409 -10.63121 -10.61998  -0.92557
 Alpha  occ. eigenvalues --   -0.84620  -0.69142  -0.63349  -0.54391  -0.52725
 Alpha  occ. eigenvalues --   -0.46854  -0.44008  -0.40764  -0.37463  -0.27722
 Alpha virt. eigenvalues --    0.01014   0.06774   0.07415   0.07537   0.09342
 Alpha virt. eigenvalues --    0.11517   0.12203   0.14131   0.15686   0.16145
 Alpha virt. eigenvalues --    0.19190   0.19864   0.20569   0.22309   0.23623

 Mulliken charges:
               1
     1  C   -0.161799
     2  C   -0.044150
     3  C   -0.028483
     4  C   -0.165725
     5  H    0.076194
     6  H    0.067258
     7  H    0.064066
     8  H    0.050269
     9  H    0.058155
    10  H    0.084215
 Sum of Mulliken charges =   0.00000

 Dipole moment (field-independent basis, Debye):
    X=              0.0120    Y=              0.0366    Z=             -0.0768  Tot=              0.0859
 Quadrupole moment (field-independent basis, Debye-Ang):
   XX=            -23.4035   YY=            -23.4761   ZZ=            -29.4997
   XY=             -0.2360   XZ=              0.2765   YZ=              0.1758

 1\1\GINC-NODE26\SP\RB2PLYPD3-FC\def2QZVP\C4H6\BOITTIER\26-Aug-2020\0\\
 #p B2PLYPD3/Def2QZVP\\butadiene\\0,1\C,0,-3.865991,0.210496,-0.03137\C
 ,0,-2.727234,-0.491755,0.084709\C,0,-1.371933,0.062158,0.092671\C,0,-0
 .235806,-0.64734,-0.042734\H,0,-4.960409,-0.227057,0.148248\H,0,-3.898
 887,1.32266,-0.295277\H,0,-2.787709,-1.57763,0.080964\H,0,-1.155877,1.
 151321,0.123977\H,0,-0.347995,-1.731033,0.046242\H,0,0.746767,-0.15672
 2,0.033532\\Version=ES64L-G09RevD.01\State=1-A\HF=-155.6791248\MP2=-15
 5.9071306\RMSD=4.399e-09\PG=C01 [X(C4H6)]\\@

 Normal termination of Gaussian 09 at Wed Aug 26 14:17:38 2020.
