 Gaussian 09, Revision D.01,
 Gaussian 09:  ES64L-G09RevD.01 24-Apr-2013

 --------------------
 #p B2PLYPD3/Def2QZVP
 --------------------

 ---------
 butadiene
 ---------
 Symbolic Z-matrix:
 Charge =  0 Multiplicity = 1

                         Standard orientation:
 ---------------------------------------------------------------------
 Center     Atomic      Atomic             Coordinates (Angstroms)
 Number     Number       Type             X           Y           Z
 ---------------------------------------------------------------------
      1          6           0       -1.836680   -0.094803    0.022257
      2          6           0       -0.588242    0.394141   -0.030685
      3          6           0        0.603728   -0.436865   -0.004855
      4          6           0        1.839403    0.120132   -0.006932
      5          1           0       -2.689307    0.538275   -0.065440
      6          1           0       -2.026022   -1.139799    0.141502
      7          1           0       -0.400385    1.472032   -0.041114
      8          1           0        0.391235   -1.483734   -0.098694
      9          1           0        1.868240    1.206286    0.164318
     10          1           0        2.746985   -0.488690    0.020721
 ---------------------------------------------------------------------

 SCF Done:  E(RB2PLYPD3) =  -155.695778388     A.U. after   11 cycles
 E2(B2PLYPD3) =    -0.2266362306D+00 E(B2PLYPD3) =    -0.15592241461884D+03

 The electronic state is 1-A.
 Alpha  occ. eigenvalues --  -10.62709 -10.62599 -10.62213 -10.61264  -0.92965
 Alpha  occ. eigenvalues --   -0.84483  -0.70204  -0.64317  -0.54648  -0.53434
 Alpha  occ. eigenvalues --   -0.46611  -0.45899  -0.41356  -0.37910  -0.27380
 Alpha virt. eigenvalues --    0.01399   0.07055   0.07333   0.08157   0.09174
 Alpha virt. eigenvalues --    0.11760   0.12527   0.14724   0.15508   0.16268
 Alpha virt. eigenvalues --    0.18677   0.19904   0.21682   0.22989   0.23938

 Mulliken charges:
               1
     1  C   -0.184851
     2  C   -0.021581
     3  C   -0.034331
     4  C   -0.176838
     5  H    0.087195
     6  H    0.065308
     7  H    0.050813
     8  H    0.060165
     9  H    0.065695
    10  H    0.088425
 Sum of Mulliken charges =   0.00000

 Dipole moment (field-independent basis, Debye):
    X=             -0.0352    Y=             -0.0542    Z=              0.0946  Tot=              0.1146
 Quadrupole moment (field-independent basis, Debye-Ang):
   XX=            -23.6836   YY=            -23.1644   ZZ=            -29.3074
   XY=              0.1652   XZ=              0.2391   YZ=              0.0703

 1\1\GINC-NODE02\SP\RB2PLYPD3-FC\def2QZVP\C4H6\BOITTIER\26-Aug-2020\0\\
 #p B2PLYPD3/Def2QZVP\\butadiene\\0,1\C,0,-3.84246,0.215312,-0.000989\C
 ,0,-2.705498,-0.49448,0.0621\C,0,-1.380755,0.101513,0.018776\C,0,-0.26
 9096,-0.673839,0.032438\H,0,-4.796922,-0.247563,0.100016\H,0,-3.83617,
 1.274621,-0.142095\H,0,-2.719747,-1.588078,0.095103\H,0,-1.396033,1.17
 1323,0.090669\H,0,-0.441873,-1.749942,-0.116013\H,0,0.735136,-0.243706
 ,-0.008032\\Version=ES64L-G09RevD.01\State=1-A\HF=-155.6957784\MP2=-15
 5.9224146\RMSD=7.096e-09\PG=C01 [X(C4H6)]\\@

 Normal termination of Gaussian 09 at Wed Aug 26 11:19:55 2020.
