 Gaussian 09, Revision D.01,
 Gaussian 09:  ES64L-G09RevD.01 24-Apr-2013

 --------------------
 #p B2PLYPD3/Def2QZVP
 --------------------

 ---------
 butadiene
 ---------
 Symbolic Z-matrix:
 Charge =  0 Multiplicity = 1

                         Standard orientation:
 ---------------------------------------------------------------------
 Center     Atomic      Atomic             Coordinates (Angstroms)
 Number     Number       Type             X           Y           Z
 ---------------------------------------------------------------------
      1          6           0       -1.839814    0.114886   -0.027132
      2          6           0       -0.604020   -0.416352    0.037486
      3          6           0        0.599273    0.397670    0.025125
      4          6           0        1.838123   -0.110472   -0.021304
      5          1           0       -2.711990   -0.507838   -0.037176
      6          1           0       -1.954661    1.200120   -0.010848
      7          1           0       -0.463894   -1.496225   -0.000120
      8          1           0        0.449785    1.466903    0.024255
      9          1           0        2.049324   -1.134210   -0.018163
     10          1           0        2.670063    0.556858   -0.042996
 ---------------------------------------------------------------------

 SCF Done:  E(RB2PLYPD3) =  -155.699708037     A.U. after   11 cycles
 E2(B2PLYPD3) =    -0.2258060564D+00 E(B2PLYPD3) =    -0.15592551409352D+03

 The electronic state is 1-A.
 Alpha  occ. eigenvalues --  -10.62643 -10.62474 -10.61660 -10.60964  -0.92913
 Alpha  occ. eigenvalues --   -0.84805  -0.70413  -0.64289  -0.54686  -0.54043
 Alpha  occ. eigenvalues --   -0.46655  -0.45945  -0.41441  -0.37993  -0.27477
 Alpha virt. eigenvalues --    0.01618   0.07033   0.07436   0.08134   0.09460
 Alpha virt. eigenvalues --    0.11744   0.12455   0.14844   0.15824   0.16122
 Alpha virt. eigenvalues --    0.18740   0.20415   0.21689   0.23106   0.23983

 Mulliken charges:
               1
     1  C   -0.178095
     2  C   -0.032956
     3  C   -0.027310
     4  C   -0.181105
     5  H    0.088879
     6  H    0.065219
     7  H    0.055348
     8  H    0.055283
     9  H    0.071864
    10  H    0.082874
 Sum of Mulliken charges =   0.00000

 Dipole moment (field-independent basis, Debye):
    X=              0.0098    Y=             -0.0251    Z=             -0.0324  Tot=              0.0421
 Quadrupole moment (field-independent basis, Debye-Ang):
   XX=            -23.5988   YY=            -22.9737   ZZ=            -29.2832
   XY=             -0.2072   XZ=             -0.0084   YZ=              0.0421

 1\1\GINC-NODE07\SP\RB2PLYPD3-FC\def2QZVP\C4H6\BOITTIER\26-Aug-2020\0\\
 #p B2PLYPD3/Def2QZVP\\butadiene\\0,1\C,0,-3.839423,0.232911,-0.010013\
 C,0,-2.720576,-0.51221,0.07093\C,0,-1.389408,0.068858,0.038538\C,0,-0.
 263727,-0.657098,0.007857\H,0,-4.810293,-0.220916,-0.004649\H,0,-3.755
 032,1.320979,-0.023231\H,0,-2.779206,-1.600177,0.06273\H,0,-1.342047,1
 .147035,0.008549\H,0,-0.242126,-1.701713,0.038987\H,0,0.675581,-0.1529
 62,-0.030502\\Version=ES64L-G09RevD.01\State=1-A\HF=-155.699708\MP2=-1
 55.9255141\RMSD=4.018e-09\PG=C01 [X(C4H6)]\\@

 Normal termination of Gaussian 09 at Wed Aug 26 19:13:47 2020.
