 Gaussian 09, Revision D.01,
 Gaussian 09:  ES64L-G09RevD.01 24-Apr-2013

 --------------------
 #p B2PLYPD3/Def2QZVP
 --------------------

 ---------
 butadiene
 ---------
 Symbolic Z-matrix:
 Charge =  0 Multiplicity = 1

                         Standard orientation:
 ---------------------------------------------------------------------
 Center     Atomic      Atomic             Coordinates (Angstroms)
 Number     Number       Type             X           Y           Z
 ---------------------------------------------------------------------
      1          6           0       -1.852486    0.117447   -0.020596
      2          6           0       -0.610270   -0.410902    0.021443
      3          6           0        0.614100    0.381918    0.000492
      4          6           0        1.849216   -0.102007   -0.006894
      5          1           0       -2.748276   -0.499385   -0.022155
      6          1           0       -1.985057    1.211921    0.023312
      7          1           0       -0.471870   -1.471607    0.019712
      8          1           0        0.490330    1.461149    0.051506
      9          1           0        2.005841   -1.182540    0.000918
     10          1           0        2.705672    0.561730   -0.039964
 ---------------------------------------------------------------------

 SCF Done:  E(RB2PLYPD3) =  -155.699767251     A.U. after   11 cycles
 E2(B2PLYPD3) =    -0.2259977805D+00 E(B2PLYPD3) =    -0.15592576503107D+03

 The electronic state is 1-A.
 Alpha  occ. eigenvalues --  -10.62737 -10.62381 -10.62151 -10.61519  -0.92845
 Alpha  occ. eigenvalues --   -0.84835  -0.70015  -0.64019  -0.54456  -0.53795
 Alpha  occ. eigenvalues --   -0.46797  -0.45466  -0.41111  -0.37979  -0.27720
 Alpha virt. eigenvalues --    0.01616   0.06976   0.07417   0.08041   0.09616
 Alpha virt. eigenvalues --    0.11656   0.12377   0.14579   0.15762   0.16179
 Alpha virt. eigenvalues --    0.18788   0.20327   0.21529   0.22742   0.23906

 Mulliken charges:
               1
     1  C   -0.172548
     2  C   -0.041501
     3  C   -0.019271
     4  C   -0.179021
     5  H    0.087735
     6  H    0.064992
     7  H    0.056566
     8  H    0.050164
     9  H    0.063667
    10  H    0.089217
 Sum of Mulliken charges =   0.00000

 Dipole moment (field-independent basis, Debye):
    X=             -0.0082    Y=             -0.0072    Z=              0.0461  Tot=              0.0473
 Quadrupole moment (field-independent basis, Debye-Ang):
   XX=            -23.4587   YY=            -23.1441   ZZ=            -29.3396
   XY=              0.0060   XZ=             -0.0675   YZ=              0.0631

 1\1\GINC-NODE18\SP\RB2PLYPD3-FC\def2QZVP\C4H6\BOITTIER\26-Aug-2020\0\\
 #p B2PLYPD3/Def2QZVP\\butadiene\\0,1\C,0,-3.854064,0.23045,0.000018\C,
 0,-2.725352,-0.509039,0.056459\C,0,-1.379677,0.052835,0.017225\C,0,-0.
 250223,-0.642902,0.023149\H,0,-4.845196,-0.217232,0.012751\H,0,-3.7899
 21,1.331806,0.016691\H,0,-2.777618,-1.577174,0.081121\H,0,-1.309557,1.
 137805,0.041389\H,0,-0.288046,-1.733548,0.057861\H,0,0.710419,-0.14293
 5,-0.025405\\Version=ES64L-G09RevD.01\State=1-A\HF=-155.6997673\MP2=-1
 55.925765\RMSD=5.976e-09\PG=C01 [X(C4H6)]\\@

 Normal termination of Gaussian 09 at Wed Aug 26 16:30:57 2020.
