 Gaussian 09, Revision D.01,
 Gaussian 09:  ES64L-G09RevD.01 24-Apr-2013

 --------------------
 #p B2PLYPD3/Def2QZVP
 --------------------

 ---------
 butadiene
 ---------
 Symbolic Z-matrix:
 Charge =  0 Multiplicity = 1

                         Standard orientation:
 ---------------------------------------------------------------------
 Center     Atomic      Atomic             Coordinates (Angstroms)
 Number     Number       Type             X           Y           Z
 ---------------------------------------------------------------------
      1          6           0        1.807309    0.101845    0.037937
      2          6           0        0.570127   -0.427146   -0.099376
      3          6           0       -0.589328    0.367307   -0.057747
      4          6           0       -1.819513   -0.084168    0.061059
      5          1           0        2.803584   -0.408210    0.159964
      6          1           0        1.938958    1.174110   -0.000116
      7          1           0        0.461396   -1.499010    0.116395
      8          1           0       -0.311130    1.456448    0.038198
      9          1           0       -2.139619   -1.074990   -0.026049
     10          1           0       -2.564754    0.604621    0.060374
 ---------------------------------------------------------------------

 SCF Done:  E(RB2PLYPD3) =  -155.682153785     A.U. after   12 cycles
 E2(B2PLYPD3) =    -0.2264806100D+00 E(B2PLYPD3) =    -0.15590863439501D+03

 The electronic state is 1-A.
 Alpha  occ. eigenvalues --  -10.62503 -10.62391 -10.62346 -10.60034  -0.93913
 Alpha  occ. eigenvalues --   -0.85013  -0.71187  -0.63883  -0.55378  -0.54131
 Alpha  occ. eigenvalues --   -0.46704  -0.45030  -0.41081  -0.38500  -0.27464
 Alpha virt. eigenvalues --    0.01230   0.07099   0.07387   0.08063   0.09409
 Alpha virt. eigenvalues --    0.11628   0.12773   0.14963   0.15326   0.16396
 Alpha virt. eigenvalues --    0.18771   0.19555   0.22751   0.22898   0.23986

 Mulliken charges:
               1
     1  C   -0.169773
     2  C   -0.024243
     3  C   -0.019838
     4  C   -0.176793
     5  H    0.079913
     6  H    0.053180
     7  H    0.060358
     8  H    0.044694
     9  H    0.071575
    10  H    0.080928
 Sum of Mulliken charges =   0.00000

 Dipole moment (field-independent basis, Debye):
    X=              0.0672    Y=              0.0129    Z=              0.1900  Tot=              0.2019
 Quadrupole moment (field-independent basis, Debye-Ang):
   XX=            -23.0876   YY=            -23.5333   ZZ=            -29.0660
   XY=              0.6271   XZ=              0.5052   YZ=             -0.1267

 1\1\GINC-NODE25\SP\RB2PLYPD3-FC\def2QZVP\C4H6\BOITTIER\26-Aug-2020\0\\
 #p B2PLYPD3/Def2QZVP\\butadiene\\0,1\C,0,-3.808134,0.238151,-0.034283\
 C,0,-2.696991,-0.516379,0.124939\C,0,-1.405553,0.037044,0.068943\C,0,-
 0.286052,-0.647228,-0.029998\H,0,-4.884253,-0.072515,-0.148582\H,0,-3.
 729576,1.316248,-0.026115\H,0,-2.797813,-1.594582,-0.061031\H,0,-1.467
 391,1.156347,-0.058195\H,0,-0.164045,-1.678472,0.0859\H,0,0.578515,-0.
 116041,-0.043386\\Version=ES64L-G09RevD.01\State=1-A\HF=-155.6821538\M
 P2=-155.9086344\RMSD=3.655e-09\PG=C01 [X(C4H6)]\\@

 Normal termination of Gaussian 09 at Wed Aug 26 11:49:46 2020.
