 Gaussian 09, Revision D.01,
 Gaussian 09:  ES64L-G09RevD.01 24-Apr-2013

 --------------------
 #p B2PLYPD3/Def2QZVP
 --------------------

 ---------
 butadiene
 ---------
 Symbolic Z-matrix:
 Charge =  0 Multiplicity = 1

                         Standard orientation:
 ---------------------------------------------------------------------
 Center     Atomic      Atomic             Coordinates (Angstroms)
 Number     Number       Type             X           Y           Z
 ---------------------------------------------------------------------
      1          6           0        1.834975    0.099267    0.023500
      2          6           0        0.619947   -0.383758   -0.046649
      3          6           0       -0.602337    0.426196   -0.026530
      4          6           0       -1.826842   -0.131509    0.018527
      5          1           0        2.694971   -0.526701    0.007773
      6          1           0        1.960137    1.165497    0.156191
      7          1           0        0.426030   -1.468193   -0.083596
      8          1           0       -0.544449    1.507220   -0.063465
      9          1           0       -1.912020   -1.198702    0.194240
     10          1           0       -2.779132    0.459707   -0.024229
 ---------------------------------------------------------------------

 SCF Done:  E(RB2PLYPD3) =  -155.697007908     A.U. after   11 cycles
 E2(B2PLYPD3) =    -0.2257210994D+00 E(B2PLYPD3) =    -0.15592272900775D+03

 The electronic state is 1-A.
 Alpha  occ. eigenvalues --  -10.62719 -10.62436 -10.62050 -10.60920  -0.93019
 Alpha  occ. eigenvalues --   -0.85075  -0.69594  -0.63977  -0.54592  -0.53870
 Alpha  occ. eigenvalues --   -0.46693  -0.45296  -0.41063  -0.38028  -0.27862
 Alpha virt. eigenvalues --    0.01945   0.07038   0.07377   0.07984   0.09479
 Alpha virt. eigenvalues --    0.11683   0.12465   0.14586   0.15914   0.16091
 Alpha virt. eigenvalues --    0.18758   0.20449   0.21298   0.22778   0.23706

 Mulliken charges:
               1
     1  C   -0.173579
     2  C   -0.025161
     3  C   -0.035790
     4  C   -0.175538
     5  H    0.090539
     6  H    0.065386
     7  H    0.050653
     8  H    0.057488
     9  H    0.063520
    10  H    0.082482
 Sum of Mulliken charges =   0.00000

 Dipole moment (field-independent basis, Debye):
    X=              0.0071    Y=              0.0104    Z=              0.1294  Tot=              0.1300
 Quadrupole moment (field-independent basis, Debye-Ang):
   XX=            -23.5362   YY=            -23.1956   ZZ=            -29.2087
   XY=             -0.0587   XZ=              0.0484   YZ=             -0.0625

 1\1\GINC-NODE19\SP\RB2PLYPD3-FC\def2QZVP\C4H6\BOITTIER\26-Aug-2020\0\\
 #p B2PLYPD3/Def2QZVP\\butadiene\\0,1\C,0,-3.838545,0.203177,-0.007589\
 C,0,-2.727065,-0.48393,0.076212\C,0,-1.381596,0.098127,0.039737\C,0,-0
 .274141,-0.66682,0.010119\H,0,-4.795059,-0.26152,0.020949\H,0,-3.77482
 ,1.271444,-0.165275\H,0,-2.726501,-1.584411,0.138741\H,0,-1.248689,1.1
 73082,0.051423\H,0,-0.378044,-1.736178,-0.140574\H,0,0.767254,-0.25117
 3,0.041041\\Version=ES64L-G09RevD.01\State=1-A\HF=-155.6970079\MP2=-15
 5.922729\RMSD=7.005e-09\PG=C01 [X(C4H6)]\\@

 Normal termination of Gaussian 09 at Wed Aug 26 09:41:43 2020.
