 Gaussian 09, Revision D.01,
 Gaussian 09:  ES64L-G09RevD.01 24-Apr-2013

 --------------------
 #p B2PLYPD3/Def2QZVP
 --------------------

 ---------
 butadiene
 ---------
 Symbolic Z-matrix:
 Charge =  0 Multiplicity = 1

                         Standard orientation:
 ---------------------------------------------------------------------
 Center     Atomic      Atomic             Coordinates (Angstroms)
 Number     Number       Type             X           Y           Z
 ---------------------------------------------------------------------
      1          6           0        1.827818   -0.103380    0.066526
      2          6           0        0.610702    0.347867   -0.072451
      3          6           0       -0.619492   -0.429340   -0.075535
      4          6           0       -1.843511    0.128741    0.050781
      5          1           0        2.557425    0.637766    0.080687
      6          1           0        2.153776   -1.082819   -0.053434
      7          1           0        0.549064    1.461040   -0.052157
      8          1           0       -0.493145   -1.453125    0.116494
      9          1           0       -1.935026    1.262927    0.079951
     10          1           0       -2.685192   -0.489120    0.012532
 ---------------------------------------------------------------------

 SCF Done:  E(RB2PLYPD3) =  -155.684846475     A.U. after   12 cycles
 E2(B2PLYPD3) =    -0.2255849933D+00 E(B2PLYPD3) =    -0.15591043146798D+03

 The electronic state is 1-A.
 Alpha  occ. eigenvalues --  -10.62338 -10.62142 -10.62088 -10.59891  -0.93194
 Alpha  occ. eigenvalues --   -0.85580  -0.70569  -0.63954  -0.55208  -0.54179
 Alpha  occ. eigenvalues --   -0.46415  -0.45976  -0.41052  -0.37949  -0.27849
 Alpha virt. eigenvalues --    0.01586   0.07008   0.07572   0.08077   0.09434
 Alpha virt. eigenvalues --    0.11719   0.12463   0.14864   0.15268   0.16398
 Alpha virt. eigenvalues --    0.18821   0.19615   0.21531   0.23183   0.24869

 Mulliken charges:
               1
     1  C   -0.172214
     2  C   -0.012721
     3  C   -0.052241
     4  C   -0.174096
     5  H    0.072425
     6  H    0.070325
     7  H    0.039482
     8  H    0.069215
     9  H    0.067153
    10  H    0.092673
 Sum of Mulliken charges =   0.00000

 Dipole moment (field-independent basis, Debye):
    X=              0.0001    Y=             -0.0524    Z=              0.0520  Tot=              0.0738
 Quadrupole moment (field-independent basis, Debye-Ang):
   XX=            -23.6531   YY=            -23.0385   ZZ=            -29.0811
   XY=             -0.0508   XZ=             -0.2335   YZ=              0.0114

 1\1\GINC-NODE39\SP\RB2PLYPD3-FC\def2QZVP\C4H6\BOITTIER\26-Aug-2020\0\\
 #p B2PLYPD3/Def2QZVP\\butadiene\\0,1\C,0,-3.836109,0.210184,0.084783\C
 ,0,-2.719481,-0.455683,-0.033839\C,0,-1.370312,0.088846,-0.059715\C,0,
 -0.265252,-0.673971,0.090566\H,0,-4.686267,-0.387855,0.122286\H,0,-3.9
 823,1.227241,-0.070661\H,0,-2.857506,-1.560566,0.025731\H,0,-1.311345,
 1.124853,0.095807\H,0,-0.377608,-1.804537,0.159853\H,0,0.673104,-0.218
 013,0.033724\\Version=ES64L-G09RevD.01\State=1-A\HF=-155.6848465\MP2=-
 155.9104315\RMSD=4.412e-09\PG=C01 [X(C4H6)]\\@

 Normal termination of Gaussian 09 at Wed Aug 26 13:47:45 2020.
