 Gaussian 09, Revision D.01,
 Gaussian 09:  ES64L-G09RevD.01 24-Apr-2013

 --------------------
 #p B2PLYPD3/Def2QZVP
 --------------------

 ---------
 butadiene
 ---------
 Symbolic Z-matrix:
 Charge =  0 Multiplicity = 1

                         Standard orientation:
 ---------------------------------------------------------------------
 Center     Atomic      Atomic             Coordinates (Angstroms)
 Number     Number       Type             X           Y           Z
 ---------------------------------------------------------------------
      1          6           0        1.835297    0.088479    0.028141
      2          6           0        0.606529   -0.385569   -0.023268
      3          6           0       -0.591280    0.435608   -0.023767
      4          6           0       -1.826753   -0.122133    0.008661
      5          1           0        2.679080   -0.581247   -0.067911
      6          1           0        2.067129    1.143511    0.121330
      7          1           0        0.351349   -1.453980   -0.065527
      8          1           0       -0.525544    1.516316   -0.072463
      9          1           0       -2.016297   -1.193210    0.139804
     10          1           0       -2.698478    0.470300    0.006164
 ---------------------------------------------------------------------

 SCF Done:  E(RB2PLYPD3) =  -155.697267713     A.U. after   11 cycles
 E2(B2PLYPD3) =    -0.2259000413D+00 E(B2PLYPD3) =    -0.15592316775379D+03

 The electronic state is 1-A.
 Alpha  occ. eigenvalues --  -10.62740 -10.62452 -10.61581 -10.61281  -0.92998
 Alpha  occ. eigenvalues --   -0.84793  -0.70360  -0.64030  -0.54837  -0.53705
 Alpha  occ. eigenvalues --   -0.46740  -0.45602  -0.41037  -0.38056  -0.27575
 Alpha virt. eigenvalues --    0.01672   0.07061   0.07341   0.08119   0.09471
 Alpha virt. eigenvalues --    0.11649   0.12381   0.14887   0.15910   0.16109
 Alpha virt. eigenvalues --    0.18812   0.20364   0.21687   0.22952   0.23506

 Mulliken charges:
               1
     1  C   -0.175059
     2  C   -0.026417
     3  C   -0.035074
     4  C   -0.177688
     5  H    0.084103
     6  H    0.070397
     7  H    0.056735
     8  H    0.059226
     9  H    0.061465
    10  H    0.082312
 Sum of Mulliken charges =   0.00000

 Dipole moment (field-independent basis, Debye):
    X=             -0.0458    Y=              0.0404    Z=              0.0328  Tot=              0.0693
 Quadrupole moment (field-independent basis, Debye-Ang):
   XX=            -23.4974   YY=            -23.0870   ZZ=            -29.2379
   XY=              0.4023   XZ=             -0.2404   YZ=              0.0154

 1\1\GINC-NODE08\SP\RB2PLYPD3-FC\def2QZVP\C4H6\BOITTIER\26-Aug-2020\0\\
 #p B2PLYPD3/Def2QZVP\\butadiene\\0,1\C,0,-3.836756,0.210911,-0.006339\
 C,0,-2.717367,-0.481985,0.057677\C,0,-1.387734,0.101717,0.036513\C,0,-
 0.277731,-0.67681,0.018938\H,0,-4.789905,-0.287395,0.107355\H,0,-3.868
 759,1.287867,-0.127438\H,0,-2.665159,-1.577751,0.128219\H,0,-1.251076,
 1.176679,0.056581\H,0,-0.291353,-1.767495,-0.083795\H,0,0.688976,-0.25
 7056,0.005806\\Version=ES64L-G09RevD.01\State=1-A\HF=-155.6972677\MP2=
 -155.9231678\RMSD=6.285e-09\PG=C01 [X(C4H6)]\\@

 Normal termination of Gaussian 09 at Wed Aug 26 09:36:37 2020.
