 Gaussian 09, Revision D.01,
 Gaussian 09:  ES64L-G09RevD.01 24-Apr-2013

 --------------------
 #p B2PLYPD3/Def2QZVP
 --------------------

 ---------
 butadiene
 ---------
 Symbolic Z-matrix:
 Charge =  0 Multiplicity = 1

                         Standard orientation:
 ---------------------------------------------------------------------
 Center     Atomic      Atomic             Coordinates (Angstroms)
 Number     Number       Type             X           Y           Z
 ---------------------------------------------------------------------
      1          6           0        1.828529   -0.116571    0.018307
      2          6           0        0.601141    0.412123   -0.027962
      3          6           0       -0.601133   -0.396902   -0.023929
      4          6           0       -1.827251    0.106687    0.031658
      5          1           0        2.712908    0.499726    0.057221
      6          1           0        1.962958   -1.188696    0.016878
      7          1           0        0.451695    1.482659   -0.019224
      8          1           0       -0.490031   -1.447797   -0.053665
      9          1           0       -1.993859    1.183876   -0.027049
     10          1           0       -2.651386   -0.561789    0.037390
 ---------------------------------------------------------------------

 SCF Done:  E(RB2PLYPD3) =  -155.700419432     A.U. after   11 cycles
 E2(B2PLYPD3) =    -0.2253066176D+00 E(B2PLYPD3) =    -0.15592572604987D+03

 The electronic state is 1-A.
 Alpha  occ. eigenvalues --  -10.62400 -10.61857 -10.61455 -10.61086  -0.93247
 Alpha  occ. eigenvalues --   -0.85050  -0.70119  -0.64436  -0.54699  -0.54132
 Alpha  occ. eigenvalues --   -0.46569  -0.45871  -0.41470  -0.38175  -0.27654
 Alpha virt. eigenvalues --    0.01892   0.07048   0.07439   0.08145   0.09591
 Alpha virt. eigenvalues --    0.11779   0.12432   0.14780   0.15864   0.16144
 Alpha virt. eigenvalues --    0.18698   0.20471   0.21522   0.23006   0.24202

 Mulliken charges:
               1
     1  C   -0.176599
     2  C   -0.032554
     3  C   -0.026459
     4  C   -0.179321
     5  H    0.085877
     6  H    0.066337
     7  H    0.055659
     8  H    0.055981
     9  H    0.066132
    10  H    0.084947
 Sum of Mulliken charges =   0.00000

 Dipole moment (field-independent basis, Debye):
    X=              0.0129    Y=             -0.0272    Z=             -0.0299  Tot=              0.0424
 Quadrupole moment (field-independent basis, Debye-Ang):
   XX=            -23.7158   YY=            -22.9546   ZZ=            -29.1877
   XY=             -0.0619   XZ=              0.1857   YZ=             -0.0027

 1\1\GINC-NODE05\SP\RB2PLYPD3-FC\def2QZVP\C4H6\BOITTIER\26-Aug-2020\0\\
 #p B2PLYPD3/Def2QZVP\\butadiene\\0,1\C,0,-3.828963,0.23174,0.039305\C,
 0,-2.717863,-0.51166,0.008461\C,0,-1.388945,0.065947,-0.010207\C,0,-0.
 27405,-0.649685,0.060048\H,0,-4.810133,-0.212794,0.095504\H,0,-3.76700
 5,1.310008,0.007303\H,0,-2.764729,-1.590882,0.047727\H,0,-1.308029,1.1
 18325,-0.069893\H,0,-0.305572,-1.740449,0.032091\H,0,0.65754,-0.141689
 ,0.046973\\Version=ES64L-G09RevD.01\State=1-A\HF=-155.7004194\MP2=-155
 .925726\RMSD=4.471e-09\PG=C01 [X(C4H6)]\\@

 Normal termination of Gaussian 09 at Wed Aug 26 12:42:34 2020.
