 Gaussian 09, Revision D.01,
 Gaussian 09:  ES64L-G09RevD.01 24-Apr-2013

 --------------------
 #p B2PLYPD3/Def2QZVP
 --------------------

 ---------
 butadiene
 ---------
 Symbolic Z-matrix:
 Charge =  0 Multiplicity = 1

                         Standard orientation:
 ---------------------------------------------------------------------
 Center     Atomic      Atomic             Coordinates (Angstroms)
 Number     Number       Type             X           Y           Z
 ---------------------------------------------------------------------
      1          6           0       -1.810545   -0.118582    0.035438
      2          6           0       -0.580961    0.407500   -0.051905
      3          6           0        0.609966   -0.441012   -0.071561
      4          6           0        1.822614    0.112571    0.089578
      5          1           0       -2.710852    0.566291    0.227471
      6          1           0       -2.129936   -1.133717    0.007882
      7          1           0       -0.440921    1.553728   -0.164088
      8          1           0        0.450124   -1.524743   -0.093114
      9          1           0        1.830802    1.222681   -0.059308
     10          1           0        2.754340   -0.447102    0.071858
 ---------------------------------------------------------------------

 SCF Done:  E(RB2PLYPD3) =  -155.683682979     A.U. after   11 cycles
 E2(B2PLYPD3) =    -0.2276422184D+00 E(B2PLYPD3) =    -0.15591132519739D+03

 The electronic state is 1-A.
 Alpha  occ. eigenvalues --  -10.63734 -10.62971 -10.62104 -10.61961  -0.92834
 Alpha  occ. eigenvalues --   -0.84379  -0.69370  -0.63574  -0.55025  -0.52283
 Alpha  occ. eigenvalues --   -0.46609  -0.44455  -0.40992  -0.37665  -0.27526
 Alpha virt. eigenvalues --    0.01681   0.06754   0.07088   0.07897   0.08934
 Alpha virt. eigenvalues --    0.11579   0.12462   0.14546   0.15503   0.16474
 Alpha virt. eigenvalues --    0.18613   0.19507   0.21574   0.22653   0.24221

 Mulliken charges:
               1
     1  C   -0.175897
     2  C   -0.023512
     3  C   -0.036508
     4  C   -0.161632
     5  H    0.065583
     6  H    0.074977
     7  H    0.056372
     8  H    0.060885
     9  H    0.055662
    10  H    0.084070
 Sum of Mulliken charges =   0.00000

 Dipole moment (field-independent basis, Debye):
    X=             -0.0424    Y=             -0.1383    Z=             -0.1179  Tot=              0.1866
 Quadrupole moment (field-independent basis, Debye-Ang):
   XX=            -23.8745   YY=            -23.1170   ZZ=            -29.4255
   XY=              0.3114   XZ=             -0.5027   YZ=             -0.1092

 1\1\GINC-NODE22\SP\RB2PLYPD3-FC\def2QZVP\C4H6\BOITTIER\26-Aug-2020\0\\
 #p B2PLYPD3/Def2QZVP\\butadiene\\0,1\C,0,-3.816286,0.226343,-0.026064\
 C,0,-2.703119,-0.511417,0.087233\C,0,-1.377587,0.106345,0.086317\C,0,-
 0.285959,-0.663894,-0.047908\H,0,-4.826172,-0.289424,-0.200978\H,0,-3.
 945472,1.28299,-0.034873\H,0,-2.774228,-1.659448,0.238906\H,0,-1.33739
 6,1.201157,0.070273\H,0,-0.480155,-1.751174,0.138341\H,0,0.732104,-0.2
 82867,-0.042775\\Version=ES64L-G09RevD.01\State=1-A\HF=-155.683683\MP2
 =-155.9113252\RMSD=7.073e-09\PG=C01 [X(C4H6)]\\@

 Normal termination of Gaussian 09 at Wed Aug 26 13:30:11 2020.
