 Gaussian 09, Revision D.01,
 Gaussian 09:  ES64L-G09RevD.01 24-Apr-2013

 --------------------
 #p B2PLYPD3/Def2QZVP
 --------------------

 ---------
 butadiene
 ---------
 Symbolic Z-matrix:
 Charge =  0 Multiplicity = 1

                         Standard orientation:
 ---------------------------------------------------------------------
 Center     Atomic      Atomic             Coordinates (Angstroms)
 Number     Number       Type             X           Y           Z
 ---------------------------------------------------------------------
      1          6           0        1.817914   -0.124655   -0.002305
      2          6           0        0.607846    0.411558   -0.031920
      3          6           0       -0.605384   -0.385145   -0.022410
      4          6           0       -1.844368    0.098447    0.017815
      5          1           0        2.728227    0.504290    0.100597
      6          1           0        1.940885   -1.197237    0.060223
      7          1           0        0.529984    1.506548    0.016065
      8          1           0       -0.403580   -1.484088   -0.003320
      9          1           0       -1.939329    1.183631    0.022121
     10          1           0       -2.712235   -0.514372    0.037235
 ---------------------------------------------------------------------

 SCF Done:  E(RB2PLYPD3) =  -155.698065264     A.U. after   11 cycles
 E2(B2PLYPD3) =    -0.2258426753D+00 E(B2PLYPD3) =    -0.15592390793880D+03

 The electronic state is 1-A.
 Alpha  occ. eigenvalues --  -10.62767 -10.62463 -10.61645 -10.61347  -0.93191
 Alpha  occ. eigenvalues --   -0.85120  -0.69858  -0.63648  -0.54708  -0.53760
 Alpha  occ. eigenvalues --   -0.46875  -0.45080  -0.40888  -0.38334  -0.27873
 Alpha virt. eigenvalues --    0.01885   0.07033   0.07250   0.08006   0.09651
 Alpha virt. eigenvalues --    0.11721   0.12489   0.14574   0.15836   0.16054
 Alpha virt. eigenvalues --    0.18683   0.20416   0.21445   0.22973   0.23868

 Mulliken charges:
               1
     1  C   -0.170797
     2  C   -0.021939
     3  C   -0.025252
     4  C   -0.178405
     5  H    0.081512
     6  H    0.062943
     7  H    0.049704
     8  H    0.043516
     9  H    0.063515
    10  H    0.095203
 Sum of Mulliken charges =   0.00000

 Dipole moment (field-independent basis, Debye):
    X=              0.0308    Y=              0.0056    Z=              0.1770  Tot=              0.1797
 Quadrupole moment (field-independent basis, Debye-Ang):
   XX=            -23.5609   YY=            -23.1982   ZZ=            -29.2559
   XY=              0.0390   XZ=              0.2883   YZ=              0.0169

 1\1\GINC-NODE27\SP\RB2PLYPD3-FC\def2QZVP\C4H6\BOITTIER\26-Aug-2020\0\\
 #p B2PLYPD3/Def2QZVP\\butadiene\\0,1\C,0,-3.821419,0.231349,0.024378\C
 ,0,-2.726186,-0.512234,0.009733\C,0,-1.39058,0.055833,-0.004746\C,0,-0
 .257132,-0.639135,0.048865\H,0,-4.82846,-0.222384,0.146143\H,0,-3.7513
 28,1.31004,0.055616\H,0,-2.844014,-1.601775,0.089642\H,0,-1.393627,1.1
 73236,-0.017651\H,0,-0.356642,-1.723324,0.084817\H,0,0.705979,-0.19020
 8,0.049866\\Version=ES64L-G09RevD.01\State=1-A\HF=-155.6980653\MP2=-15
 5.9239079\RMSD=2.641e-09\PG=C01 [X(C4H6)]\\@

 Normal termination of Gaussian 09 at Wed Aug 26 08:42:26 2020.
