 Gaussian 09, Revision D.01,
 Gaussian 09:  ES64L-G09RevD.01 24-Apr-2013

 --------------------
 #p B2PLYPD3/Def2QZVP
 --------------------

 ---------
 butadiene
 ---------
 Symbolic Z-matrix:
 Charge =  0 Multiplicity = 1

                         Standard orientation:
 ---------------------------------------------------------------------
 Center     Atomic      Atomic             Coordinates (Angstroms)
 Number     Number       Type             X           Y           Z
 ---------------------------------------------------------------------
      1          6           0       -1.838409   -0.108263   -0.008370
      2          6           0       -0.613829    0.387828    0.005878
      3          6           0        0.605889   -0.418298    0.050205
      4          6           0        1.846233    0.115703   -0.031932
      5          1           0       -2.690837    0.566600   -0.086055
      6          1           0       -2.056388   -1.127479   -0.118676
      7          1           0       -0.523978    1.481062    0.152979
      8          1           0        0.452502   -1.518186    0.094950
      9          1           0        2.030374    1.200796   -0.061529
     10          1           0        2.789018   -0.464611   -0.076355
 ---------------------------------------------------------------------

 SCF Done:  E(RB2PLYPD3) =  -155.695008457     A.U. after   11 cycles
 E2(B2PLYPD3) =    -0.2262973540D+00 E(B2PLYPD3) =    -0.15592130581113D+03

 The electronic state is 1-A.
 Alpha  occ. eigenvalues --  -10.63421 -10.62633 -10.62425 -10.60962  -0.92740
 Alpha  occ. eigenvalues --   -0.84772  -0.70031  -0.63799  -0.54417  -0.53759
 Alpha  occ. eigenvalues --   -0.46682  -0.45153  -0.40859  -0.37854  -0.27785
 Alpha virt. eigenvalues --    0.01649   0.06988   0.07360   0.07877   0.09372
 Alpha virt. eigenvalues --    0.11531   0.12478   0.14646   0.15532   0.16367
 Alpha virt. eigenvalues --    0.18790   0.19974   0.22159   0.22564   0.23590

 Mulliken charges:
               1
     1  C   -0.173262
     2  C   -0.020561
     3  C   -0.047476
     4  C   -0.164965
     5  H    0.077521
     6  H    0.066874
     7  H    0.058242
     8  H    0.058139
     9  H    0.063849
    10  H    0.081638
 Sum of Mulliken charges =   0.00000

 Dipole moment (field-independent basis, Debye):
    X=              0.0102    Y=             -0.0032    Z=             -0.0583  Tot=              0.0593
 Quadrupole moment (field-independent basis, Debye-Ang):
   XX=            -23.3206   YY=            -23.2194   ZZ=            -29.3079
   XY=              0.3311   XZ=              0.0831   YZ=              0.1388

 1\1\GINC-NODE30\SP\RB2PLYPD3-FC\def2QZVP\C4H6\BOITTIER\26-Aug-2020\0\\
 #p B2PLYPD3/Def2QZVP\\butadiene\\0,1\C,0,-3.841918,0.218573,0.030319\C
 ,0,-2.725951,-0.488898,0.027726\C,0,-1.381776,0.084764,-0.032468\C,0,-
 0.25681,-0.660797,0.062119\H,0,-4.801146,-0.291023,0.121439\H,0,-3.873
 639,1.262431,0.11885\H,0,-2.833641,-1.583398,-0.096149\H,0,-1.335951,1
 .19316,-0.100597\H,0,-0.269773,-1.760463,0.11482\H,0,0.77474,-0.257817
 ,0.095165\\Version=ES64L-G09RevD.01\State=1-A\HF=-155.6950085\MP2=-155
 .9213058\RMSD=7.142e-09\PG=C01 [X(C4H6)]\\@

 Normal termination of Gaussian 09 at Wed Aug 26 08:38:41 2020.
