 Gaussian 09, Revision D.01,
 Gaussian 09:  ES64L-G09RevD.01 24-Apr-2013

 --------------------
 #p B2PLYPD3/Def2QZVP
 --------------------

 ---------
 butadiene
 ---------
 Symbolic Z-matrix:
 Charge =  0 Multiplicity = 1

                         Standard orientation:
 ---------------------------------------------------------------------
 Center     Atomic      Atomic             Coordinates (Angstroms)
 Number     Number       Type             X           Y           Z
 ---------------------------------------------------------------------
      1          6           0        1.849686    0.130006   -0.010793
      2          6           0        0.620848   -0.422287   -0.010102
      3          6           0       -0.611402    0.363527   -0.009292
      4          6           0       -1.846875   -0.100679    0.009853
      5          1           0        2.727747   -0.491152    0.155684
      6          1           0        1.975800    1.245571   -0.039765
      7          1           0        0.500020   -1.522793   -0.037529
      8          1           0       -0.546973    1.482356    0.015408
      9          1           0       -2.092655   -1.134701   -0.022057
     10          1           0       -2.637484    0.597314    0.050260
 ---------------------------------------------------------------------

 SCF Done:  E(RB2PLYPD3) =  -155.695390370     A.U. after   11 cycles
 E2(B2PLYPD3) =    -0.2260630368D+00 E(B2PLYPD3) =    -0.15592145340704D+03

 The electronic state is 1-A.
 Alpha  occ. eigenvalues --  -10.63199 -10.62597 -10.62328 -10.60695  -0.92733
 Alpha  occ. eigenvalues --   -0.85125  -0.69994  -0.63313  -0.54356  -0.54119
 Alpha  occ. eigenvalues --   -0.46482  -0.45375  -0.40927  -0.37953  -0.27807
 Alpha virt. eigenvalues --    0.01680   0.06965   0.07309   0.07925   0.09679
 Alpha virt. eigenvalues --    0.11601   0.12296   0.14684   0.15731   0.16173
 Alpha virt. eigenvalues --    0.18802   0.20126   0.21657   0.22427   0.24183

 Mulliken charges:
               1
     1  C   -0.168148
     2  C   -0.046287
     3  C   -0.011604
     4  C   -0.179459
     5  H    0.088014
     6  H    0.067111
     7  H    0.057026
     8  H    0.041909
     9  H    0.066320
    10  H    0.085117
 Sum of Mulliken charges =   0.00000

 Dipole moment (field-independent basis, Debye):
    X=             -0.0199    Y=             -0.0303    Z=              0.0950  Tot=              0.1017
 Quadrupole moment (field-independent basis, Debye-Ang):
   XX=            -23.6088   YY=            -23.0303   ZZ=            -29.3103
   XY=              0.0494   XZ=              0.2849   YZ=             -0.0194

 1\1\GINC-NODE39\SP\RB2PLYPD3-FC\def2QZVP\C4H6\BOITTIER\26-Aug-2020\0\\
 #p B2PLYPD3/Def2QZVP\\butadiene\\0,1\C,0,-3.847781,0.241428,0.021846\C
 ,0,-2.735419,-0.518357,0.043065\C,0,-1.38404,0.03779,0.0226\C,0,-0.249
 665,-0.637073,0.022662\H,0,-4.821789,-0.220313,-0.128641\H,0,-3.775408
 ,1.362121,0.015653\H,0,-2.810249,-1.62154,0.105141\H,0,-1.250461,1.149
 155,-0.037102\H,0,-0.189779,-1.696705,0.087636\H,0,0.651445,-0.090806,
 -0.036358\\Version=ES64L-G09RevD.01\State=1-A\HF=-155.6953904\MP2=-155
 .9214534\RMSD=7.918e-09\PG=C01 [X(C4H6)]\\@

 Normal termination of Gaussian 09 at Wed Aug 26 09:04:46 2020.
