 Gaussian 09, Revision D.01,
 Gaussian 09:  ES64L-G09RevD.01 24-Apr-2013

 --------------------
 #p B2PLYPD3/Def2QZVP
 --------------------

 ---------
 butadiene
 ---------
 Symbolic Z-matrix:
 Charge =  0 Multiplicity = 1

                         Standard orientation:
 ---------------------------------------------------------------------
 Center     Atomic      Atomic             Coordinates (Angstroms)
 Number     Number       Type             X           Y           Z
 ---------------------------------------------------------------------
      1          6           0       -1.851239    0.057434    0.038766
      2          6           0       -0.605538   -0.356838   -0.074280
      3          6           0        0.599209    0.428425   -0.005251
      4          6           0        1.814751   -0.129826    0.040341
      5          1           0       -2.722164   -0.570868   -0.087980
      6          1           0       -2.021727    1.189439    0.176028
      7          1           0       -0.328145   -1.339016    0.011059
      8          1           0        0.589194    1.568679   -0.108879
      9          1           0        1.937634   -1.232157    0.127245
     10          1           0        2.802111    0.388753   -0.114932
 ---------------------------------------------------------------------

 SCF Done:  E(RB2PLYPD3) =  -155.681412820     A.U. after   11 cycles
 E2(B2PLYPD3) =    -0.2268146427D+00 E(B2PLYPD3) =    -0.15590822746316D+03

 The electronic state is 1-A.
 Alpha  occ. eigenvalues --  -10.63158 -10.62493 -10.62227 -10.61707  -0.93533
 Alpha  occ. eigenvalues --   -0.84824  -0.70074  -0.63772  -0.55106  -0.52783
 Alpha  occ. eigenvalues --   -0.47325  -0.44247  -0.40629  -0.38107  -0.27826
 Alpha virt. eigenvalues --    0.01382   0.06988   0.07280   0.07887   0.09568
 Alpha virt. eigenvalues --    0.11573   0.12332   0.14373   0.15369   0.16328
 Alpha virt. eigenvalues --    0.18976   0.19629   0.21485   0.22798   0.23404

 Mulliken charges:
               1
     1  C   -0.166023
     2  C   -0.038925
     3  C   -0.018696
     4  C   -0.170156
     5  H    0.093446
     6  H    0.057304
     7  H    0.064174
     8  H    0.047868
     9  H    0.049339
    10  H    0.081669
 Sum of Mulliken charges =   0.00000

 Dipole moment (field-independent basis, Debye):
    X=              0.0758    Y=             -0.0855    Z=             -0.0639  Tot=              0.1309
 Quadrupole moment (field-independent basis, Debye-Ang):
   XX=            -23.1618   YY=            -23.6284   ZZ=            -29.2336
   XY=             -0.0599   XZ=             -0.3003   YZ=             -0.1038

 1\1\GINC-NODE09\SP\RB2PLYPD3-FC\def2QZVP\C4H6\BOITTIER\26-Aug-2020\0\\
 #p B2PLYPD3/Def2QZVP\\butadiene\\0,1\C,0,-3.856822,0.179945,0.061713\C
 ,0,-2.708179,-0.458653,-0.03307\C,0,-1.380259,0.096719,-0.001334\C,0,-
 0.285968,-0.670642,0.069024\H,0,-4.828508,-0.28457,-0.035192\H,0,-3.81
 7595,1.329111,0.14669\H,0,-2.613027,-1.470013,0.097313\H,0,-1.183947,1
 .213899,-0.157499\H,0,-0.364559,-1.771855,0.206642\H,0,0.777693,-0.347
 847,-0.110815\\Version=ES64L-G09RevD.01\State=1-A\HF=-155.6814128\MP2=
 -155.9082275\RMSD=5.625e-09\PG=C01 [X(C4H6)]\\@

 Normal termination of Gaussian 09 at Wed Aug 26 15:49:55 2020.
