 Gaussian 09, Revision D.01,
 Gaussian 09:  ES64L-G09RevD.01 24-Apr-2013

 --------------------
 #p B2PLYPD3/Def2QZVP
 --------------------

 ---------
 butadiene
 ---------
 Symbolic Z-matrix:
 Charge =  0 Multiplicity = 1

                         Standard orientation:
 ---------------------------------------------------------------------
 Center     Atomic      Atomic             Coordinates (Angstroms)
 Number     Number       Type             X           Y           Z
 ---------------------------------------------------------------------
      1          6           0        1.862541    0.087691   -0.081858
      2          6           0        0.597619   -0.375784    0.037061
      3          6           0       -0.599339    0.447999    0.045038
      4          6           0       -1.841680   -0.116588   -0.025710
      5          1           0        2.613647   -0.568546    0.302376
      6          1           0        2.131940    1.042892   -0.211312
      7          1           0        0.457491   -1.432963    0.081058
      8          1           0       -0.501020    1.574349    0.168418
      9          1           0       -1.957743   -1.227453   -0.188014
     10          1           0       -2.859164    0.351814    0.000289
 ---------------------------------------------------------------------

 SCF Done:  E(RB2PLYPD3) =  -155.678141077     A.U. after   12 cycles
 E2(B2PLYPD3) =    -0.2276885286D+00 E(B2PLYPD3) =    -0.15590582960562D+03

 The electronic state is 1-A.
 Alpha  occ. eigenvalues --  -10.63934 -10.63202 -10.62822 -10.60513  -0.92609
 Alpha  occ. eigenvalues --   -0.84384  -0.70516  -0.64267  -0.54231  -0.53981
 Alpha  occ. eigenvalues --   -0.46483  -0.45580  -0.41258  -0.37250  -0.27158
 Alpha virt. eigenvalues --    0.00649   0.06930   0.07420   0.07828   0.09187
 Alpha virt. eigenvalues --    0.11486   0.12605   0.14679   0.15751   0.16384
 Alpha virt. eigenvalues --    0.18677   0.19747   0.21888   0.22362   0.23476

 Mulliken charges:
               1
     1  C   -0.176427
     2  C   -0.026965
     3  C   -0.046546
     4  C   -0.160439
     5  H    0.074592
     6  H    0.069856
     7  H    0.070663
     8  H    0.061342
     9  H    0.051551
    10  H    0.082373
 Sum of Mulliken charges =   0.00000

 Dipole moment (field-independent basis, Debye):
    X=             -0.1781    Y=              0.0360    Z=              0.1875  Tot=              0.2611
 Quadrupole moment (field-independent basis, Debye-Ang):
   XX=            -23.4787   YY=            -23.3742   ZZ=            -29.2370
   XY=              0.5876   XZ=              0.7049   YZ=             -0.1337

 1\1\GINC-NODE32\SP\RB2PLYPD3-FC\def2QZVP\C4H6\BOITTIER\26-Aug-2020\0\\
 #p B2PLYPD3/Def2QZVP\\butadiene\\0,1\C,0,-3.865983,0.210491,0.086215\C
 ,0,-2.707276,-0.480747,-0.006342\C,0,-1.37973,0.109253,-0.036575\C,0,-
 0.261761,-0.669978,0.064012\H,0,-4.724483,-0.311382,-0.278571\H,0,-3.9
 5597,1.203073,0.178005\H,0,-2.763057,-1.546615,-0.009847\H,0,-1.27016,
 1.229065,-0.202613\H,0,-0.351057,-1.776345,0.268493\H,0,0.824284,-0.39
 6952,0.027764\\Version=ES64L-G09RevD.01\State=1-A\HF=-155.6781411\MP2=
 -155.9058296\RMSD=5.325e-09\PG=C01 [X(C4H6)]\\@

 Normal termination of Gaussian 09 at Wed Aug 26 13:43:59 2020.
