 Gaussian 09, Revision D.01,
 Gaussian 09:  ES64L-G09RevD.01 24-Apr-2013

 --------------------
 #p B2PLYPD3/Def2QZVP
 --------------------

 ---------
 butadiene
 ---------
 Symbolic Z-matrix:
 Charge =  0 Multiplicity = 1

                         Standard orientation:
 ---------------------------------------------------------------------
 Center     Atomic      Atomic             Coordinates (Angstroms)
 Number     Number       Type             X           Y           Z
 ---------------------------------------------------------------------
      1          6           0       -1.832698    0.100455    0.026214
      2          6           0       -0.589423   -0.404158   -0.026298
      3          6           0        0.604390    0.431697   -0.026980
      4          6           0        1.828073   -0.124289    0.008662
      5          1           0       -2.778464   -0.514615   -0.024597
      6          1           0       -2.026665    1.157562    0.110811
      7          1           0       -0.427110   -1.482845   -0.114603
      8          1           0        0.521611    1.562558   -0.039045
      9          1           0        1.927246   -1.218937    0.199291
     10          1           0        2.721332    0.474048   -0.021442
 ---------------------------------------------------------------------

 SCF Done:  E(RB2PLYPD3) =  -155.693869077     A.U. after   11 cycles
 E2(B2PLYPD3) =    -0.2269694696D+00 E(B2PLYPD3) =    -0.15592083854702D+03

 The electronic state is 1-A.
 Alpha  occ. eigenvalues --  -10.63279 -10.62984 -10.62058 -10.61884  -0.92754
 Alpha  occ. eigenvalues --   -0.84412  -0.69577  -0.63579  -0.54490  -0.53179
 Alpha  occ. eigenvalues --   -0.46433  -0.44793  -0.41204  -0.37939  -0.27479
 Alpha virt. eigenvalues --    0.01615   0.07025   0.07168   0.07862   0.09169
 Alpha virt. eigenvalues --    0.11604   0.12415   0.14469   0.15824   0.16232
 Alpha virt. eigenvalues --    0.18721   0.20351   0.21453   0.22773   0.23427

 Mulliken charges:
               1
     1  C   -0.170715
     2  C   -0.033429
     3  C   -0.031348
     4  C   -0.174663
     5  H    0.077755
     6  H    0.066201
     7  H    0.061756
     8  H    0.054694
     9  H    0.062880
    10  H    0.086870
 Sum of Mulliken charges =   0.00000

 Dipole moment (field-independent basis, Debye):
    X=              0.0164    Y=              0.0548    Z=              0.0709  Tot=              0.0911
 Quadrupole moment (field-independent basis, Debye-Ang):
   XX=            -23.5995   YY=            -23.1228   ZZ=            -29.4228
   XY=             -0.1342   XZ=              0.2014   YZ=             -0.0128

 1\1\GINC-NODE39\SP\RB2PLYPD3-FC\def2QZVP\C4H6\BOITTIER\26-Aug-2020\0\\
 #p B2PLYPD3/Def2QZVP\\butadiene\\0,1\C,0,-3.838151,0.21417,0.043102\C,
 0,-2.706038,-0.507206,0.010507\C,0,-1.381357,0.099879,-0.01211\C,0,-0.
 277557,-0.665734,0.044935\H,0,-4.879236,-0.222056,0.00823\H,0,-3.83862
 4,1.29104,0.094149\H,0,-2.740593,-1.599716,-0.043682\H,0,-1.259408,1.2
 26253,-0.059594\H,0,-0.376462,-1.753884,0.269826\H,0,0.708684,-0.23904
 ,-0.000725\\Version=ES64L-G09RevD.01\State=1-A\HF=-155.6938691\MP2=-15
 5.9208385\RMSD=3.956e-09\PG=C01 [X(C4H6)]\\@

 Normal termination of Gaussian 09 at Wed Aug 26 11:05:18 2020.
