 Gaussian 09, Revision D.01,
 Gaussian 09:  ES64L-G09RevD.01 24-Apr-2013

 --------------------
 #p B2PLYPD3/Def2QZVP
 --------------------

 ---------
 butadiene
 ---------
 Symbolic Z-matrix:
 Charge =  0 Multiplicity = 1

                         Standard orientation:
 ---------------------------------------------------------------------
 Center     Atomic      Atomic             Coordinates (Angstroms)
 Number     Number       Type             X           Y           Z
 ---------------------------------------------------------------------
      1          6           0       -1.834175    0.117446   -0.022617
      2          6           0       -0.607383   -0.410609    0.013684
      3          6           0        0.592858    0.390611    0.007877
      4          6           0        1.836411   -0.107436   -0.017365
      5          1           0       -2.721927   -0.527136    0.001960
      6          1           0       -1.950344    1.199486   -0.008899
      7          1           0       -0.429012   -1.469405    0.095955
      8          1           0        0.482162    1.452380    0.049790
      9          1           0        2.015954   -1.147073   -0.068279
     10          1           0        2.676912    0.551680    0.039997
 ---------------------------------------------------------------------

 SCF Done:  E(RB2PLYPD3) =  -155.699773459     A.U. after   11 cycles
 E2(B2PLYPD3) =    -0.2256402904D+00 E(B2PLYPD3) =    -0.15592541374930D+03

 The electronic state is 1-A.
 Alpha  occ. eigenvalues --  -10.62352 -10.62110 -10.61817 -10.61042  -0.93210
 Alpha  occ. eigenvalues --   -0.84882  -0.70291  -0.64469  -0.54415  -0.54220
 Alpha  occ. eigenvalues --   -0.46620  -0.45994  -0.41437  -0.38099  -0.27544
 Alpha virt. eigenvalues --    0.01650   0.07022   0.07472   0.08094   0.09625
 Alpha virt. eigenvalues --    0.11775   0.12415   0.14818   0.15770   0.16104
 Alpha virt. eigenvalues --    0.18693   0.20467   0.21555   0.22847   0.24149

 Mulliken charges:
               1
     1  C   -0.175850
     2  C   -0.035329
     3  C   -0.021304
     4  C   -0.185320
     5  H    0.086666
     6  H    0.068962
     7  H    0.056750
     8  H    0.053010
     9  H    0.067095
    10  H    0.085321
 Sum of Mulliken charges =   0.00000

 Dipole moment (field-independent basis, Debye):
    X=              0.0028    Y=             -0.0070    Z=              0.1133  Tot=              0.1135
 Quadrupole moment (field-independent basis, Debye-Ang):
   XX=            -23.6602   YY=            -23.0302   ZZ=            -29.2229
   XY=             -0.1241   XZ=             -0.0266   YZ=              0.0476

 1\1\GINC-NODE13\SP\RB2PLYPD3-FC\def2QZVP\C4H6\BOITTIER\26-Aug-2020\0\\
 #p B2PLYPD3/Def2QZVP\\butadiene\\0,1\C,0,-3.833003,0.232989,-0.001295\
 C,0,-2.722045,-0.507377,0.051709\C,0,-1.396546,0.062627,0.025014\C,0,-
 0.263895,-0.653003,0.015676\H,0,-4.82274,-0.239126,0.040192\H,0,-3.751
 179,1.31812,-0.018334\H,0,-2.738132,-1.578235,0.164132\H,0,-1.312908,1
 .12763,0.03674\H,0,-0.275849,-1.708976,-0.005572\H,0,0.682309,-0.15574
 ,0.055615\\Version=ES64L-G09RevD.01\State=1-A\HF=-155.6997735\MP2=-155
 .9254137\RMSD=3.188e-09\PG=C01 [X(C4H6)]\\@

 Normal termination of Gaussian 09 at Wed Aug 26 19:45:58 2020.
