 Gaussian 09, Revision D.01,
 Gaussian 09:  ES64L-G09RevD.01 24-Apr-2013

 --------------------
 #p B2PLYPD3/Def2QZVP
 --------------------

 ---------
 butadiene
 ---------
 Symbolic Z-matrix:
 Charge =  0 Multiplicity = 1

                         Standard orientation:
 ---------------------------------------------------------------------
 Center     Atomic      Atomic             Coordinates (Angstroms)
 Number     Number       Type             X           Y           Z
 ---------------------------------------------------------------------
      1          6           0        1.841913    0.111400    0.022760
      2          6           0        0.605658   -0.410084   -0.020569
      3          6           0       -0.598496    0.381392   -0.033486
      4          6           0       -1.845188   -0.100387    0.011923
      5          1           0        2.724470   -0.488261    0.076659
      6          1           0        2.011149    1.176509   -0.016037
      7          1           0        0.443017   -1.476350   -0.059718
      8          1           0       -0.469869    1.466169   -0.014087
      9          1           0       -2.059282   -1.148260    0.039320
     10          1           0       -2.672806    0.576270    0.090099
 ---------------------------------------------------------------------

 SCF Done:  E(RB2PLYPD3) =  -155.700440369     A.U. after   11 cycles
 E2(B2PLYPD3) =    -0.2257133254D+00 E(B2PLYPD3) =    -0.15592615369419D+03

 The electronic state is 1-A.
 Alpha  occ. eigenvalues --  -10.62575 -10.62416 -10.61568 -10.61274  -0.93072
 Alpha  occ. eigenvalues --   -0.84873  -0.70705  -0.64129  -0.54839  -0.54013
 Alpha  occ. eigenvalues --   -0.46838  -0.45826  -0.41214  -0.38135  -0.27527
 Alpha virt. eigenvalues --    0.01484   0.07006   0.07466   0.08110   0.09685
 Alpha virt. eigenvalues --    0.11668   0.12479   0.14857   0.15834   0.16183
 Alpha virt. eigenvalues --    0.18836   0.20538   0.21798   0.22712   0.23821

 Mulliken charges:
               1
     1  C   -0.173848
     2  C   -0.035928
     3  C   -0.020455
     4  C   -0.180926
     5  H    0.086123
     6  H    0.066156
     7  H    0.056486
     8  H    0.050332
     9  H    0.066542
    10  H    0.085519
 Sum of Mulliken charges =   0.00000

 Dipole moment (field-independent basis, Debye):
    X=              0.0315    Y=             -0.0057    Z=              0.0699  Tot=              0.0769
 Quadrupole moment (field-independent basis, Debye-Ang):
   XX=            -23.3625   YY=            -23.1494   ZZ=            -29.2308
   XY=              0.2671   XZ=             -0.1879   YZ=              0.0135

 1\1\GINC-NODE37\SP\RB2PLYPD3-FC\def2QZVP\C4H6\BOITTIER\26-Aug-2020\0\\
 #p B2PLYPD3/Def2QZVP\\butadiene\\0,1\C,0,-3.841752,0.232713,-0.00447\C
 ,0,-2.721655,-0.504735,0.056383\C,0,-1.392887,0.052765,0.043846\C,0,-0
 .255758,-0.650444,0.014712\H,0,-4.819474,-0.196552,-0.039049\H,0,-3.81
 2887,1.311488,-0.000628\H,0,-2.756777,-1.580924,0.13048\H,0,-1.320827,
 1.141549,-0.011105\H,0,-0.237304,-1.720133,0.021717\H,0,0.68131,-0.139
 722,-0.085255\\Version=ES64L-G09RevD.01\State=1-A\HF=-155.7004404\MP2=
 -155.9261537\RMSD=4.335e-09\PG=C01 [X(C4H6)]\\@

 Normal termination of Gaussian 09 at Wed Aug 26 21:33:30 2020.
