 Gaussian 09, Revision D.01,
 Gaussian 09:  ES64L-G09RevD.01 24-Apr-2013

 --------------------
 #p B2PLYPD3/Def2QZVP
 --------------------

 ---------
 butadiene
 ---------
 Symbolic Z-matrix:
 Charge =  0 Multiplicity = 1

                         Standard orientation:
 ---------------------------------------------------------------------
 Center     Atomic      Atomic             Coordinates (Angstroms)
 Number     Number       Type             X           Y           Z
 ---------------------------------------------------------------------
      1          6           0        1.822841   -0.110268    0.006218
      2          6           0        0.601876    0.406174   -0.027452
      3          6           0       -0.602695   -0.403548   -0.024976
      4          6           0       -1.831474    0.111841    0.021540
      5          1           0        2.724856    0.510160    0.120598
      6          1           0        1.965916   -1.195930    0.033892
      7          1           0        0.490685    1.501714   -0.059019
      8          1           0       -0.459453   -1.491486   -0.032724
      9          1           0       -2.003867    1.184103    0.035178
     10          1           0       -2.661425   -0.533756    0.050091
 ---------------------------------------------------------------------

 SCF Done:  E(RB2PLYPD3) =  -155.699688225     A.U. after   11 cycles
 E2(B2PLYPD3) =    -0.2256748020D+00 E(B2PLYPD3) =    -0.15592536302726D+03

 The electronic state is 1-A.
 Alpha  occ. eigenvalues --  -10.62592 -10.62472 -10.61622 -10.61154  -0.93111
 Alpha  occ. eigenvalues --   -0.85025  -0.69934  -0.63771  -0.54615  -0.53928
 Alpha  occ. eigenvalues --   -0.46521  -0.45457  -0.41144  -0.38220  -0.27738
 Alpha virt. eigenvalues --    0.01926   0.07042   0.07278   0.08038   0.09581
 Alpha virt. eigenvalues --    0.11708   0.12418   0.14686   0.15831   0.16148
 Alpha virt. eigenvalues --    0.18708   0.20388   0.21646   0.22885   0.23844

 Mulliken charges:
               1
     1  C   -0.171587
     2  C   -0.024918
     3  C   -0.031564
     4  C   -0.178393
     5  H    0.083374
     6  H    0.060579
     7  H    0.053206
     8  H    0.052615
     9  H    0.068755
    10  H    0.087932
 Sum of Mulliken charges =   0.00000

 Dipole moment (field-independent basis, Debye):
    X=             -0.0136    Y=             -0.0010    Z=              0.1011  Tot=              0.1020
 Quadrupole moment (field-independent basis, Debye-Ang):
   XX=            -23.6687   YY=            -23.0176   ZZ=            -29.2468
   XY=             -0.1016   XZ=              0.2027   YZ=              0.0125

 1\1\GINC-NODE10\SP\RB2PLYPD3-FC\def2QZVP\C4H6\BOITTIER\26-Aug-2020\0\\
 #p B2PLYPD3/Def2QZVP\\butadiene\\0,1\C,0,-3.826013,0.223559,0.030222\C
 ,0,-2.718592,-0.505731,0.011338\C,0,-1.387583,0.072761,-0.008875\C,0,-
 0.271889,-0.654675,0.052367\H,0,-4.824677,-0.220248,0.161944\H,0,-3.77
 0503,1.317546,0.027197\H,0,-2.807265,-1.603777,0.010746\H,0,-1.332001,
 1.168031,-0.047372\H,0,-0.295939,-1.739636,0.096313\H,0,0.661151,-0.16
 9127,0.062797\\Version=ES64L-G09RevD.01\State=1-A\HF=-155.6996882\MP2=
 -155.925363\RMSD=5.494e-09\PG=C01 [X(C4H6)]\\@

 Normal termination of Gaussian 09 at Wed Aug 26 21:18:09 2020.
