 Gaussian 09, Revision D.01,
 Gaussian 09:  ES64L-G09RevD.01 24-Apr-2013

 --------------------
 #p B2PLYPD3/Def2QZVP
 --------------------

 ---------
 butadiene
 ---------
 Symbolic Z-matrix:
 Charge =  0 Multiplicity = 1

                         Standard orientation:
 ---------------------------------------------------------------------
 Center     Atomic      Atomic             Coordinates (Angstroms)
 Number     Number       Type             X           Y           Z
 ---------------------------------------------------------------------
      1          6           0        1.819210    0.044423    0.056469
      2          6           0        0.591781   -0.371199   -0.124442
      3          6           0       -0.601491    0.449971   -0.032987
      4          6           0       -1.821891   -0.138976    0.029731
      5          1           0        2.818146   -0.458300    0.246624
      6          1           0        1.974743    1.206132    0.045946
      7          1           0        0.458661   -1.393651   -0.042973
      8          1           0       -0.478284    1.561209   -0.130692
      9          1           0       -1.939996   -1.258662    0.065832
     10          1           0       -2.758918    0.437954    0.242633
 ---------------------------------------------------------------------

 SCF Done:  E(RB2PLYPD3) =  -155.677207703     A.U. after   11 cycles
 E2(B2PLYPD3) =    -0.2275290457D+00 E(B2PLYPD3) =    -0.15590473674874D+03

 The electronic state is 1-A.
 Alpha  occ. eigenvalues --  -10.63709 -10.62859 -10.62657 -10.61740  -0.93323
 Alpha  occ. eigenvalues --   -0.84508  -0.69113  -0.64093  -0.54647  -0.52882
 Alpha  occ. eigenvalues --   -0.47077  -0.43604  -0.40202  -0.38302  -0.27784
 Alpha virt. eigenvalues --    0.01660   0.06938   0.07147   0.07880   0.09124
 Alpha virt. eigenvalues --    0.11342   0.12556   0.13894   0.15346   0.16827
 Alpha virt. eigenvalues --    0.18697   0.19637   0.21713   0.22948   0.23287

 Mulliken charges:
               1
     1  C   -0.156027
     2  C   -0.023809
     3  C   -0.037459
     4  C   -0.168644
     5  H    0.088652
     6  H    0.029835
     7  H    0.062389
     8  H    0.062352
     9  H    0.063040
    10  H    0.079672
 Sum of Mulliken charges =   0.00000

 Dipole moment (field-independent basis, Debye):
    X=              0.0285    Y=             -0.0638    Z=              0.2759  Tot=              0.2846
 Quadrupole moment (field-independent basis, Debye-Ang):
   XX=            -23.3406   YY=            -23.5595   ZZ=            -29.3024
   XY=              0.0183   XZ=              0.0933   YZ=             -0.2218

 1\1\GINC-NODE13\SP\RB2PLYPD3-FC\def2QZVP\C4H6\BOITTIER\26-Aug-2020\0\\
 #p B2PLYPD3/Def2QZVP\\butadiene\\0,1\C,0,-3.83405,0.162871,-0.043676\C
 ,0,-2.70334,-0.469148,0.140982\C,0,-1.380144,0.120326,0.050124\C,0,-0.
 287541,-0.681521,-0.008431\H,0,-4.907599,-0.149749,-0.234788\H,0,-3.77
 5087,1.333486,-0.036386\H,0,-2.758817,-1.498957,0.06235\H,0,-1.298753,
 1.235669,0.144792\H,0,-0.375596,-1.804064,-0.041486\H,0,0.739366,-0.28
 5795,-0.220694\\Version=ES64L-G09RevD.01\State=1-A\HF=-155.6772077\MP2
 =-155.9047367\RMSD=9.317e-09\PG=C01 [X(C4H6)]\\@

 Normal termination of Gaussian 09 at Wed Aug 26 14:11:28 2020.
