 Gaussian 09, Revision D.01,
 Gaussian 09:  ES64L-G09RevD.01 24-Apr-2013

 --------------------
 #p B2PLYPD3/Def2QZVP
 --------------------

 ---------
 butadiene
 ---------
 Symbolic Z-matrix:
 Charge =  0 Multiplicity = 1

                         Standard orientation:
 ---------------------------------------------------------------------
 Center     Atomic      Atomic             Coordinates (Angstroms)
 Number     Number       Type             X           Y           Z
 ---------------------------------------------------------------------
      1          6           0       -1.820303   -0.121749    0.017901
      2          6           0       -0.622215    0.434147   -0.049538
      3          6           0        0.592326   -0.388445   -0.020532
      4          6           0        1.833591    0.102929    0.023177
      5          1           0       -2.713046    0.432201    0.076886
      6          1           0       -1.836016   -1.256004   -0.009455
      7          1           0       -0.495442    1.536845    0.085943
      8          1           0        0.458794   -1.474856    0.009707
      9          1           0        2.017131    1.164971   -0.044399
     10          1           0        2.668187   -0.564454    0.055272
 ---------------------------------------------------------------------

 SCF Done:  E(RB2PLYPD3) =  -155.695599958     A.U. after   11 cycles
 E2(B2PLYPD3) =    -0.2259456935D+00 E(B2PLYPD3) =    -0.15592154565165D+03

 The electronic state is 1-A.
 Alpha  occ. eigenvalues --  -10.62748 -10.62615 -10.61618 -10.61163  -0.92963
 Alpha  occ. eigenvalues --   -0.85084  -0.69667  -0.63522  -0.54957  -0.53613
 Alpha  occ. eigenvalues --   -0.46582  -0.45072  -0.41118  -0.38092  -0.27855
 Alpha virt. eigenvalues --    0.02068   0.07072   0.07207   0.08077   0.09292
 Alpha virt. eigenvalues --    0.11733   0.12466   0.14493   0.15486   0.16313
 Alpha virt. eigenvalues --    0.18638   0.19957   0.21447   0.23135   0.24462

 Mulliken charges:
               1
     1  C   -0.170023
     2  C   -0.029661
     3  C   -0.026620
     4  C   -0.182394
     5  H    0.093256
     6  H    0.057085
     7  H    0.053740
     8  H    0.049903
     9  H    0.068240
    10  H    0.086474
 Sum of Mulliken charges =   0.00000

 Dipole moment (field-independent basis, Debye):
    X=             -0.0576    Y=              0.0281    Z=              0.1093  Tot=              0.1267
 Quadrupole moment (field-independent basis, Debye-Ang):
   XX=            -23.6903   YY=            -23.0654   ZZ=            -29.2814
   XY=             -0.1133   XZ=             -0.2288   YZ=              0.0739

 1\1\GINC-NODE04\SP\RB2PLYPD3-FC\def2QZVP\C4H6\BOITTIER\26-Aug-2020\0\\
 #p B2PLYPD3/Def2QZVP\\butadiene\\0,1\C,0,-3.819131,0.230606,-0.005711\
 C,0,-2.739045,-0.527786,0.079368\C,0,-1.397513,0.064527,0.033891\C,0,-
 0.263592,-0.640855,0.006396\H,0,-4.796293,-0.15691,-0.053821\H,0,-3.63
 2659,1.349872,-0.006551\H,0,-2.810746,-1.638477,-0.028307\H,0,-1.33556
 6,1.156259,-0.02372\H,0,-0.271945,-1.716581,0.10089\H,0,0.676431,-0.13
 3679,-0.039547\\Version=ES64L-G09RevD.01\State=1-A\HF=-155.6956\MP2=-1
 55.9215457\RMSD=5.403e-09\PG=C01 [X(C4H6)]\\@

 Normal termination of Gaussian 09 at Wed Aug 26 11:16:28 2020.
