 Gaussian 09, Revision D.01,
 Gaussian 09:  ES64L-G09RevD.01 24-Apr-2013

 --------------------
 #p B2PLYPD3/Def2QZVP
 --------------------

 ---------
 butadiene
 ---------
 Symbolic Z-matrix:
 Charge =  0 Multiplicity = 1

                         Standard orientation:
 ---------------------------------------------------------------------
 Center     Atomic      Atomic             Coordinates (Angstroms)
 Number     Number       Type             X           Y           Z
 ---------------------------------------------------------------------
      1          6           0        1.831423    0.117384    0.002845
      2          6           0        0.615707   -0.399523   -0.033317
      3          6           0       -0.596327    0.365316   -0.011533
      4          6           0       -1.844617   -0.104271    0.017855
      5          1           0        2.737078   -0.491476    0.134050
      6          1           0        1.950743    1.197569    0.049276
      7          1           0        0.519968   -1.483609   -0.045817
      8          1           0       -0.463810    1.433999   -0.083327
      9          1           0       -2.101593   -1.099212    0.023179
     10          1           0       -2.679502    0.569287    0.067538
 ---------------------------------------------------------------------

 SCF Done:  E(RB2PLYPD3) =  -155.697557395     A.U. after   11 cycles
 E2(B2PLYPD3) =    -0.2252038337D+00 E(B2PLYPD3) =    -0.15592276122903D+03

 The electronic state is 1-A.
 Alpha  occ. eigenvalues --  -10.62298 -10.62175 -10.61604 -10.60828  -0.93415
 Alpha  occ. eigenvalues --   -0.85275  -0.70744  -0.64258  -0.55011  -0.54237
 Alpha  occ. eigenvalues --   -0.46943  -0.45643  -0.41064  -0.38331  -0.27765
 Alpha virt. eigenvalues --    0.01619   0.06959   0.07583   0.08002   0.09919
 Alpha virt. eigenvalues --    0.11681   0.12559   0.14888   0.15799   0.16175
 Alpha virt. eigenvalues --    0.18829   0.20518   0.21830   0.22565   0.23806

 Mulliken charges:
               1
     1  C   -0.167191
     2  C   -0.028561
     3  C   -0.026902
     4  C   -0.179041
     5  H    0.084852
     6  H    0.059583
     7  H    0.052703
     8  H    0.053621
     9  H    0.070250
    10  H    0.080684
 Sum of Mulliken charges =   0.00000

 Dipole moment (field-independent basis, Debye):
    X=             -0.0017    Y=             -0.0389    Z=              0.1055  Tot=              0.1125
 Quadrupole moment (field-independent basis, Debye-Ang):
   XX=            -23.2812   YY=            -23.2574   ZZ=            -29.0876
   XY=              0.1648   XZ=              0.2956   YZ=             -0.0591

 1\1\GINC-NODE21\SP\RB2PLYPD3-FC\def2QZVP\C4H6\BOITTIER\26-Aug-2020\0\\
 #p B2PLYPD3/Def2QZVP\\butadiene\\0,1\C,0,-3.831656,0.23011,0.0089\C,0,
 -2.728094,-0.494836,0.064294\C,0,-1.398731,0.039762,0.025847\C,0,-0.25
 4724,-0.646332,0.014519\H,0,-4.831841,-0.210259,-0.108748\H,0,-3.7557,
 1.312456,-0.068239\H,0,-2.827988,-1.577757,0.107533\H,0,-1.337681,1.11
 65,0.067156\H,0,-0.180046,-1.670949,0.038076\H,0,0.687209,-0.13478,-0.
 050738\\Version=ES64L-G09RevD.01\State=1-A\HF=-155.6975574\MP2=-155.92
 27612\RMSD=5.529e-09\PG=C01 [X(C4H6)]\\@

 Normal termination of Gaussian 09 at Wed Aug 26 08:56:15 2020.
