 Gaussian 09, Revision D.01,
 Gaussian 09:  ES64L-G09RevD.01 24-Apr-2013

 --------------------
 #p B2PLYPD3/Def2QZVP
 --------------------

 ---------
 butadiene
 ---------
 Symbolic Z-matrix:
 Charge =  0 Multiplicity = 1

                         Standard orientation:
 ---------------------------------------------------------------------
 Center     Atomic      Atomic             Coordinates (Angstroms)
 Number     Number       Type             X           Y           Z
 ---------------------------------------------------------------------
      1          6           0       -1.843877   -0.120963    0.006514
      2          6           0       -0.617554    0.405346    0.003363
      3          6           0        0.611338   -0.381650   -0.018088
      4          6           0        1.846125    0.105038   -0.000786
      5          1           0       -2.701766    0.507480   -0.029567
      6          1           0       -1.961436   -1.186302    0.064257
      7          1           0       -0.511030    1.486932   -0.051891
      8          1           0        0.443927   -1.460339   -0.019431
      9          1           0        2.032565    1.154828    0.085333
     10          1           0        2.721554   -0.549231    0.005287
 ---------------------------------------------------------------------

 SCF Done:  E(RB2PLYPD3) =  -155.700752423     A.U. after   11 cycles
 E2(B2PLYPD3) =    -0.2254014607D+00 E(B2PLYPD3) =    -0.15592615388410D+03

 The electronic state is 1-A.
 Alpha  occ. eigenvalues --  -10.62540 -10.62477 -10.61421 -10.61260  -0.92958
 Alpha  occ. eigenvalues --   -0.85166  -0.70246  -0.63994  -0.54799  -0.53942
 Alpha  occ. eigenvalues --   -0.46935  -0.45810  -0.40881  -0.38101  -0.27852
 Alpha virt. eigenvalues --    0.01789   0.07006   0.07463   0.08068   0.09682
 Alpha virt. eigenvalues --    0.11709   0.12431   0.14775   0.15798   0.16122
 Alpha virt. eigenvalues --    0.18820   0.20459   0.21604   0.22884   0.23825

 Mulliken charges:
               1
     1  C   -0.179803
     2  C   -0.028171
     3  C   -0.028734
     4  C   -0.174887
     5  H    0.090181
     6  H    0.066506
     7  H    0.051699
     8  H    0.050320
     9  H    0.067726
    10  H    0.085163
 Sum of Mulliken charges =   0.00000

 Dipole moment (field-independent basis, Debye):
    X=             -0.0209    Y=              0.0199    Z=              0.0471  Tot=              0.0553
 Quadrupole moment (field-independent basis, Debye-Ang):
   XX=            -23.4152   YY=            -23.1541   ZZ=            -29.2160
   XY=              0.0950   XZ=              0.1995   YZ=             -0.0500

 1\1\GINC-NODE32\SP\RB2PLYPD3-FC\def2QZVP\C4H6\BOITTIER\26-Aug-2020\0\\
 #p B2PLYPD3/Def2QZVP\\butadiene\\0,1\C,0,-3.844618,0.231723,0.012921\C
 ,0,-2.731167,-0.503568,0.034208\C,0,-1.382012,0.052989,0.029365\C,0,-0
 .253317,-0.645518,0.028872\H,0,-4.800196,-0.232848,0.070002\H,0,-3.771
 575,1.298481,-0.080854\H,0,-2.817966,-1.584429,0.126042\H,0,-1.355321,
 1.143699,-0.005824\H,0,-0.256639,-1.714008,-0.021639\H,0,0.724279,-0.1
 57659,0.000913\\Version=ES64L-G09RevD.01\State=1-A\HF=-155.7007524\MP2
 =-155.9261539\RMSD=4.627e-09\PG=C01 [X(C4H6)]\\@

 Normal termination of Gaussian 09 at Wed Aug 26 21:52:05 2020.
