 Gaussian 09, Revision D.01,
 Gaussian 09:  ES64L-G09RevD.01 24-Apr-2013

 --------------------
 #p B2PLYPD3/Def2QZVP
 --------------------

 ---------
 butadiene
 ---------
 Symbolic Z-matrix:
 Charge =  0 Multiplicity = 1

                         Standard orientation:
 ---------------------------------------------------------------------
 Center     Atomic      Atomic             Coordinates (Angstroms)
 Number     Number       Type             X           Y           Z
 ---------------------------------------------------------------------
      1          6           0        1.812729    0.096524    0.046691
      2          6           0        0.583376   -0.401476   -0.052601
      3          6           0       -0.577899    0.429259   -0.039048
      4          6           0       -1.836008   -0.120231    0.012547
      5          1           0        2.726942   -0.532048    0.110613
      6          1           0        2.037750    1.162339    0.078835
      7          1           0        0.509370   -1.469487   -0.250747
      8          1           0       -0.470600    1.459960   -0.073376
      9          1           0       -2.056043   -1.140178    0.306497
     10          1           0       -2.640610    0.494960    0.022650
 ---------------------------------------------------------------------

 SCF Done:  E(RB2PLYPD3) =  -155.687033088     A.U. after   11 cycles
 E2(B2PLYPD3) =    -0.2264390924D+00 E(B2PLYPD3) =    -0.15591347218084D+03

 The electronic state is 1-A.
 Alpha  occ. eigenvalues --  -10.62554 -10.62262 -10.61708 -10.61092  -0.93292
 Alpha  occ. eigenvalues --   -0.84535  -0.70794  -0.64732  -0.54984  -0.54028
 Alpha  occ. eigenvalues --   -0.46187  -0.45942  -0.41931  -0.37795  -0.27035
 Alpha virt. eigenvalues --    0.01149   0.07082   0.07586   0.07946   0.09160
 Alpha virt. eigenvalues --    0.11619   0.12625   0.14768   0.15779   0.16635
 Alpha virt. eigenvalues --    0.18694   0.20177   0.22100   0.22708   0.23459

 Mulliken charges:
               1
     1  C   -0.173813
     2  C   -0.024156
     3  C   -0.055019
     4  C   -0.175632
     5  H    0.075167
     6  H    0.060843
     7  H    0.071814
     8  H    0.071533
     9  H    0.071538
    10  H    0.077725
 Sum of Mulliken charges =   0.00000

 Dipole moment (field-independent basis, Debye):
    X=              0.0584    Y=              0.0787    Z=              0.1216  Tot=              0.1562
 Quadrupole moment (field-independent basis, Debye-Ang):
   XX=            -23.6199   YY=            -23.0948   ZZ=            -29.0933
   XY=              0.2044   XZ=             -0.3536   YZ=             -0.1283

 1\1\GINC-NODE10\SP\RB2PLYPD3-FC\def2QZVP\C4H6\BOITTIER\26-Aug-2020\0\\
 #p B2PLYPD3/Def2QZVP\\butadiene\\0,1\C,0,-3.817495,0.21679,-0.024365\C
 ,0,-2.701965,-0.499273,0.08526\C,0,-1.406283,0.099749,0.049973\C,0,-0.
 272988,-0.675802,0.009964\H,0,-4.833219,-0.231576,-0.071771\H,0,-3.840
 071,1.304814,-0.082014\H,0,-2.827188,-1.55738,0.309124\H,0,-1.319358,1
 .132895,0.059465\H,0,-0.248678,-1.725525,-0.259491\H,0,0.632119,-0.221
 879,-0.016158\\Version=ES64L-G09RevD.01\State=1-A\HF=-155.6870331\MP2=
 -155.9134722\RMSD=8.720e-09\PG=C01 [X(C4H6)]\\@

 Normal termination of Gaussian 09 at Wed Aug 26 13:58:35 2020.
