 Gaussian 09, Revision D.01,
 Gaussian 09:  ES64L-G09RevD.01 24-Apr-2013

 --------------------
 #p B2PLYPD3/Def2QZVP
 --------------------

 ---------
 butadiene
 ---------
 Symbolic Z-matrix:
 Charge =  0 Multiplicity = 1

                         Standard orientation:
 ---------------------------------------------------------------------
 Center     Atomic      Atomic             Coordinates (Angstroms)
 Number     Number       Type             X           Y           Z
 ---------------------------------------------------------------------
      1          6           0       -1.835170   -0.108182    0.018380
      2          6           0       -0.601890    0.401306   -0.015211
      3          6           0        0.604212   -0.401668   -0.029003
      4          6           0        1.833858    0.108473    0.009728
      5          1           0       -2.729827    0.521111   -0.011399
      6          1           0       -1.998127   -1.168244    0.073756
      7          1           0       -0.403805    1.488275   -0.068641
      8          1           0        0.451487   -1.471843   -0.017961
      9          1           0        1.992572    1.187197    0.118957
     10          1           0        2.681638   -0.556070    0.001929
 ---------------------------------------------------------------------

 SCF Done:  E(RB2PLYPD3) =  -155.699820475     A.U. after   11 cycles
 E2(B2PLYPD3) =    -0.2258430670D+00 E(B2PLYPD3) =    -0.15592566354167D+03

 The electronic state is 1-A.
 Alpha  occ. eigenvalues --  -10.62676 -10.62278 -10.61621 -10.61557  -0.93112
 Alpha  occ. eigenvalues --   -0.84871  -0.70152  -0.63906  -0.54649  -0.53648
 Alpha  occ. eigenvalues --   -0.46769  -0.45746  -0.40887  -0.38190  -0.27693
 Alpha virt. eigenvalues --    0.01731   0.07017   0.07308   0.08086   0.09598
 Alpha virt. eigenvalues --    0.11741   0.12365   0.14784   0.15718   0.16077
 Alpha virt. eigenvalues --    0.18729   0.20453   0.21583   0.22848   0.23766

 Mulliken charges:
               1
     1  C   -0.177646
     2  C   -0.026294
     3  C   -0.026371
     4  C   -0.179069
     5  H    0.085895
     6  H    0.066832
     7  H    0.050122
     8  H    0.052437
     9  H    0.066656
    10  H    0.087436
 Sum of Mulliken charges =   0.00000

 Dipole moment (field-independent basis, Debye):
    X=             -0.0037    Y=             -0.0420    Z=              0.0664  Tot=              0.0787
 Quadrupole moment (field-independent basis, Debye-Ang):
   XX=            -23.5940   YY=            -23.1210   ZZ=            -29.2646
   XY=              0.2410   XZ=              0.1683   YZ=             -0.0187

 1\1\GINC-NODE07\SP\RB2PLYPD3-FC\def2QZVP\C4H6\BOITTIER\26-Aug-2020\0\\
 #p B2PLYPD3/Def2QZVP\\butadiene\\0,1\C,0,-3.836781,0.226626,0.000493\C
 ,0,-2.717423,-0.498768,0.050755\C,0,-1.384677,0.069839,0.040071\C,0,-0
 .269385,-0.657768,0.018065\H,0,-4.831335,-0.226997,0.049464\H,0,-3.803
 256,1.296376,-0.088181\H,0,-2.721349,-1.601449,0.138347\H,0,-1.339013,
 1.149024,-0.004602\H,0,-0.311347,-1.750169,-0.057203\H,0,0.68573,-0.15
 9763,0.005521\\Version=ES64L-G09RevD.01\State=1-A\HF=-155.6998205\MP2=
 -155.9256635\RMSD=2.662e-09\PG=C01 [X(C4H6)]\\@

 Normal termination of Gaussian 09 at Wed Aug 26 21:23:52 2020.
