 Gaussian 09, Revision D.01,
 Gaussian 09:  ES64L-G09RevD.01 24-Apr-2013

 --------------------
 #p B2PLYPD3/Def2QZVP
 --------------------

 ---------
 butadiene
 ---------
 Symbolic Z-matrix:
 Charge =  0 Multiplicity = 1

                         Standard orientation:
 ---------------------------------------------------------------------
 Center     Atomic      Atomic             Coordinates (Angstroms)
 Number     Number       Type             X           Y           Z
 ---------------------------------------------------------------------
      1          6           0        1.840237    0.110563    0.007209
      2          6           0        0.605766   -0.396585   -0.019306
      3          6           0       -0.610881    0.390588   -0.010693
      4          6           0       -1.841239   -0.113695    0.018593
      5          1           0        2.709663   -0.517079    0.025851
      6          1           0        2.005612    1.192104    0.076114
      7          1           0        0.528108   -1.480060   -0.074671
      8          1           0       -0.491645    1.485805   -0.042480
      9          1           0       -2.031195   -1.166816    0.093452
     10          1           0       -2.683841    0.540818   -0.053078
 ---------------------------------------------------------------------

 SCF Done:  E(RB2PLYPD3) =  -155.700626846     A.U. after   11 cycles
 E2(B2PLYPD3) =    -0.2255454378D+00 E(B2PLYPD3) =    -0.15592617228419D+03

 The electronic state is 1-A.
 Alpha  occ. eigenvalues --  -10.62618 -10.62460 -10.61511 -10.61207  -0.93007
 Alpha  occ. eigenvalues --   -0.85114  -0.70245  -0.63802  -0.54636  -0.54223
 Alpha  occ. eigenvalues --   -0.46631  -0.45526  -0.41133  -0.38161  -0.27735
 Alpha virt. eigenvalues --    0.01727   0.07028   0.07429   0.07991   0.09736
 Alpha virt. eigenvalues --    0.11659   0.12390   0.14764   0.15864   0.16223
 Alpha virt. eigenvalues --    0.18827   0.20367   0.21668   0.22575   0.23876

 Mulliken charges:
               1
     1  C   -0.174014
     2  C   -0.030407
     3  C   -0.029048
     4  C   -0.176779
     5  H    0.086574
     6  H    0.061885
     7  H    0.053646
     8  H    0.052077
     9  H    0.069784
    10  H    0.086282
 Sum of Mulliken charges =   0.00000

 Dipole moment (field-independent basis, Debye):
    X=             -0.0029    Y=             -0.0240    Z=              0.0105  Tot=              0.0263
 Quadrupole moment (field-independent basis, Debye-Ang):
   XX=            -23.4482   YY=            -23.0943   ZZ=            -29.2273
   XY=              0.0429   XZ=              0.1861   YZ=             -0.0408

 1\1\GINC-NODE29\SP\RB2PLYPD3-FC\def2QZVP\C4H6\BOITTIER\26-Aug-2020\0\\
 #p B2PLYPD3/Def2QZVP\\butadiene\\0,1\C,0,-3.843847,0.222042,0.008618\C
 ,0,-2.7193,-0.495738,0.053404\C,0,-1.381994,0.061772,0.026171\C,0,-0.2
 61096,-0.654053,0.015084\H,0,-4.811137,-0.241123,0.005146\H,0,-3.81422
 2,1.313332,-0.091565\H,0,-2.835612,-1.573707,0.139834\H,0,-1.304332,1.
 161179,0.026392\H,0,-0.261762,-1.72587,-0.029171\H,0,0.684687,-0.15816
 8,0.070715\\Version=ES64L-G09RevD.01\State=1-A\HF=-155.7006268\MP2=-15
 5.9261723\RMSD=2.622e-09\PG=C01 [X(C4H6)]\\@

 Normal termination of Gaussian 09 at Wed Aug 26 09:12:24 2020.
