 Gaussian 09, Revision D.01,
 Gaussian 09:  ES64L-G09RevD.01 24-Apr-2013

 --------------------
 #p B2PLYPD3/Def2QZVP
 --------------------

 ---------
 butadiene
 ---------
 Symbolic Z-matrix:
 Charge =  0 Multiplicity = 1

                         Standard orientation:
 ---------------------------------------------------------------------
 Center     Atomic      Atomic             Coordinates (Angstroms)
 Number     Number       Type             X           Y           Z
 ---------------------------------------------------------------------
      1          6           0        1.839387   -0.122758    0.003664
      2          6           0        0.634596    0.407794   -0.027349
      3          6           0       -0.616291   -0.391601   -0.043597
      4          6           0       -1.856640    0.106187    0.017545
      5          1           0        2.691356    0.488799    0.050906
      6          1           0        1.957814   -1.221201    0.109097
      7          1           0        0.572997    1.507854    0.039621
      8          1           0       -0.471020   -1.428416   -0.010865
      9          1           0       -2.014257    1.197524    0.027906
     10          1           0       -2.743206   -0.542296    0.081754
 ---------------------------------------------------------------------

 SCF Done:  E(RB2PLYPD3) =  -155.696435912     A.U. after   11 cycles
 E2(B2PLYPD3) =    -0.2254683849D+00 E(B2PLYPD3) =    -0.15592190429677D+03

 The electronic state is 1-A.
 Alpha  occ. eigenvalues --  -10.62633 -10.62461 -10.62000 -10.61161  -0.92729
 Alpha  occ. eigenvalues --   -0.85241  -0.69668  -0.63950  -0.54659  -0.53803
 Alpha  occ. eigenvalues --   -0.46982  -0.45268  -0.40921  -0.37835  -0.28078
 Alpha virt. eigenvalues --    0.02033   0.07004   0.07412   0.08047   0.09505
 Alpha virt. eigenvalues --    0.11670   0.12365   0.14471   0.15836   0.16174
 Alpha virt. eigenvalues --    0.18898   0.20404   0.21306   0.22892   0.23943

 Mulliken charges:
               1
     1  C   -0.171223
     2  C   -0.028131
     3  C   -0.040645
     4  C   -0.171883
     5  H    0.088155
     6  H    0.059777
     7  H    0.049576
     8  H    0.061636
     9  H    0.066519
    10  H    0.086218
 Sum of Mulliken charges =   0.00000

 Dipole moment (field-independent basis, Debye):
    X=              0.0371    Y=              0.0037    Z=              0.2277  Tot=              0.2308
 Quadrupole moment (field-independent basis, Debye-Ang):
   XX=            -23.4995   YY=            -23.1100   ZZ=            -29.2578
   XY=              0.1206   XZ=              0.0861   YZ=             -0.0654

 1\1\GINC-NODE06\SP\RB2PLYPD3-FC\def2QZVP\C4H6\BOITTIER\26-Aug-2020\0\\
 #p B2PLYPD3/Def2QZVP\\butadiene\\0,1\C,0,-3.842231,0.22452,0.029537\C,
 0,-2.747642,-0.507295,0.012467\C,0,-1.377272,0.062713,-0.022019\C,0,-0
 .241683,-0.640789,0.052277\H,0,-4.78708,-0.228901,0.090815\H,0,-3.7682
 79,1.329082,0.108224\H,0,-2.877272,-1.599465,0.10612\H,0,-1.340672,1.1
 09501,-0.014542\H,0,-0.275423,-1.742362,0.089213\H,0,0.744005,-0.15432
 8,0.101554\\Version=ES64L-G09RevD.01\State=1-A\HF=-155.6964359\MP2=-15
 5.9219043\RMSD=6.141e-09\PG=C01 [X(C4H6)]\\@

 Normal termination of Gaussian 09 at Wed Aug 26 08:51:03 2020.
