 Gaussian 09, Revision D.01,
 Gaussian 09:  ES64L-G09RevD.01 24-Apr-2013

 --------------------
 #p B2PLYPD3/Def2QZVP
 --------------------

 ---------
 butadiene
 ---------
 Symbolic Z-matrix:
 Charge =  0 Multiplicity = 1

                         Standard orientation:
 ---------------------------------------------------------------------
 Center     Atomic      Atomic             Coordinates (Angstroms)
 Number     Number       Type             X           Y           Z
 ---------------------------------------------------------------------
      1          6           0        1.821319   -0.125838    0.028425
      2          6           0        0.590315    0.429253   -0.049457
      3          6           0       -0.597153   -0.393672   -0.017041
      4          6           0       -1.842211    0.084878   -0.000725
      5          1           0        2.740030    0.462048    0.106840
      6          1           0        1.999451   -1.186279    0.000457
      7          1           0        0.538941    1.573915   -0.013417
      8          1           0       -0.390203   -1.451332   -0.066859
      9          1           0       -2.029316    1.177081    0.055794
     10          1           0       -2.692518   -0.543154    0.149977
 ---------------------------------------------------------------------

 SCF Done:  E(RB2PLYPD3) =  -155.694328618     A.U. after   11 cycles
 E2(B2PLYPD3) =    -0.2267131582D+00 E(B2PLYPD3) =    -0.15592104177615D+03

 The electronic state is 1-A.
 Alpha  occ. eigenvalues --  -10.63419 -10.62598 -10.61861 -10.61578  -0.92970
 Alpha  occ. eigenvalues --   -0.84553  -0.70188  -0.63696  -0.54768  -0.53440
 Alpha  occ. eigenvalues --   -0.46359  -0.45070  -0.41252  -0.38146  -0.27453
 Alpha virt. eigenvalues --    0.01492   0.07034   0.07227   0.07965   0.09325
 Alpha virt. eigenvalues --    0.11582   0.12500   0.14605   0.15681   0.16414
 Alpha virt. eigenvalues --    0.18743   0.19998   0.22159   0.22936   0.23409

 Mulliken charges:
               1
     1  C   -0.174818
     2  C   -0.024785
     3  C   -0.033938
     4  C   -0.168627
     5  H    0.079678
     6  H    0.062898
     7  H    0.052343
     8  H    0.060226
     9  H    0.061951
    10  H    0.085072
 Sum of Mulliken charges =   0.00000

 Dipole moment (field-independent basis, Debye):
    X=              0.0902    Y=             -0.0492    Z=              0.1683  Tot=              0.1972
 Quadrupole moment (field-independent basis, Debye-Ang):
   XX=            -23.5084   YY=            -23.1352   ZZ=            -29.3528
   XY=             -0.2554   XZ=             -0.2125   YZ=              0.1097

 1\1\GINC-NODE05\SP\RB2PLYPD3-FC\def2QZVP\C4H6\BOITTIER\26-Aug-2020\0\\
 #p B2PLYPD3/Def2QZVP\\butadiene\\0,1\C,0,-3.822493,0.24372,0.046182\C,
 0,-2.714616,-0.530412,-0.007592\C,0,-1.396105,0.061027,0.000613\C,0,-0
 .260102,-0.637198,0.038362\H,0,-4.83335,-0.16231,0.141562\H,0,-3.80287
 ,1.317198,-0.019451\H,0,-2.874289,-1.663061,0.068564\H,0,-1.405379,1.1
 36301,-0.086869\H,0,-0.276663,-1.742527,0.133671\H,0,0.6915,-0.171147,
 0.170296\\Version=ES64L-G09RevD.01\State=1-A\HF=-155.6943286\MP2=-155.
 9210418\RMSD=6.208e-09\PG=C01 [X(C4H6)]\\@

 Normal termination of Gaussian 09 at Wed Aug 26 11:28:49 2020.
