 Gaussian 09, Revision D.01,
 Gaussian 09:  ES64L-G09RevD.01 24-Apr-2013

 --------------------
 #p B2PLYPD3/Def2QZVP
 --------------------

 ---------
 butadiene
 ---------
 Symbolic Z-matrix:
 Charge =  0 Multiplicity = 1

                         Standard orientation:
 ---------------------------------------------------------------------
 Center     Atomic      Atomic             Coordinates (Angstroms)
 Number     Number       Type             X           Y           Z
 ---------------------------------------------------------------------
      1          6           0       -1.806459    0.131977    0.005579
      2          6           0       -0.595701   -0.450371   -0.045309
      3          6           0        0.581331    0.355948   -0.056003
      4          6           0        1.790392   -0.089388    0.042084
      5          1           0       -2.681028   -0.458780    0.094087
      6          1           0       -1.850235    1.272049    0.279521
      7          1           0       -0.438201   -1.514868   -0.184913
      8          1           0        0.517572    1.542783   -0.075715
      9          1           0        2.070661   -1.135483    0.337113
     10          1           0        2.563852    0.605305   -0.128196
 ---------------------------------------------------------------------

 SCF Done:  E(RB2PLYPD3) =  -155.676248561     A.U. after   12 cycles
 E2(B2PLYPD3) =    -0.2267248809D+00 E(B2PLYPD3) =    -0.15590297344149D+03

 The electronic state is 1-A.
 Alpha  occ. eigenvalues --  -10.62612 -10.62348 -10.62275 -10.60658  -0.93735
 Alpha  occ. eigenvalues --   -0.85236  -0.69902  -0.62523  -0.54874  -0.53470
 Alpha  occ. eigenvalues --   -0.46299  -0.44379  -0.40954  -0.38326  -0.27665
 Alpha virt. eigenvalues --    0.01689   0.06684   0.07253   0.07811   0.09457
 Alpha virt. eigenvalues --    0.11594   0.12241   0.14953   0.15294   0.16545
 Alpha virt. eigenvalues --    0.18512   0.19091   0.21490   0.22142   0.24263

 Mulliken charges:
               1
     1  C   -0.161540
     2  C   -0.051584
     3  C   -0.001604
     4  C   -0.182471
     5  H    0.085368
     6  H    0.059332
     7  H    0.067341
     8  H    0.036631
     9  H    0.065022
    10  H    0.083504
 Sum of Mulliken charges =   0.00000

 Dipole moment (field-independent basis, Debye):
    X=              0.0569    Y=             -0.1145    Z=              0.2394  Tot=              0.2714
 Quadrupole moment (field-independent basis, Debye-Ang):
   XX=            -24.2424   YY=            -23.1141   ZZ=            -29.0265
   XY=              0.1454   XZ=             -0.3778   YZ=              0.0137

 1\1\GINC-NODE16\SP\RB2PLYPD3-FC\def2QZVP\C4H6\BOITTIER\26-Aug-2020\0\\
 #p B2PLYPD3/Def2QZVP\\butadiene\\0,1\C,0,-3.798487,0.251964,0.034578\C
 ,0,-2.715829,-0.54415,-0.006742\C,0,-1.410557,0.03137,-0.03344\C,0,-0.
 303702,-0.627111,0.071666\H,0,-4.766453,-0.166002,0.134809\H,0,-3.6304
 91,1.385336,0.2875\H,0,-2.757551,-1.621778,-0.126853\H,0,-1.254872,1.2
 09109,-0.074964\H,0,-0.219477,-1.701459,0.385656\H,0,0.583657,-0.08985
 6,-0.112141\\Version=ES64L-G09RevD.01\State=1-A\HF=-155.6762486\MP2=-1
 55.9029734\RMSD=4.076e-09\PG=C01 [X(C4H6)]\\@

 Normal termination of Gaussian 09 at Wed Aug 26 15:21:29 2020.
