 Gaussian 09, Revision D.01,
 Gaussian 09:  ES64L-G09RevD.01 24-Apr-2013

 --------------------
 #p B2PLYPD3/Def2QZVP
 --------------------

 ---------
 butadiene
 ---------
 Symbolic Z-matrix:
 Charge =  0 Multiplicity = 1

                         Standard orientation:
 ---------------------------------------------------------------------
 Center     Atomic      Atomic             Coordinates (Angstroms)
 Number     Number       Type             X           Y           Z
 ---------------------------------------------------------------------
      1          6           0       -1.847527    0.095325   -0.031915
      2          6           0       -0.597392   -0.403256    0.041231
      3          6           0        0.594502    0.425124    0.069880
      4          6           0        1.826621   -0.119914   -0.054577
      5          1           0       -2.709370   -0.544044   -0.058154
      6          1           0       -1.950316    1.194737   -0.065289
      7          1           0       -0.340896   -1.434499   -0.008109
      8          1           0        0.476742    1.485670    0.026594
      9          1           0        1.931008   -1.172309    0.050308
     10          1           0        2.735610    0.486774   -0.093063
 ---------------------------------------------------------------------

 SCF Done:  E(RB2PLYPD3) =  -155.695463115     A.U. after   11 cycles
 E2(B2PLYPD3) =    -0.2265608719D+00 E(B2PLYPD3) =    -0.15592202398682D+03

 The electronic state is 1-A.
 Alpha  occ. eigenvalues --  -10.62513 -10.62453 -10.61905 -10.61688  -0.93052
 Alpha  occ. eigenvalues --   -0.84451  -0.70197  -0.64732  -0.54530  -0.53584
 Alpha  occ. eigenvalues --   -0.46551  -0.45947  -0.41592  -0.37933  -0.27336
 Alpha virt. eigenvalues --    0.01398   0.07054   0.07423   0.08197   0.09171
 Alpha virt. eigenvalues --    0.11773   0.12548   0.14590   0.15805   0.16014
 Alpha virt. eigenvalues --    0.18674   0.20070   0.21525   0.23718   0.23848

 Mulliken charges:
               1
     1  C   -0.181145
     2  C   -0.032008
     3  C   -0.026824
     4  C   -0.179861
     5  H    0.092548
     6  H    0.066408
     7  H    0.055896
     8  H    0.057094
     9  H    0.065715
    10  H    0.082177
 Sum of Mulliken charges =   0.00000

 Dipole moment (field-independent basis, Debye):
    X=              0.0594    Y=             -0.0048    Z=             -0.0534  Tot=              0.0800
 Quadrupole moment (field-independent basis, Debye-Ang):
   XX=            -23.6644   YY=            -23.1223   ZZ=            -29.3357
   XY=             -0.0986   XZ=              0.1254   YZ=             -0.1384

 1\1\GINC-NODE40\SP\RB2PLYPD3-FC\def2QZVP\C4H6\BOITTIER\26-Aug-2020\0\\
 #p B2PLYPD3/Def2QZVP\\butadiene\\0,1\C,0,-3.84811,0.21665,-0.01909\C,0
 ,-2.710493,-0.500084,0.075201\C,0,-1.386721,0.095951,0.079046\C,0,-0.2
 75973,-0.669935,-0.022601\H,0,-4.812741,-0.254193,-0.025997\H,0,-3.747
 474,1.314434,-0.090711\H,0,-2.647787,-1.561963,0.062295\H,0,-1.307967,
 1.157958,-0.001186\H,0,-0.36618,-1.719354,0.11887\H,0,0.728797,-0.2420
 84,-0.079102\\Version=ES64L-G09RevD.01\State=1-A\HF=-155.6954631\MP2=-
 155.922024\RMSD=6.128e-09\PG=C01 [X(C4H6)]\\@

 Normal termination of Gaussian 09 at Wed Aug 26 10:43:14 2020.
