 Gaussian 09, Revision D.01,
 Gaussian 09:  ES64L-G09RevD.01 24-Apr-2013

 --------------------
 #p B2PLYPD3/Def2QZVP
 --------------------

 ---------
 butadiene
 ---------
 Symbolic Z-matrix:
 Charge =  0 Multiplicity = 1

                         Standard orientation:
 ---------------------------------------------------------------------
 Center     Atomic      Atomic             Coordinates (Angstroms)
 Number     Number       Type             X           Y           Z
 ---------------------------------------------------------------------
      1          6           0        1.832425   -0.118193    0.006390
      2          6           0        0.603000    0.419467   -0.030160
      3          6           0       -0.611960   -0.399885   -0.015971
      4          6           0       -1.838205    0.104960    0.019479
      5          1           0        2.718013    0.498780    0.099811
      6          1           0        1.962345   -1.212736    0.033065
      7          1           0        0.519804    1.486378   -0.008502
      8          1           0       -0.429170   -1.462306   -0.058950
      9          1           0       -1.977627    1.179912   -0.013902
     10          1           0       -2.704923   -0.528119    0.070053
 ---------------------------------------------------------------------

 SCF Done:  E(RB2PLYPD3) =  -155.700137510     A.U. after   11 cycles
 E2(B2PLYPD3) =    -0.2256720817D+00 E(B2PLYPD3) =    -0.15592580959127D+03

 The electronic state is 1-A.
 Alpha  occ. eigenvalues --  -10.62489 -10.62418 -10.61762 -10.61312  -0.92923
 Alpha  occ. eigenvalues --   -0.84911  -0.69805  -0.64292  -0.54519  -0.53929
 Alpha  occ. eigenvalues --   -0.46672  -0.45556  -0.41304  -0.37979  -0.27725
 Alpha virt. eigenvalues --    0.01906   0.07033   0.07395   0.08114   0.09417
 Alpha virt. eigenvalues --    0.11717   0.12457   0.14582   0.15801   0.16173
 Alpha virt. eigenvalues --    0.18740   0.20464   0.21456   0.23085   0.23944

 Mulliken charges:
               1
     1  C   -0.175356
     2  C   -0.032968
     3  C   -0.030917
     4  C   -0.176279
     5  H    0.084869
     6  H    0.061077
     7  H    0.057588
     8  H    0.056660
     9  H    0.067325
    10  H    0.088001
 Sum of Mulliken charges =   0.00000

 Dipole moment (field-independent basis, Debye):
    X=              0.0027    Y=              0.0166    Z=              0.0817  Tot=              0.0834
 Quadrupole moment (field-independent basis, Debye-Ang):
   XX=            -23.6321   YY=            -23.0289   ZZ=            -29.2715
   XY=             -0.0382   XZ=              0.2284   YZ=              0.0254

 1\1\GINC-NODE39\SP\RB2PLYPD3-FC\def2QZVP\C4H6\BOITTIER\26-Aug-2020\0\\
 #p B2PLYPD3/Def2QZVP\\butadiene\\0,1\C,0,-3.835239,0.230313,0.029742\C
 ,0,-2.72212,-0.519658,0.009509\C,0,-1.380065,0.068937,-0.001056\C,0,-0
 .263814,-0.646052,0.049685\H,0,-4.816442,-0.215043,0.141756\H,0,-3.767
 001,1.33073,0.023293\H,0,-2.831121,-1.583096,0.063431\H,0,-1.369968,1.
 14516,-0.076156\H,0,-0.319233,-1.729105,0.048839\H,0,0.702483,-0.17719
 2,0.081113\\Version=ES64L-G09RevD.01\State=1-A\HF=-155.7001375\MP2=-15
 5.9258096\RMSD=4.575e-09\PG=C01 [X(C4H6)]\\@

 Normal termination of Gaussian 09 at Wed Aug 26 16:32:32 2020.
