 Gaussian 09, Revision D.01,
 Gaussian 09:  ES64L-G09RevD.01 24-Apr-2013

 --------------------
 #p B2PLYPD3/Def2QZVP
 --------------------

 ---------
 butadiene
 ---------
 Symbolic Z-matrix:
 Charge =  0 Multiplicity = 1

                         Standard orientation:
 ---------------------------------------------------------------------
 Center     Atomic      Atomic             Coordinates (Angstroms)
 Number     Number       Type             X           Y           Z
 ---------------------------------------------------------------------
      1          6           0        1.844720    0.132297    0.027141
      2          6           0        0.624957   -0.424634   -0.021850
      3          6           0       -0.619107    0.378949   -0.028221
      4          6           0       -1.843540   -0.103176    0.031121
      5          1           0        2.721810   -0.502718   -0.078748
      6          1           0        1.967114    1.235421    0.126191
      7          1           0        0.522156   -1.505784   -0.020034
      8          1           0       -0.508672    1.494628   -0.109250
      9          1           0       -2.016637   -1.150313    0.043739
     10          1           0       -2.727952    0.528153   -0.011046
 ---------------------------------------------------------------------

 SCF Done:  E(RB2PLYPD3) =  -155.697149216     A.U. after   11 cycles
 E2(B2PLYPD3) =    -0.2258258337D+00 E(B2PLYPD3) =    -0.15592297504987D+03

 The electronic state is 1-A.
 Alpha  occ. eigenvalues --  -10.62970 -10.62801 -10.62093 -10.61005  -0.92591
 Alpha  occ. eigenvalues --   -0.85114  -0.69551  -0.63605  -0.54418  -0.53780
 Alpha  occ. eigenvalues --   -0.46675  -0.45420  -0.40731  -0.37810  -0.27987
 Alpha virt. eigenvalues --    0.01954   0.06984   0.07341   0.07938   0.09509
 Alpha virt. eigenvalues --    0.11652   0.12346   0.14511   0.15747   0.16184
 Alpha virt. eigenvalues --    0.18873   0.20228   0.21508   0.22610   0.23890

 Mulliken charges:
               1
     1  C   -0.171503
     2  C   -0.046288
     3  C   -0.021270
     4  C   -0.173054
     5  H    0.087684
     6  H    0.069555
     7  H    0.059206
     8  H    0.047652
     9  H    0.063157
    10  H    0.084860
 Sum of Mulliken charges =   0.00000

 Dipole moment (field-independent basis, Debye):
    X=             -0.0037    Y=             -0.0507    Z=             -0.0733  Tot=              0.0892
 Quadrupole moment (field-independent basis, Debye-Ang):
   XX=            -23.5221   YY=            -23.0820   ZZ=            -29.3136
   XY=              0.0317   XZ=             -0.0003   YZ=              0.0551

 1\1\GINC-NODE05\SP\RB2PLYPD3-FC\def2QZVP\C4H6\BOITTIER\26-Aug-2020\0\\
 #p B2PLYPD3/Def2QZVP\\butadiene\\0,1\C,0,-3.844625,0.23592,-0.008601\C
 ,0,-2.739825,-0.522396,0.060439\C,0,-1.375184,0.052885,0.043412\C,0,-0
 .253209,-0.636057,0.001791\H,0,-4.818194,-0.23355,0.115917\H,0,-3.7741
 24,1.339828,-0.143109\H,0,-2.826184,-1.604483,0.093393\H,0,-1.290057,1
 .172805,0.088512\H,0,-0.264477,-1.697208,0.022992\H,0,0.727483,-0.1667
 74,0.025384\\Version=ES64L-G09RevD.01\State=1-A\HF=-155.6971492\MP2=-1
 55.922975\RMSD=7.262e-09\PG=C01 [X(C4H6)]\\@

 Normal termination of Gaussian 09 at Wed Aug 26 09:40:16 2020.
