 Gaussian 09, Revision D.01,
 Gaussian 09:  ES64L-G09RevD.01 24-Apr-2013

 --------------------
 #p B2PLYPD3/Def2QZVP
 --------------------

 ---------
 butadiene
 ---------
 Symbolic Z-matrix:
 Charge =  0 Multiplicity = 1

                         Standard orientation:
 ---------------------------------------------------------------------
 Center     Atomic      Atomic             Coordinates (Angstroms)
 Number     Number       Type             X           Y           Z
 ---------------------------------------------------------------------
      1          6           0       -1.838223    0.120673   -0.029347
      2          6           0       -0.618826   -0.415963    0.024522
      3          6           0        0.612232    0.390923    0.041251
      4          6           0        1.848102   -0.112927   -0.017809
      5          1           0       -2.761948   -0.480708   -0.026334
      6          1           0       -1.938288    1.198523    0.001862
      7          1           0       -0.512759   -1.475591    0.025651
      8          1           0        0.477156    1.466648   -0.014821
      9          1           0        2.027867   -1.163388   -0.042443
     10          1           0        2.688264    0.558288   -0.055618
 ---------------------------------------------------------------------

 SCF Done:  E(RB2PLYPD3) =  -155.700148728     A.U. after   11 cycles
 E2(B2PLYPD3) =    -0.2255530485D+00 E(B2PLYPD3) =    -0.15592570177618D+03

 The electronic state is 1-A.
 Alpha  occ. eigenvalues --  -10.62643 -10.62411 -10.61693 -10.61271  -0.92785
 Alpha  occ. eigenvalues --   -0.85014  -0.69839  -0.64364  -0.54303  -0.54175
 Alpha  occ. eigenvalues --   -0.46661  -0.45785  -0.41151  -0.37921  -0.27814
 Alpha virt. eigenvalues --    0.01879   0.06992   0.07504   0.08065   0.09457
 Alpha virt. eigenvalues --    0.11705   0.12457   0.14634   0.15809   0.16150
 Alpha virt. eigenvalues --    0.18812   0.20342   0.21532   0.22984   0.24056

 Mulliken charges:
               1
     1  C   -0.170938
     2  C   -0.035836
     3  C   -0.031569
     4  C   -0.179328
     5  H    0.084676
     6  H    0.063129
     7  H    0.058768
     8  H    0.054690
     9  H    0.070480
    10  H    0.085928
 Sum of Mulliken charges =   0.00000

 Dipole moment (field-independent basis, Debye):
    X=             -0.0094    Y=             -0.0236    Z=             -0.0550  Tot=              0.0606
 Quadrupole moment (field-independent basis, Debye-Ang):
   XX=            -23.5193   YY=            -23.0513   ZZ=            -29.2778
   XY=             -0.0516   XZ=             -0.2212   YZ=             -0.0256

 1\1\GINC-NODE09\SP\RB2PLYPD3-FC\def2QZVP\C4H6\BOITTIER\26-Aug-2020\0\\
 #p B2PLYPD3/Def2QZVP\\butadiene\\0,1\C,0,-3.840748,0.227439,-0.010658\
 C,0,-2.734241,-0.513071,0.060729\C,0,-1.380549,0.065094,0.05111\C,0,-0
 .252715,-0.649683,0.008558\H,0,-4.855688,-0.201886,0.011984\H,0,-3.749
 811,1.306542,-0.014674\H,0,-2.815884,-1.574259,0.096471\H,0,-1.324952,
 1.14545,-0.040072\H,0,-0.260344,-1.715628,0.018252\H,0,0.692026,-0.138
 085,-0.051144\\Version=ES64L-G09RevD.01\State=1-A\HF=-155.7001487\MP2=
 -155.9257018\RMSD=3.925e-09\PG=C01 [X(C4H6)]\\@

 Normal termination of Gaussian 09 at Wed Aug 26 09:07:01 2020.
