 Gaussian 09, Revision D.01,
 Gaussian 09:  ES64L-G09RevD.01 24-Apr-2013

 --------------------
 #p B2PLYPD3/Def2QZVP
 --------------------

 ---------
 butadiene
 ---------
 Symbolic Z-matrix:
 Charge =  0 Multiplicity = 1

                         Standard orientation:
 ---------------------------------------------------------------------
 Center     Atomic      Atomic             Coordinates (Angstroms)
 Number     Number       Type             X           Y           Z
 ---------------------------------------------------------------------
      1          6           0        1.841497    0.104125   -0.053495
      2          6           0        0.606060   -0.400339    0.021974
      3          6           0       -0.605703    0.374149    0.040299
      4          6           0       -1.848393   -0.103435   -0.027624
      5          1           0        2.773053   -0.477637    0.052912
      6          1           0        2.033188    1.166450   -0.086577
      7          1           0        0.472463   -1.456402    0.134800
      8          1           0       -0.423821    1.443640    0.175086
      9          1           0       -2.135608   -1.159111   -0.084773
     10          1           0       -2.680037    0.636057   -0.078367
 ---------------------------------------------------------------------

 SCF Done:  E(RB2PLYPD3) =  -155.696019324     A.U. after   11 cycles
 E2(B2PLYPD3) =    -0.2260883667D+00 E(B2PLYPD3) =    -0.15592210769100D+03

 The electronic state is 1-A.
 Alpha  occ. eigenvalues --  -10.62566 -10.62331 -10.62139 -10.61834  -0.93152
 Alpha  occ. eigenvalues --   -0.84757  -0.70444  -0.64026  -0.54564  -0.53690
 Alpha  occ. eigenvalues --   -0.47122  -0.45256  -0.40730  -0.37894  -0.27756
 Alpha virt. eigenvalues --    0.01431   0.06931   0.07436   0.07957   0.09787
 Alpha virt. eigenvalues --    0.11527   0.12364   0.14830   0.15640   0.16181
 Alpha virt. eigenvalues --    0.18957   0.20153   0.21644   0.22359   0.23503

 Mulliken charges:
               1
     1  C   -0.168010
     2  C   -0.032030
     3  C   -0.031417
     4  C   -0.176732
     5  H    0.080112
     6  H    0.058568
     7  H    0.058902
     8  H    0.056821
     9  H    0.073557
    10  H    0.080229
 Sum of Mulliken charges =   0.00000

 Dipole moment (field-independent basis, Debye):
    X=              0.0166    Y=             -0.0037    Z=              0.1373  Tot=              0.1384
 Quadrupole moment (field-independent basis, Debye-Ang):
   XX=            -23.3058   YY=            -23.3300   ZZ=            -29.2361
   XY=              0.4797   XZ=              0.4264   YZ=             -0.0495

 1\1\GINC-NODE40\SP\RB2PLYPD3-FC\def2QZVP\C4H6\BOITTIER\26-Aug-2020\0\\
 #p B2PLYPD3/Def2QZVP\\butadiene\\0,1\C,0,-3.843478,0.229541,0.062817\C
 ,0,-2.721759,-0.495111,0.007051\C,0,-1.388307,0.04284,-0.025352\C,0,-0
 .254557,-0.652888,0.061553\H,0,-4.866047,-0.173848,-0.033082\H,0,-3.83
 6702,1.3095,0.066953\H,0,-2.784469,-1.560384,-0.077266\H,0,-1.370527,1
 .123539,-0.189163\H,0,-0.166239,-1.741441,0.147936\H,0,0.6988,-0.07765
 ,0.097141\\Version=ES64L-G09RevD.01\State=1-A\HF=-155.6960193\MP2=-155
 .9221077\RMSD=3.784e-09\PG=C01 [X(C4H6)]\\@

 Normal termination of Gaussian 09 at Wed Aug 26 08:55:06 2020.
