 Gaussian 09, Revision D.01,
 Gaussian 09:  ES64L-G09RevD.01 24-Apr-2013

 --------------------
 #p B2PLYPD3/Def2QZVP
 --------------------

 ---------
 butadiene
 ---------
 Symbolic Z-matrix:
 Charge =  0 Multiplicity = 1

                         Standard orientation:
 ---------------------------------------------------------------------
 Center     Atomic      Atomic             Coordinates (Angstroms)
 Number     Number       Type             X           Y           Z
 ---------------------------------------------------------------------
      1          6           0       -1.859313    0.166615    0.054866
      2          6           0       -0.630136   -0.437433   -0.030278
      3          6           0        0.614701    0.336578   -0.096568
      4          6           0        1.848228   -0.103619    0.092588
      5          1           0       -2.707406   -0.517221   -0.104117
      6          1           0       -1.920202    1.207573    0.272653
      7          1           0       -0.548588   -1.466430   -0.190093
      8          1           0        0.600363    1.441504   -0.158418
      9          1           0        2.147006   -1.123470    0.195632
     10          1           0        2.587950    0.685195   -0.139306
 ---------------------------------------------------------------------

 SCF Done:  E(RB2PLYPD3) =  -155.684401474     A.U. after   12 cycles
 E2(B2PLYPD3) =    -0.2268537144D+00 E(B2PLYPD3) =    -0.15591125518859D+03

 The electronic state is 1-A.
 Alpha  occ. eigenvalues --  -10.62733 -10.62415 -10.62234 -10.61196  -0.92602
 Alpha  occ. eigenvalues --   -0.85011  -0.69898  -0.64023  -0.55284  -0.52740
 Alpha  occ. eigenvalues --   -0.47028  -0.45454  -0.41029  -0.37178  -0.27656
 Alpha virt. eigenvalues --    0.01205   0.06881   0.07619   0.07783   0.09504
 Alpha virt. eigenvalues --    0.11634   0.12102   0.14924   0.15406   0.16186
 Alpha virt. eigenvalues --    0.18934   0.19402   0.20926   0.21927   0.24789

 Mulliken charges:
               1
     1  C   -0.187329
     2  C   -0.053205
     3  C   -0.025905
     4  C   -0.165593
     5  H    0.087411
     6  H    0.087048
     7  H    0.072349
     8  H    0.047308
     9  H    0.067847
    10  H    0.070069
 Sum of Mulliken charges =   0.00000

 Dipole moment (field-independent basis, Debye):
    X=             -0.0447    Y=             -0.0625    Z=             -0.1590  Tot=              0.1766
 Quadrupole moment (field-independent basis, Debye-Ang):
   XX=            -24.3277   YY=            -22.8362   ZZ=            -29.2001
   XY=             -0.0412   XZ=             -0.1037   YZ=              0.2000

 1\1\GINC-NODE33\SP\RB2PLYPD3-FC\def2QZVP\C4H6\BOITTIER\26-Aug-2020\0\\
 #p B2PLYPD3/Def2QZVP\\butadiene\\0,1\C,0,-3.851878,0.269087,0.073502\C
 ,0,-2.743537,-0.536063,-0.005953\C,0,-1.385177,0.014178,-0.07806\C,0,-
 0.244409,-0.627976,0.115409\H,0,-4.80414,-0.261706,-0.080203\H,0,-3.73
 4491,1.306994,0.282552\H,0,-2.838478,-1.565218,-0.157122\H,0,-1.211284
 ,1.104866,-0.149148\H,0,-0.123495,-1.682908,0.227126\H,0,0.618577,0.02
 1454,-0.122683\\Version=ES64L-G09RevD.01\State=1-A\HF=-155.6844015\MP2
 =-155.9112552\RMSD=2.656e-09\PG=C01 [X(C4H6)]\\@

 Normal termination of Gaussian 09 at Wed Aug 26 14:49:50 2020.
