 Gaussian 09, Revision D.01,
 Gaussian 09:  ES64L-G09RevD.01 24-Apr-2013

 --------------------
 #p B2PLYPD3/Def2QZVP
 --------------------

 ---------
 butadiene
 ---------
 Symbolic Z-matrix:
 Charge =  0 Multiplicity = 1

                         Standard orientation:
 ---------------------------------------------------------------------
 Center     Atomic      Atomic             Coordinates (Angstroms)
 Number     Number       Type             X           Y           Z
 ---------------------------------------------------------------------
      1          6           0       -1.844626   -0.128397    0.049347
      2          6           0       -0.621137    0.432562   -0.054614
      3          6           0        0.592063   -0.383974   -0.045994
      4          6           0        1.851508    0.104813    0.026740
      5          1           0       -2.741393    0.465150    0.106451
      6          1           0       -1.962895   -1.205900   -0.036388
      7          1           0       -0.470032    1.524283   -0.059783
      8          1           0        0.508364   -1.478288   -0.031323
      9          1           0        2.085622    1.133009    0.062358
     10          1           0        2.713488   -0.588278    0.105811
 ---------------------------------------------------------------------

 SCF Done:  E(RB2PLYPD3) =  -155.696858638     A.U. after   11 cycles
 E2(B2PLYPD3) =    -0.2266896687D+00 E(B2PLYPD3) =    -0.15592354830641D+03

 The electronic state is 1-A.
 Alpha  occ. eigenvalues --  -10.63272 -10.62968 -10.61906 -10.61642  -0.92513
 Alpha  occ. eigenvalues --   -0.84491  -0.70084  -0.64002  -0.54417  -0.53644
 Alpha  occ. eigenvalues --   -0.46221  -0.45709  -0.41342  -0.37769  -0.27410
 Alpha virt. eigenvalues --    0.01434   0.06963   0.07398   0.07967   0.09253
 Alpha virt. eigenvalues --    0.11620   0.12433   0.14664   0.15973   0.16068
 Alpha virt. eigenvalues --    0.18832   0.20355   0.21521   0.22623   0.24117

 Mulliken charges:
               1
     1  C   -0.169614
     2  C   -0.043063
     3  C   -0.023833
     4  C   -0.180460
     5  H    0.085646
     6  H    0.070162
     7  H    0.059578
     8  H    0.054531
     9  H    0.068481
    10  H    0.078570
 Sum of Mulliken charges =   0.00000

 Dipole moment (field-independent basis, Debye):
    X=             -0.0562    Y=              0.0286    Z=              0.0618  Tot=              0.0883
 Quadrupole moment (field-independent basis, Debye-Ang):
   XX=            -23.5406   YY=            -23.0288   ZZ=            -29.4278
   XY=              0.2072   XZ=              0.2068   YZ=              0.0773

 1\1\GINC-NODE22\SP\RB2PLYPD3-FC\def2QZVP\C4H6\BOITTIER\26-Aug-2020\0\\
 #p B2PLYPD3/Def2QZVP\\butadiene\\0,1\C,0,-3.841377,0.240821,-0.030436\
 C,0,-2.736905,-0.526103,0.089465\C,0,-1.397665,0.060429,0.056691\C,0,-
 0.24592,-0.646979,-0.002143\H,0,-4.829873,-0.184695,-0.069951\H,0,-3.7
 65237,1.32415,0.023895\H,0,-2.782771,-1.62667,0.126403\H,0,-1.285064,1
 .151254,0.010158\H,0,-0.199008,-1.701034,-0.00785\H,0,0.725341,-0.1212
 51,-0.101636\\Version=ES64L-G09RevD.01\State=1-A\HF=-155.6968586\MP2=-
 155.9235483\RMSD=5.774e-09\PG=C01 [X(C4H6)]\\@

 Normal termination of Gaussian 09 at Wed Aug 26 09:33:19 2020.
