 Gaussian 09, Revision D.01,
 Gaussian 09:  ES64L-G09RevD.01 24-Apr-2013

 --------------------
 #p B2PLYPD3/Def2QZVP
 --------------------

 ---------
 butadiene
 ---------
 Symbolic Z-matrix:
 Charge =  0 Multiplicity = 1

                         Standard orientation:
 ---------------------------------------------------------------------
 Center     Atomic      Atomic             Coordinates (Angstroms)
 Number     Number       Type             X           Y           Z
 ---------------------------------------------------------------------
      1          6           0        1.854408    0.113129    0.000813
      2          6           0        0.627396   -0.411181   -0.037087
      3          6           0       -0.603900    0.391754   -0.003695
      4          6           0       -1.858710   -0.108120    0.016533
      5          1           0        2.729427   -0.506682    0.008256
      6          1           0        1.965538    1.195307    0.167454
      7          1           0        0.398106   -1.470109   -0.007380
      8          1           0       -0.469330    1.463766   -0.089677
      9          1           0       -2.003679   -1.122257    0.109673
     10          1           0       -2.735225    0.526485   -0.047705
 ---------------------------------------------------------------------

 SCF Done:  E(RB2PLYPD3) =  -155.695689542     A.U. after   11 cycles
 E2(B2PLYPD3) =    -0.2259945313D+00 E(B2PLYPD3) =    -0.15592168407280D+03

 The electronic state is 1-A.
 Alpha  occ. eigenvalues --  -10.62798 -10.62686 -10.61842 -10.61207  -0.92695
 Alpha  occ. eigenvalues --   -0.84880  -0.70458  -0.64257  -0.54704  -0.53761
 Alpha  occ. eigenvalues --   -0.47082  -0.46116  -0.40903  -0.37745  -0.27672
 Alpha virt. eigenvalues --    0.01485   0.07015   0.07461   0.08160   0.09359
 Alpha virt. eigenvalues --    0.11709   0.12503   0.14749   0.15639   0.16173
 Alpha virt. eigenvalues --    0.18818   0.20247   0.21718   0.23016   0.23758

 Mulliken charges:
               1
     1  C   -0.169960
     2  C   -0.040614
     3  C   -0.021853
     4  C   -0.187523
     5  H    0.090007
     6  H    0.067883
     7  H    0.054247
     8  H    0.052651
     9  H    0.067345
    10  H    0.087817
 Sum of Mulliken charges =   0.00000

 Dipole moment (field-independent basis, Debye):
    X=              0.0029    Y=             -0.0413    Z=              0.1124  Tot=              0.1198
 Quadrupole moment (field-independent basis, Debye-Ang):
   XX=            -23.3681   YY=            -23.2573   ZZ=            -29.2593
   XY=              0.1835   XZ=              0.3490   YZ=             -0.0715

 1\1\GINC-NODE31\SP\RB2PLYPD3-FC\def2QZVP\C4H6\BOITTIER\26-Aug-2020\0\\
 #p B2PLYPD3/Def2QZVP\\butadiene\\0,1\C,0,-3.853594,0.229468,0.010906\C
 ,0,-2.74033,-0.504957,0.067126\C,0,-1.385135,0.063415,0.019094\C,0,-0.
 240158,-0.653421,0.016717\H,0,-4.825482,-0.223627,0.0151\H,0,-3.769124
 ,1.309499,-0.18307\H,0,-2.704427,-1.588234,0.064748\H,0,-1.325495,1.14
 402,0.077812\H,0,-0.279202,-1.679148,-0.050552\H,0,0.735864,-0.184611,
 0.068938\\Version=ES64L-G09RevD.01\State=1-A\HF=-155.6956895\MP2=-155.
 9216841\RMSD=5.654e-09\PG=C01 [X(C4H6)]\\@

 Normal termination of Gaussian 09 at Wed Aug 26 09:03:20 2020.
