 Gaussian 09, Revision D.01,
 Gaussian 09:  ES64L-G09RevD.01 24-Apr-2013

 --------------------
 #p B2PLYPD3/Def2QZVP
 --------------------

 ---------
 butadiene
 ---------
 Symbolic Z-matrix:
 Charge =  0 Multiplicity = 1

                         Standard orientation:
 ---------------------------------------------------------------------
 Center     Atomic      Atomic             Coordinates (Angstroms)
 Number     Number       Type             X           Y           Z
 ---------------------------------------------------------------------
      1          6           0       -1.849188    0.094402    0.025949
      2          6           0       -0.594633   -0.377621   -0.049675
      3          6           0        0.615972    0.405641   -0.022458
      4          6           0        1.841913   -0.111772    0.012747
      5          1           0       -2.687015   -0.567863    0.181698
      6          1           0       -2.139995    1.152553   -0.032427
      7          1           0       -0.435594   -1.430105   -0.093671
      8          1           0        0.469836    1.439013   -0.034811
      9          1           0        1.974746   -1.153156    0.058520
     10          1           0        2.733639    0.495653    0.121313
 ---------------------------------------------------------------------

 SCF Done:  E(RB2PLYPD3) =  -155.696713749     A.U. after   11 cycles
 E2(B2PLYPD3) =    -0.2254414504D+00 E(B2PLYPD3) =    -0.15592215519933D+03

 The electronic state is 1-A.
 Alpha  occ. eigenvalues --  -10.62379 -10.61924 -10.61842 -10.61215  -0.93254
 Alpha  occ. eigenvalues --   -0.84914  -0.70786  -0.64815  -0.54982  -0.53879
 Alpha  occ. eigenvalues --   -0.47206  -0.45885  -0.41294  -0.37975  -0.27556
 Alpha virt. eigenvalues --    0.01441   0.06956   0.07585   0.08214   0.09680
 Alpha virt. eigenvalues --    0.11653   0.12524   0.14860   0.15913   0.16097
 Alpha virt. eigenvalues --    0.18931   0.20590   0.21789   0.22695   0.23658

 Mulliken charges:
               1
     1  C   -0.177999
     2  C   -0.035414
     3  C   -0.029858
     4  C   -0.172929
     5  H    0.081550
     6  H    0.065919
     7  H    0.058234
     8  H    0.062046
     9  H    0.064986
    10  H    0.083464
 Sum of Mulliken charges =   0.00000

 Dipole moment (field-independent basis, Debye):
    X=              0.0117    Y=              0.0089    Z=              0.1317  Tot=              0.1325
 Quadrupole moment (field-independent basis, Debye-Ang):
   XX=            -23.2669   YY=            -23.2674   ZZ=            -29.1126
   XY=             -0.3384   XZ=              0.0359   YZ=             -0.1094

 1\1\GINC-NODE30\SP\RB2PLYPD3-FC\def2QZVP\C4H6\BOITTIER\26-Aug-2020\0\\
 #p B2PLYPD3/Def2QZVP\\butadiene\\0,1\C,0,-3.854238,0.217584,0.046385\C
 ,0,-2.708045,-0.479338,-0.008131\C,0,-1.374096,0.068736,-0.008069\C,0,
 -0.263842,-0.663294,0.049833\H,0,-4.798674,-0.273132,0.225403\H,0,-3.9
 46095,1.308139,-0.053169\H,0,-2.745156,-1.544028,-0.011402\H,0,-1.3280
 75,1.110137,-0.060343\H,0,-0.324253,-1.708849,0.135778\H,0,0.724751,-0
 .226277,0.137164\\Version=ES64L-G09RevD.01\State=1-A\HF=-155.6967137\M
 P2=-155.9221552\RMSD=3.464e-09\PG=C01 [X(C4H6)]\\@

 Normal termination of Gaussian 09 at Wed Aug 26 10:06:39 2020.
