 Gaussian 09, Revision D.01,
 Gaussian 09:  ES64L-G09RevD.01 24-Apr-2013

 --------------------
 #p B2PLYPD3/Def2QZVP
 --------------------

 ---------
 butadiene
 ---------
 Symbolic Z-matrix:
 Charge =  0 Multiplicity = 1

                         Standard orientation:
 ---------------------------------------------------------------------
 Center     Atomic      Atomic             Coordinates (Angstroms)
 Number     Number       Type             X           Y           Z
 ---------------------------------------------------------------------
      1          6           0        1.826448    0.097544   -0.043356
      2          6           0        0.606674   -0.384552    0.035382
      3          6           0       -0.598891    0.425285    0.025675
      4          6           0       -1.808281   -0.129069   -0.018424
      5          1           0        2.646846   -0.562584    0.025315
      6          1           0        1.984935    1.180538   -0.108463
      7          1           0        0.415206   -1.446841    0.108278
      8          1           0       -0.567534    1.510668    0.168396
      9          1           0       -1.949974   -1.246605   -0.095772
     10          1           0       -2.685176    0.509579   -0.093418
 ---------------------------------------------------------------------

 SCF Done:  E(RB2PLYPD3) =  -155.696482645     A.U. after   11 cycles
 E2(B2PLYPD3) =    -0.2255298712D+00 E(B2PLYPD3) =    -0.15592201251594D+03

 The electronic state is 1-A.
 Alpha  occ. eigenvalues --  -10.62373 -10.62045 -10.61847 -10.60911  -0.93299
 Alpha  occ. eigenvalues --   -0.85209  -0.69651  -0.63721  -0.54568  -0.54001
 Alpha  occ. eigenvalues --   -0.46424  -0.45287  -0.41224  -0.38123  -0.27901
 Alpha virt. eigenvalues --    0.02148   0.07104   0.07257   0.07989   0.09572
 Alpha virt. eigenvalues --    0.11744   0.12276   0.14657   0.15564   0.16260
 Alpha virt. eigenvalues --    0.18633   0.19835   0.21734   0.22716   0.24207

 Mulliken charges:
               1
     1  C   -0.176592
     2  C   -0.029652
     3  C   -0.030794
     4  C   -0.175404
     5  H    0.088726
     6  H    0.067978
     7  H    0.054641
     8  H    0.058424
     9  H    0.060483
    10  H    0.082191
 Sum of Mulliken charges =   0.00000

 Dipole moment (field-independent basis, Debye):
    X=             -0.0317    Y=              0.0149    Z=              0.0460  Tot=              0.0578
 Quadrupole moment (field-independent basis, Debye-Ang):
   XX=            -23.9226   YY=            -22.9489   ZZ=            -29.1666
   XY=             -0.0389   XZ=              0.2729   YZ=             -0.0049

 1\1\GINC-NODE09\SP\RB2PLYPD3-FC\def2QZVP\C4H6\BOITTIER\26-Aug-2020\0\\
 #p B2PLYPD3/Def2QZVP\\butadiene\\0,1\C,0,-3.828557,0.209482,0.056983\C
 ,0,-2.715483,-0.486392,-0.000375\C,0,-1.383989,0.093475,-0.014252\C,0,
 -0.293803,-0.667292,0.053623\H,0,-4.754402,-0.294469,0.008184\H,0,-3.7
 89673,1.304927,0.08385\H,0,-2.718222,-1.567679,-0.035621\H,0,-1.220142
 ,1.161186,-0.194689\H,0,-0.355054,-1.788715,0.170259\H,0,0.683775,-0.1
 94389,0.109699\\Version=ES64L-G09RevD.01\State=1-A\HF=-155.6964826\MP2
 =-155.9220125\RMSD=4.768e-09\PG=C01 [X(C4H6)]\\@

 Normal termination of Gaussian 09 at Wed Aug 26 09:12:35 2020.
