 Gaussian 09, Revision D.01,
 Gaussian 09:  ES64L-G09RevD.01 24-Apr-2013

 --------------------
 #p B2PLYPD3/Def2QZVP
 --------------------

 ---------
 butadiene
 ---------
 Symbolic Z-matrix:
 Charge =  0 Multiplicity = 1

                         Standard orientation:
 ---------------------------------------------------------------------
 Center     Atomic      Atomic             Coordinates (Angstroms)
 Number     Number       Type             X           Y           Z
 ---------------------------------------------------------------------
      1          6           0        1.850946    0.102186    0.064229
      2          6           0        0.630029   -0.419745   -0.113808
      3          6           0       -0.608739    0.417361   -0.048441
      4          6           0       -1.866995   -0.127416    0.095132
      5          1           0        2.838375   -0.445125    0.020571
      6          1           0        1.991273    1.208789    0.222603
      7          1           0        0.509830   -1.498590   -0.048455
      8          1           0       -0.481840    1.455070   -0.191417
      9          1           0       -2.137614   -1.067214    0.122266
     10          1           0       -2.751467    0.512750   -0.108242
 ---------------------------------------------------------------------

 SCF Done:  E(RB2PLYPD3) =  -155.676159946     A.U. after   12 cycles
 E2(B2PLYPD3) =    -0.2273156609D+00 E(B2PLYPD3) =    -0.15590347560705D+03

 The electronic state is 1-A.
 Alpha  occ. eigenvalues --  -10.63607 -10.63195 -10.62833 -10.61301  -0.92050
 Alpha  occ. eigenvalues --   -0.84372  -0.70509  -0.64759  -0.54468  -0.53227
 Alpha  occ. eigenvalues --   -0.47467  -0.45121  -0.40793  -0.36985  -0.27584
 Alpha virt. eigenvalues --    0.01035   0.06854   0.07496   0.07986   0.08800
 Alpha virt. eigenvalues --    0.11516   0.12611   0.14511   0.15399   0.16555
 Alpha virt. eigenvalues --    0.19170   0.19923   0.21488   0.22848   0.23179

 Mulliken charges:
               1
     1  C   -0.153638
     2  C   -0.047452
     3  C   -0.045990
     4  C   -0.172014
     5  H    0.081383
     6  H    0.053539
     7  H    0.068856
     8  H    0.078003
     9  H    0.074269
    10  H    0.063044
 Sum of Mulliken charges =   0.00000

 Dipole moment (field-independent basis, Debye):
    X=              0.1081    Y=             -0.0597    Z=             -0.0932  Tot=              0.1547
 Quadrupole moment (field-independent basis, Debye-Ang):
   XX=            -23.2252   YY=            -23.3165   ZZ=            -29.3881
   XY=              0.5748   XZ=              0.6542   YZ=             -0.2185

 1\1\GINC-NODE38\SP\RB2PLYPD3-FC\def2QZVP\C4H6\BOITTIER\26-Aug-2020\0\\
 #p B2PLYPD3/Def2QZVP\\butadiene\\0,1\C,0,-3.854539,0.213803,-0.053033\
 C,0,-2.745479,-0.511538,0.143476\C,0,-1.378185,0.092266,0.069362\C,0,-
 0.235479,-0.668897,-0.054962\H,0,-4.923213,-0.149629,-0.004819\H,0,-3.
 796813,1.32423,-0.234592\H,0,-2.81747,-1.595793,0.100666\H,0,-1.320277
 ,1.138852,0.190562\H,0,-0.134972,-1.642061,-0.061378\H,0,0.747539,-0.1
 90734,0.141255\\Version=ES64L-G09RevD.01\State=1-A\HF=-155.6761599\MP2
 =-155.9034756\RMSD=4.695e-09\PG=C01 [X(C4H6)]\\@

 Normal termination of Gaussian 09 at Wed Aug 26 11:37:25 2020.
