 Gaussian 09, Revision D.01,
 Gaussian 09:  ES64L-G09RevD.01 24-Apr-2013

 --------------------
 #p B2PLYPD3/Def2QZVP
 --------------------

 ---------
 butadiene
 ---------
 Symbolic Z-matrix:
 Charge =  0 Multiplicity = 1

                         Standard orientation:
 ---------------------------------------------------------------------
 Center     Atomic      Atomic             Coordinates (Angstroms)
 Number     Number       Type             X           Y           Z
 ---------------------------------------------------------------------
      1          6           0        1.855085    0.097098    0.008230
      2          6           0        0.614336   -0.392660   -0.018816
      3          6           0       -0.614370    0.415126   -0.012181
      4          6           0       -1.838584   -0.120039    0.013736
      5          1           0        2.707016   -0.544052    0.034080
      6          1           0        2.029721    1.184844    0.079993
      7          1           0        0.432244   -1.452185   -0.082204
      8          1           0       -0.518659    1.515617   -0.062644
      9          1           0       -2.010780   -1.190732    0.089957
     10          1           0       -2.738345    0.489356   -0.004996
 ---------------------------------------------------------------------

 SCF Done:  E(RB2PLYPD3) =  -155.699950414     A.U. after   11 cycles
 E2(B2PLYPD3) =    -0.2258224173D+00 E(B2PLYPD3) =    -0.15592577283146D+03

 The electronic state is 1-A.
 Alpha  occ. eigenvalues --  -10.62925 -10.62620 -10.61687 -10.61606  -0.92676
 Alpha  occ. eigenvalues --   -0.84894  -0.70016  -0.63856  -0.54712  -0.53567
 Alpha  occ. eigenvalues --   -0.46938  -0.45422  -0.40855  -0.37912  -0.27836
 Alpha virt. eigenvalues --    0.01796   0.07020   0.07363   0.08056   0.09482
 Alpha virt. eigenvalues --    0.11621   0.12398   0.14619   0.15849   0.16125
 Alpha virt. eigenvalues --    0.18862   0.20484   0.21522   0.22854   0.23569

 Mulliken charges:
               1
     1  C   -0.173754
     2  C   -0.035847
     3  C   -0.030258
     4  C   -0.173532
     5  H    0.089208
     6  H    0.065281
     7  H    0.057596
     8  H    0.054008
     9  H    0.063659
    10  H    0.083638
 Sum of Mulliken charges =   0.00000

 Dipole moment (field-independent basis, Debye):
    X=             -0.0401    Y=             -0.0243    Z=              0.0353  Tot=              0.0587
 Quadrupole moment (field-independent basis, Debye-Ang):
   XX=            -23.3747   YY=            -23.1446   ZZ=            -29.3151
   XY=              0.1752   XZ=              0.1029   YZ=             -0.0194

 1\1\GINC-NODE21\SP\RB2PLYPD3-FC\def2QZVP\C4H6\BOITTIER\26-Aug-2020\0\\
 #p B2PLYPD3/Def2QZVP\\butadiene\\0,1\C,0,-3.857981,0.212528,0.008451\C
 ,0,-2.724977,-0.49064,0.052177\C,0,-1.37146,0.083485,0.026623\C,0,-0.2
 62982,-0.662829,0.018607\H,0,-4.811043,-0.266105,-0.002047\H,0,-3.8351
 01,1.311576,-0.09357\H,0,-2.735486,-1.5635,0.145072\H,0,-1.268364,1.18
 4284,0.046639\H,0,-0.285552,-1.748732,-0.027773\H,0,0.731432,-0.224189
 ,0.022986\\Version=ES64L-G09RevD.01\State=1-A\HF=-155.6999504\MP2=-155
 .9257728\RMSD=2.685e-09\PG=C01 [X(C4H6)]\\@

 Normal termination of Gaussian 09 at Wed Aug 26 21:18:13 2020.
