 Gaussian 09, Revision D.01,
 Gaussian 09:  ES64L-G09RevD.01 24-Apr-2013

 --------------------
 #p B2PLYPD3/Def2QZVP
 --------------------

 ---------
 butadiene
 ---------
 Symbolic Z-matrix:
 Charge =  0 Multiplicity = 1

                         Standard orientation:
 ---------------------------------------------------------------------
 Center     Atomic      Atomic             Coordinates (Angstroms)
 Number     Number       Type             X           Y           Z
 ---------------------------------------------------------------------
      1          6           0       -1.858404    0.057777   -0.066831
      2          6           0       -0.611009   -0.360688    0.096754
      3          6           0        0.625053    0.438097    0.015476
      4          6           0        1.860246   -0.146108   -0.017895
      5          1           0       -2.761080   -0.541326   -0.019715
      6          1           0       -2.048311    1.141125    0.081674
      7          1           0       -0.366411   -1.417468   -0.123686
      8          1           0        0.370809    1.553959   -0.043321
      9          1           0        1.985377   -1.196584    0.002407
     10          1           0        2.724296    0.525829   -0.062387
 ---------------------------------------------------------------------

 SCF Done:  E(RB2PLYPD3) =  -155.682498073     A.U. after   11 cycles
 E2(B2PLYPD3) =    -0.2277905852D+00 E(B2PLYPD3) =    -0.15591028865808D+03

 The electronic state is 1-A.
 Alpha  occ. eigenvalues --  -10.64071 -10.62721 -10.62392 -10.61918  -0.92551
 Alpha  occ. eigenvalues --   -0.84679  -0.70357  -0.63205  -0.54617  -0.53162
 Alpha  occ. eigenvalues --   -0.47192  -0.45337  -0.39882  -0.37554  -0.27904
 Alpha virt. eigenvalues --    0.01091   0.07045   0.07198   0.08075   0.08869
 Alpha virt. eigenvalues --    0.11656   0.12360   0.14605   0.15114   0.16049
 Alpha virt. eigenvalues --    0.18695   0.19201   0.22160   0.23274   0.23675

 Mulliken charges:
               1
     1  C   -0.165548
     2  C   -0.017980
     3  C   -0.038895
     4  C   -0.181686
     5  H    0.086668
     6  H    0.047821
     7  H    0.048432
     8  H    0.048660
     9  H    0.080864
    10  H    0.091667
 Sum of Mulliken charges =   0.00000

 Dipole moment (field-independent basis, Debye):
    X=              0.0131    Y=             -0.0171    Z=             -0.0582  Tot=              0.0621
 Quadrupole moment (field-independent basis, Debye-Ang):
   XX=            -23.2597   YY=            -23.5644   ZZ=            -29.4214
   XY=             -0.4137   XZ=             -0.2148   YZ=              0.1926

 1\1\GINC-NODE03\SP\RB2PLYPD3-FC\def2QZVP\C4H6\BOITTIER\26-Aug-2020\0\\
 #p B2PLYPD3/Def2QZVP\\butadiene\\0,1\C,0,-3.870349,0.184899,-0.044887\
 C,0,-2.720806,-0.454596,0.120834\C,0,-1.359148,0.102836,0.033263\C,0,-
 0.252428,-0.698649,0.00319\H,0,-4.867667,-0.237761,0.006934\H,0,-3.857
 638,1.285667,0.096217\H,0,-2.67501,-1.539783,-0.092422\H,0,-1.40409,1.
 245998,-0.033116\H,0,-0.322454,-1.754068,0.0307\H,0,0.720311,-0.197281
 ,-0.046489\\Version=ES64L-G09RevD.01\State=1-A\HF=-155.6824981\MP2=-15
 5.9102887\RMSD=8.510e-09\PG=C01 [X(C4H6)]\\@

 Normal termination of Gaussian 09 at Wed Aug 26 11:33:55 2020.
