 Gaussian 09, Revision D.01,
 Gaussian 09:  ES64L-G09RevD.01 24-Apr-2013

 --------------------
 #p B2PLYPD3/Def2QZVP
 --------------------

 ---------
 butadiene
 ---------
 Symbolic Z-matrix:
 Charge =  0 Multiplicity = 1

                         Standard orientation:
 ---------------------------------------------------------------------
 Center     Atomic      Atomic             Coordinates (Angstroms)
 Number     Number       Type             X           Y           Z
 ---------------------------------------------------------------------
      1          6           0       -1.830772   -0.143635    0.066842
      2          6           0       -0.638833    0.465386   -0.056325
      3          6           0        0.590422   -0.403752   -0.078033
      4          6           0        1.827809    0.111749    0.016076
      5          1           0       -2.741780    0.461871    0.029187
      6          1           0       -1.846223   -1.259079    0.004249
      7          1           0       -0.371406    1.524475    0.005344
      8          1           0        0.528363   -1.462009   -0.014938
      9          1           0        2.013605    1.158410    0.084313
     10          1           0        2.725689   -0.602152    0.200481
 ---------------------------------------------------------------------

 SCF Done:  E(RB2PLYPD3) =  -155.685187863     A.U. after   11 cycles
 E2(B2PLYPD3) =    -0.2272470603D+00 E(B2PLYPD3) =    -0.15591243492291D+03

 The electronic state is 1-A.
 Alpha  occ. eigenvalues --  -10.63484 -10.62518 -10.62375 -10.61969  -0.92380
 Alpha  occ. eigenvalues --   -0.84464  -0.68733  -0.64539  -0.54111  -0.52744
 Alpha  occ. eigenvalues --   -0.46440  -0.45565  -0.40530  -0.37552  -0.27761
 Alpha virt. eigenvalues --    0.01959   0.06913   0.07219   0.08008   0.08629
 Alpha virt. eigenvalues --    0.11825   0.12318   0.14357   0.15558   0.15956
 Alpha virt. eigenvalues --    0.18635   0.19851   0.21292   0.22669   0.24750

 Mulliken charges:
               1
     1  C   -0.162448
     2  C   -0.052243
     3  C   -0.026401
     4  C   -0.177471
     5  H    0.085941
     6  H    0.071033
     7  H    0.065710
     8  H    0.062166
     9  H    0.064691
    10  H    0.069023
 Sum of Mulliken charges =   0.00000

 Dipole moment (field-independent basis, Debye):
    X=             -0.0538    Y=              0.0396    Z=              0.1806  Tot=              0.1926
 Quadrupole moment (field-independent basis, Debye-Ang):
   XX=            -24.3418   YY=            -22.8189   ZZ=            -29.4921
   XY=              0.1552   XZ=              0.6860   YZ=             -0.0120

 1\1\GINC-NODE39\SP\RB2PLYPD3-FC\def2QZVP\C4H6\BOITTIER\26-Aug-2020\0\\
 #p B2PLYPD3/Def2QZVP\\butadiene\\0,1\C,0,-3.823109,0.248185,-0.044881\
 C,0,-2.755511,-0.556728,0.093477\C,0,-1.392529,0.082848,0.080716\C,0,-
 0.265969,-0.645054,-0.00141\H,0,-4.825893,-0.186081,0.016994\H,0,-3.64
 1724,1.350381,-0.019654\H,0,-2.678942,-1.647775,0.066194\H,0,-1.268348
 ,1.132925,-0.017554\H,0,-0.26764,-1.709725,-0.035321\H,0,0.741444,-0.1
 06563,-0.213528\\Version=ES64L-G09RevD.01\State=1-A\HF=-155.6851879\MP
 2=-155.9124349\RMSD=7.208e-09\PG=C01 [X(C4H6)]\\@

 Normal termination of Gaussian 09 at Wed Aug 26 14:13:35 2020.
