 Gaussian 09, Revision D.01,
 Gaussian 09:  ES64L-G09RevD.01 24-Apr-2013

 --------------------
 #p B2PLYPD3/Def2QZVP
 --------------------

 ---------
 butadiene
 ---------
 Symbolic Z-matrix:
 Charge =  0 Multiplicity = 1

                         Standard orientation:
 ---------------------------------------------------------------------
 Center     Atomic      Atomic             Coordinates (Angstroms)
 Number     Number       Type             X           Y           Z
 ---------------------------------------------------------------------
      1          6           0        1.830185    0.112361    0.018301
      2          6           0        0.608495   -0.412957   -0.039140
      3          6           0       -0.593556    0.389401   -0.020336
      4          6           0       -1.840671   -0.104196    0.010189
      5          1           0        2.745313   -0.485539    0.076493
      6          1           0        1.901908    1.214217    0.020492
      7          1           0        0.489695   -1.461938    0.005217
      8          1           0       -0.460182    1.464849   -0.029258
      9          1           0       -2.012195   -1.173465    0.031062
     10          1           0       -2.691256    0.534220    0.081912
 ---------------------------------------------------------------------

 SCF Done:  E(RB2PLYPD3) =  -155.699620708     A.U. after   11 cycles
 E2(B2PLYPD3) =    -0.2257608254D+00 E(B2PLYPD3) =    -0.15592538153363D+03

 The electronic state is 1-A.
 Alpha  occ. eigenvalues --  -10.62493 -10.62078 -10.61831 -10.61374  -0.93213
 Alpha  occ. eigenvalues --   -0.84876  -0.70068  -0.64395  -0.54695  -0.53935
 Alpha  occ. eigenvalues --   -0.46697  -0.45390  -0.41457  -0.38232  -0.27603
 Alpha virt. eigenvalues --    0.01699   0.07019   0.07447   0.08087   0.09604
 Alpha virt. eigenvalues --    0.11693   0.12524   0.14598   0.15788   0.16245
 Alpha virt. eigenvalues --    0.18711   0.20342   0.21585   0.22900   0.24042

 Mulliken charges:
               1
     1  C   -0.171573
     2  C   -0.029975
     3  C   -0.027617
     4  C   -0.180483
     5  H    0.088263
     6  H    0.059668
     7  H    0.058310
     8  H    0.051410
     9  H    0.064529
    10  H    0.087466
 Sum of Mulliken charges =   0.00000

 Dipole moment (field-independent basis, Debye):
    X=              0.0246    Y=             -0.0326    Z=              0.1322  Tot=              0.1384
 Quadrupole moment (field-independent basis, Debye-Ang):
   XX=            -23.5168   YY=            -23.1352   ZZ=            -29.2468
   XY=             -0.0653   XZ=             -0.0072   YZ=             -0.0562

 1\1\GINC-NODE13\SP\RB2PLYPD3-FC\def2QZVP\C4H6\BOITTIER\26-Aug-2020\0\\
 #p B2PLYPD3/Def2QZVP\\butadiene\\0,1\C,0,-3.831559,0.225007,-0.002835\
 C,0,-2.723837,-0.50944,0.070127\C,0,-1.397348,0.063325,0.03237\C,0,-0.
 259195,-0.646763,0.016613\H,0,-4.839327,-0.200189,-0.04691\H,0,-3.7043
 34,1.321408,-0.033744\H,0,-2.795404,-1.563496,0.053203\H,0,-1.335478,1
 .14511,0.013161\H,0,-0.282463,-1.72963,0.023774\H,0,0.691944,-0.17349,
 -0.070336\\Version=ES64L-G09RevD.01\State=1-A\HF=-155.6996207\MP2=-155
 .9253815\RMSD=4.617e-09\PG=C01 [X(C4H6)]\\@

 Normal termination of Gaussian 09 at Wed Aug 26 21:39:25 2020.
