 Gaussian 09, Revision D.01,
 Gaussian 09:  ES64L-G09RevD.01 24-Apr-2013

 --------------------
 #p B2PLYPD3/Def2QZVP
 --------------------

 ---------
 butadiene
 ---------
 Symbolic Z-matrix:
 Charge =  0 Multiplicity = 1

                         Standard orientation:
 ---------------------------------------------------------------------
 Center     Atomic      Atomic             Coordinates (Angstroms)
 Number     Number       Type             X           Y           Z
 ---------------------------------------------------------------------
      1          6           0       -1.839016    0.153380    0.025344
      2          6           0       -0.646337   -0.434073   -0.061646
      3          6           0        0.609994    0.366893   -0.027404
      4          6           0        1.882417   -0.105432    0.071029
      5          1           0       -2.748278   -0.468078    0.225267
      6          1           0       -1.957259    1.234178   -0.068637
      7          1           0       -0.738365   -1.502940   -0.065385
      8          1           0        0.498183    1.446887   -0.042675
      9          1           0        2.064799   -1.090374   -0.076203
     10          1           0        2.838572    0.495716   -0.016300
 ---------------------------------------------------------------------

 SCF Done:  E(RB2PLYPD3) =  -155.682027576     A.U. after   11 cycles
 E2(B2PLYPD3) =    -0.2268304086D+00 E(B2PLYPD3) =    -0.15590885798424D+03

 The electronic state is 1-A.
 Alpha  occ. eigenvalues --  -10.63695 -10.62945 -10.62118 -10.61480  -0.92407
 Alpha  occ. eigenvalues --   -0.84933  -0.69690  -0.64481  -0.54891  -0.53188
 Alpha  occ. eigenvalues --   -0.46136  -0.45200  -0.41508  -0.37421  -0.27709
 Alpha virt. eigenvalues --    0.01401   0.06902   0.07681   0.07721   0.09052
 Alpha virt. eigenvalues --    0.11551   0.12601   0.14255   0.15888   0.16640
 Alpha virt. eigenvalues --    0.19087   0.19500   0.21484   0.22978   0.23771

 Mulliken charges:
               1
     1  C   -0.165789
     2  C   -0.036566
     3  C   -0.048104
     4  C   -0.162795
     5  H    0.077228
     6  H    0.068757
     7  H    0.064133
     8  H    0.064683
     9  H    0.068427
    10  H    0.070026
 Sum of Mulliken charges =   0.00000

 Dipole moment (field-independent basis, Debye):
    X=             -0.1645    Y=             -0.0457    Z=             -0.1261  Tot=              0.2123
 Quadrupole moment (field-independent basis, Debye-Ang):
   XX=            -23.3069   YY=            -23.2636   ZZ=            -29.3472
   XY=              0.1237   XZ=             -0.7792   YZ=             -0.1125

 1\1\GINC-NODE15\SP\RB2PLYPD3-FC\def2QZVP\C4H6\BOITTIER\26-Aug-2020\0\\
 #p B2PLYPD3/Def2QZVP\\butadiene\\0,1\C,0,-3.840584,0.241321,0.051542\C
 ,0,-2.761431,-0.536601,-0.022063\C,0,-1.390333,0.047481,-0.017125\C,0,
 -0.211974,-0.624581,0.090784\H,0,-4.837788,-0.215957,0.273842\H,0,-3.7
 80489,1.323601,-0.074936\H,0,-3.027833,-1.575415,0.007186\H,0,-1.32333
 2,1.130231,-0.06493\H,0,-0.195183,-1.630013,-0.02701\H,0,0.82914,-0.19
 1721,-0.018536\\Version=ES64L-G09RevD.01\State=1-A\HF=-155.6820276\MP2
 =-155.908858\RMSD=6.729e-09\PG=C01 [X(C4H6)]\\@

 Normal termination of Gaussian 09 at Wed Aug 26 15:04:09 2020.
