 Gaussian 09, Revision D.01,
 Gaussian 09:  ES64L-G09RevD.01 24-Apr-2013

 --------------------
 #p B2PLYPD3/Def2QZVP
 --------------------

 ---------
 butadiene
 ---------
 Symbolic Z-matrix:
 Charge =  0 Multiplicity = 1

                         Standard orientation:
 ---------------------------------------------------------------------
 Center     Atomic      Atomic             Coordinates (Angstroms)
 Number     Number       Type             X           Y           Z
 ---------------------------------------------------------------------
      1          6           0       -1.827936    0.093015   -0.041211
      2          6           0       -0.600223   -0.393182    0.106100
      3          6           0        0.607984    0.400469    0.052584
      4          6           0        1.823261   -0.118986   -0.069841
      5          1           0       -2.710500   -0.446659   -0.131601
      6          1           0       -1.915512    1.182197   -0.057666
      7          1           0       -0.401126   -1.449075   -0.119851
      8          1           0        0.478978    1.521043    0.014260
      9          1           0        1.841207   -1.249406    0.052070
     10          1           0        2.688441    0.554003   -0.043004
 ---------------------------------------------------------------------

 SCF Done:  E(RB2PLYPD3) =  -155.686054422     A.U. after   11 cycles
 E2(B2PLYPD3) =    -0.2267669708D+00 E(B2PLYPD3) =    -0.15591282139314D+03

 The electronic state is 1-A.
 Alpha  occ. eigenvalues --  -10.62670 -10.62488 -10.62015 -10.61367  -0.93400
 Alpha  occ. eigenvalues --   -0.85177  -0.70057  -0.63150  -0.55216  -0.53322
 Alpha  occ. eigenvalues --   -0.46846  -0.44671  -0.40871  -0.38175  -0.27918
 Alpha virt. eigenvalues --    0.01620   0.07088   0.07169   0.08032   0.09183
 Alpha virt. eigenvalues --    0.11846   0.12639   0.14357   0.15139   0.16163
 Alpha virt. eigenvalues --    0.18491   0.19330   0.21616   0.23741   0.24192

 Mulliken charges:
               1
     1  C   -0.169693
     2  C   -0.025543
     3  C   -0.018154
     4  C   -0.177198
     5  H    0.092876
     6  H    0.056262
     7  H    0.050666
     8  H    0.038464
     9  H    0.060053
    10  H    0.092267
 Sum of Mulliken charges =   0.00000

 Dipole moment (field-independent basis, Debye):
    X=             -0.1382    Y=              0.0841    Z=             -0.1469  Tot=              0.2186
 Quadrupole moment (field-independent basis, Debye-Ang):
   XX=            -23.6404   YY=            -23.4297   ZZ=            -29.2250
   XY=              0.2803   XZ=              0.6163   YZ=              0.0859

 1\1\GINC-NODE01\SP\RB2PLYPD3-FC\def2QZVP\C4H6\BOITTIER\26-Aug-2020\0\\
 #p B2PLYPD3/Def2QZVP\\butadiene\\0,1\C,0,-3.833916,0.204822,-0.03568\C
 ,0,-2.713502,-0.489982,0.129511\C,0,-1.382557,0.073217,0.067045\C,0,-0
 .279669,-0.657925,-0.036818\H,0,-4.798641,-0.169979,-0.12034\H,0,-3.72
 4958,1.29147,-0.075454\H,0,-2.706182,-1.56911,-0.073056\H,0,-1.308683,
 1.197685,0.00449\H,0,-0.464777,-1.770383,0.108809\H,0,0.691987,-0.1502
 61,-0.018594\\Version=ES64L-G09RevD.01\State=1-A\HF=-155.6860544\MP2=-
 155.9128214\RMSD=6.788e-09\PG=C01 [X(C4H6)]\\@

 Normal termination of Gaussian 09 at Wed Aug 26 14:08:26 2020.
