 Gaussian 09, Revision D.01,
 Gaussian 09:  ES64L-G09RevD.01 24-Apr-2013

 --------------------
 #p B2PLYPD3/Def2QZVP
 --------------------

 ---------
 butadiene
 ---------
 Symbolic Z-matrix:
 Charge =  0 Multiplicity = 1

                         Standard orientation:
 ---------------------------------------------------------------------
 Center     Atomic      Atomic             Coordinates (Angstroms)
 Number     Number       Type             X           Y           Z
 ---------------------------------------------------------------------
      1          6           0        1.851661    0.090450    0.028117
      2          6           0        0.599247   -0.379185   -0.029327
      3          6           0       -0.613660    0.402610   -0.026724
      4          6           0       -1.842328   -0.112127    0.031313
      5          1           0        2.710953   -0.521596    0.135794
      6          1           0        2.111163    1.100788   -0.100974
      7          1           0        0.404890   -1.430556   -0.081635
      8          1           0       -0.485858    1.489974    0.003961
      9          1           0       -2.041100   -1.174625   -0.030038
     10          1           0       -2.669564    0.525522    0.052624
 ---------------------------------------------------------------------

 SCF Done:  E(RB2PLYPD3) =  -155.696382251     A.U. after   11 cycles
 E2(B2PLYPD3) =    -0.2253525447D+00 E(B2PLYPD3) =    -0.15592173479560D+03

 The electronic state is 1-A.
 Alpha  occ. eigenvalues --  -10.62492 -10.62398 -10.61184 -10.61086  -0.93118
 Alpha  occ. eigenvalues --   -0.85102  -0.71251  -0.64217  -0.55472  -0.53822
 Alpha  occ. eigenvalues --   -0.47336  -0.46003  -0.41105  -0.37958  -0.27570
 Alpha virt. eigenvalues --    0.01417   0.07021   0.07524   0.08201   0.09690
 Alpha virt. eigenvalues --    0.11645   0.12579   0.14990   0.15763   0.16368
 Alpha virt. eigenvalues --    0.18924   0.20213   0.22193   0.23092   0.23485

 Mulliken charges:
               1
     1  C   -0.175382
     2  C   -0.031276
     3  C   -0.027531
     4  C   -0.175922
     5  H    0.081598
     6  H    0.067083
     7  H    0.056518
     8  H    0.052128
     9  H    0.065577
    10  H    0.087205
 Sum of Mulliken charges =   0.00000

 Dipole moment (field-independent basis, Debye):
    X=             -0.0148    Y=              0.0195    Z=             -0.0678  Tot=              0.0721
 Quadrupole moment (field-independent basis, Debye-Ang):
   XX=            -23.0692   YY=            -23.3073   ZZ=            -29.1051
   XY=              0.4110   XZ=              0.0579   YZ=             -0.0330

 1\1\GINC-NODE33\SP\RB2PLYPD3-FC\def2QZVP\C4H6\BOITTIER\26-Aug-2020\0\\
 #p B2PLYPD3/Def2QZVP\\butadiene\\0,1\C,0,-3.855963,0.215687,-0.009842\
 C,0,-2.711901,-0.475713,0.064218\C,0,-1.375293,0.067719,0.041533\C,0,-
 0.263275,-0.666962,0.001427\H,0,-4.814002,-0.229657,-0.101542\H,0,-3.9
 23628,1.259927,0.089018\H,0,-2.715278,-1.542909,0.147729\H,0,-1.299783
 ,1.158585,-0.021265\H,0,-0.264344,-1.745641,0.094313\H,0,0.667592,-0.1
 94303,-0.03663\\Version=ES64L-G09RevD.01\State=1-A\HF=-155.6963823\MP2
 =-155.9217348\RMSD=3.810e-09\PG=C01 [X(C4H6)]\\@

 Normal termination of Gaussian 09 at Wed Aug 26 08:53:49 2020.
