 Gaussian 09, Revision D.01,
 Gaussian 09:  ES64L-G09RevD.01 24-Apr-2013

 --------------------
 #p B2PLYPD3/Def2QZVP
 --------------------

 ---------
 butadiene
 ---------
 Symbolic Z-matrix:
 Charge =  0 Multiplicity = 1

                         Standard orientation:
 ---------------------------------------------------------------------
 Center     Atomic      Atomic             Coordinates (Angstroms)
 Number     Number       Type             X           Y           Z
 ---------------------------------------------------------------------
      1          6           0       -1.845039    0.104906   -0.009441
      2          6           0       -0.615464   -0.382452    0.010853
      3          6           0        0.611933    0.409042    0.027507
      4          6           0        1.837312   -0.126014   -0.021596
      5          1           0       -2.672858   -0.559262   -0.023572
      6          1           0       -2.013830    1.168673   -0.013447
      7          1           0       -0.490122   -1.453352    0.010344
      8          1           0        0.511844    1.468019   -0.017480
      9          1           0        2.021017   -1.176980    0.005821
     10          1           0        2.711499    0.520009   -0.005600
 ---------------------------------------------------------------------

 SCF Done:  E(RB2PLYPD3) =  -155.700824800     A.U. after   11 cycles
 E2(B2PLYPD3) =    -0.2250873189D+00 E(B2PLYPD3) =    -0.15592591211922D+03

 The electronic state is 1-A.
 Alpha  occ. eigenvalues --  -10.62387 -10.62146 -10.61460 -10.60962  -0.93002
 Alpha  occ. eigenvalues --   -0.85231  -0.70225  -0.64368  -0.54751  -0.54206
 Alpha  occ. eigenvalues --   -0.46873  -0.45832  -0.41158  -0.38077  -0.27833
 Alpha virt. eigenvalues --    0.01875   0.07004   0.07550   0.08098   0.09683
 Alpha virt. eigenvalues --    0.11732   0.12402   0.14834   0.15804   0.16182
 Alpha virt. eigenvalues --    0.18816   0.20333   0.21759   0.22855   0.24066

 Mulliken charges:
               1
     1  C   -0.179645
     2  C   -0.025332
     3  C   -0.038732
     4  C   -0.173515
     5  H    0.088406
     6  H    0.066502
     7  H    0.052328
     8  H    0.059684
     9  H    0.069634
    10  H    0.080670
 Sum of Mulliken charges =   0.00000

 Dipole moment (field-independent basis, Debye):
    X=              0.0242    Y=             -0.0115    Z=             -0.0109  Tot=              0.0289
 Quadrupole moment (field-independent basis, Debye-Ang):
   XX=            -23.5285   YY=            -23.0017   ZZ=            -29.1824
   XY=             -0.1072   XZ=              0.0709   YZ=             -0.0527

 1\1\GINC-NODE38\SP\RB2PLYPD3-FC\def2QZVP\C4H6\BOITTIER\26-Aug-2020\0\\
 #p B2PLYPD3/Def2QZVP\\butadiene\\0,1\C,0,-3.848222,0.21463,0.006584\C,
 0,-2.724554,-0.482223,0.045956\C,0,-1.376155,0.079046,0.039407\C,0,-0.
 26532,-0.666265,0.010988\H,0,-4.780786,-0.292218,0.012412\H,0,-3.82562
 1,1.290748,-0.032997\H,0,-2.791195,-1.557796,0.081155\H,0,-1.286935,1.
 136911,-0.040807\H,0,-0.270891,-1.731666,0.073579\H,0,0.709663,-0.1854
 3,0.007735\\Version=ES64L-G09RevD.01\State=1-A\HF=-155.7008248\MP2=-15
 5.9259121\RMSD=5.294e-09\PG=C01 [X(C4H6)]\\@

 Normal termination of Gaussian 09 at Wed Aug 26 11:18:37 2020.
