 Gaussian 09, Revision D.01,
 Gaussian 09:  ES64L-G09RevD.01 24-Apr-2013

 --------------------
 #p B2PLYPD3/Def2QZVP
 --------------------

 ---------
 butadiene
 ---------
 Symbolic Z-matrix:
 Charge =  0 Multiplicity = 1

                         Standard orientation:
 ---------------------------------------------------------------------
 Center     Atomic      Atomic             Coordinates (Angstroms)
 Number     Number       Type             X           Y           Z
 ---------------------------------------------------------------------
      1          6           0        1.830758    0.098972    0.002953
      2          6           0        0.589094   -0.393440   -0.023268
      3          6           0       -0.593389    0.408151   -0.019901
      4          6           0       -1.829937   -0.107385    0.012027
      5          1           0        2.689355   -0.536766    0.056235
      6          1           0        2.063703    1.166592    0.042258
      7          1           0        0.428649   -1.474584    0.038965
      8          1           0       -0.469708    1.490579   -0.017471
      9          1           0       -1.957614   -1.189348   -0.023205
     10          1           0       -2.733538    0.505729    0.072351
 ---------------------------------------------------------------------

 SCF Done:  E(RB2PLYPD3) =  -155.699712840     A.U. after   11 cycles
 E2(B2PLYPD3) =    -0.2260707071D+00 E(B2PLYPD3) =    -0.15592578354744D+03

 The electronic state is 1-A.
 Alpha  occ. eigenvalues --  -10.62526 -10.62394 -10.61782 -10.61525  -0.93321
 Alpha  occ. eigenvalues --   -0.84705  -0.70370  -0.63978  -0.54831  -0.53713
 Alpha  occ. eigenvalues --   -0.46652  -0.45267  -0.41273  -0.38402  -0.27458
 Alpha virt. eigenvalues --    0.01522   0.07030   0.07333   0.08039   0.09658
 Alpha virt. eigenvalues --    0.11661   0.12476   0.14747   0.15812   0.16224
 Alpha virt. eigenvalues --    0.18746   0.20433   0.21787   0.22796   0.23672

 Mulliken charges:
               1
     1  C   -0.175051
     2  C   -0.027672
     3  C   -0.024714
     4  C   -0.176485
     5  H    0.083262
     6  H    0.064440
     7  H    0.053052
     8  H    0.054323
     9  H    0.062071
    10  H    0.086774
 Sum of Mulliken charges =   0.00000

 Dipole moment (field-independent basis, Debye):
    X=              0.0075    Y=              0.0177    Z=              0.1237  Tot=              0.1252
 Quadrupole moment (field-independent basis, Debye-Ang):
   XX=            -23.4235   YY=            -23.1765   ZZ=            -29.2730
   XY=              0.2010   XZ=              0.1152   YZ=              0.0191

 1\1\GINC-NODE12\SP\RB2PLYPD3-FC\def2QZVP\C4H6\BOITTIER\26-Aug-2020\0\\
 #p B2PLYPD3/Def2QZVP\\butadiene\\0,1\C,0,-3.833554,0.220018,0.010373\C
 ,0,-2.704288,-0.492521,0.054357\C,0,-1.39399,0.076173,0.031334\C,0,-0.
 274172,-0.659812,0.017845\H,0,-4.795026,-0.247273,-0.027067\H,0,-3.865
 171,1.310716,-0.060332\H,0,-2.746673,-1.586027,0.023746\H,0,-1.315398,
 1.162278,-0.002621\H,0,-0.34867,-1.745253,0.084587\H,0,0.727063,-0.226
 343,-0.057492\\Version=ES64L-G09RevD.01\State=1-A\HF=-155.6997128\MP2=
 -155.9257835\RMSD=3.246e-09\PG=C01 [X(C4H6)]\\@

 Normal termination of Gaussian 09 at Wed Aug 26 20:17:44 2020.
