 Gaussian 09, Revision D.01,
 Gaussian 09:  ES64L-G09RevD.01 24-Apr-2013

 --------------------
 #p B2PLYPD3/Def2QZVP
 --------------------

 ---------
 butadiene
 ---------
 Symbolic Z-matrix:
 Charge =  0 Multiplicity = 1

                         Standard orientation:
 ---------------------------------------------------------------------
 Center     Atomic      Atomic             Coordinates (Angstroms)
 Number     Number       Type             X           Y           Z
 ---------------------------------------------------------------------
      1          6           0        1.822463   -0.154345    0.031755
      2          6           0        0.589851    0.469835   -0.035401
      3          6           0       -0.604864   -0.409416   -0.107703
      4          6           0       -1.859181    0.093638    0.063243
      5          1           0        2.752951    0.521803   -0.015731
      6          1           0        2.040627   -1.176043    0.359982
      7          1           0        0.474700    1.501628   -0.226027
      8          1           0       -0.383213   -1.460548   -0.128832
      9          1           0       -1.896165    1.177789    0.333402
     10          1           0       -2.678521   -0.562901   -0.034156
 ---------------------------------------------------------------------

 SCF Done:  E(RB2PLYPD3) =  -155.678518335     A.U. after   12 cycles
 E2(B2PLYPD3) =    -0.2285499763D+00 E(B2PLYPD3) =    -0.15590706831120D+03

 The electronic state is 1-A.
 Alpha  occ. eigenvalues --  -10.63388 -10.63076 -10.62843 -10.61901  -0.92142
 Alpha  occ. eigenvalues --   -0.83695  -0.69413  -0.64607  -0.54572  -0.52353
 Alpha  occ. eigenvalues --   -0.47303  -0.44964  -0.41152  -0.36835  -0.27030
 Alpha virt. eigenvalues --    0.00971   0.06993   0.07209   0.07711   0.08691
 Alpha virt. eigenvalues --    0.11771   0.12022   0.14734   0.15208   0.16088
 Alpha virt. eigenvalues --    0.18513   0.19685   0.21273   0.22502   0.23689

 Mulliken charges:
               1
     1  C   -0.179532
     2  C   -0.053759
     3  C   -0.036745
     4  C   -0.183636
     5  H    0.062958
     6  H    0.080478
     7  H    0.081114
     8  H    0.064538
     9  H    0.068381
    10  H    0.096204
 Sum of Mulliken charges =   0.00000

 Dipole moment (field-independent basis, Debye):
    X=              0.0333    Y=             -0.0559    Z=              0.1798  Tot=              0.1912
 Quadrupole moment (field-independent basis, Debye-Ang):
   XX=            -24.4518   YY=            -22.9309   ZZ=            -29.3732
   XY=             -0.1987   XZ=              0.1110   YZ=             -0.2078

 1\1\GINC-NODE26\SP\RB2PLYPD3-FC\def2QZVP\C4H6\BOITTIER\26-Aug-2020\0\\
 #p B2PLYPD3/Def2QZVP\\butadiene\\0,1\C,0,-3.821794,0.268429,0.057801\C
 ,0,-2.723113,-0.569867,-0.002214\C,0,-1.388673,0.077021,-0.082598\C,0,
 -0.246371,-0.643716,0.094267\H,0,-4.859656,-0.227934,0.016527\H,0,-3.8
 50398,1.316008,0.375538\H,0,-2.79748,-1.607279,-0.182324\H,0,-1.415772
 ,1.15066,-0.114499\H,0,-0.406572,-1.713781,0.375395\H,0,0.678461,-0.14
 7907,-0.009213\\Version=ES64L-G09RevD.01\State=1-A\HF=-155.6785183\MP2
 =-155.9070683\RMSD=3.691e-09\PG=C01 [X(C4H6)]\\@

 Normal termination of Gaussian 09 at Wed Aug 26 15:10:03 2020.
