 Gaussian 09, Revision D.01,
 Gaussian 09:  ES64L-G09RevD.01 24-Apr-2013

 --------------------
 #p B2PLYPD3/Def2QZVP
 --------------------

 ---------
 butadiene
 ---------
 Symbolic Z-matrix:
 Charge =  0 Multiplicity = 1

                         Standard orientation:
 ---------------------------------------------------------------------
 Center     Atomic      Atomic             Coordinates (Angstroms)
 Number     Number       Type             X           Y           Z
 ---------------------------------------------------------------------
      1          6           0        1.824485    0.097214   -0.009614
      2          6           0        0.592326   -0.389398   -0.005042
      3          6           0       -0.603446    0.412523    0.015106
      4          6           0       -1.830321   -0.116278   -0.019147
      5          1           0        2.710309   -0.519520    0.009282
      6          1           0        2.026174    1.164002   -0.008607
      7          1           0        0.497917   -1.449796    0.064277
      8          1           0       -0.453870    1.486978    0.025527
      9          1           0       -1.943188   -1.197192   -0.001475
     10          1           0       -2.735609    0.491165    0.023182
 ---------------------------------------------------------------------

 SCF Done:  E(RB2PLYPD3) =  -155.700420352     A.U. after   11 cycles
 E2(B2PLYPD3) =    -0.2254950796D+00 E(B2PLYPD3) =    -0.15592591543203D+03

 The electronic state is 1-A.
 Alpha  occ. eigenvalues --  -10.62482 -10.61990 -10.61700 -10.61253  -0.93355
 Alpha  occ. eigenvalues --   -0.84968  -0.70139  -0.64359  -0.54780  -0.53988
 Alpha  occ. eigenvalues --   -0.46796  -0.45267  -0.41279  -0.38348  -0.27683
 Alpha virt. eigenvalues --    0.01786   0.07032   0.07438   0.08062   0.09678
 Alpha virt. eigenvalues --    0.11679   0.12539   0.14686   0.15781   0.16317
 Alpha virt. eigenvalues --    0.18751   0.20342   0.21862   0.22703   0.23922

 Mulliken charges:
               1
     1  C   -0.174911
     2  C   -0.022162
     3  C   -0.035432
     4  C   -0.171596
     5  H    0.082138
     6  H    0.058708
     7  H    0.055831
     8  H    0.056630
     9  H    0.064885
    10  H    0.085910
 Sum of Mulliken charges =   0.00000

 Dipole moment (field-independent basis, Debye):
    X=              0.0165    Y=              0.0004    Z=              0.1113  Tot=              0.1125
 Quadrupole moment (field-independent basis, Debye-Ang):
   XX=            -23.3971   YY=            -23.1717   ZZ=            -29.1996
   XY=              0.0906   XZ=             -0.0219   YZ=             -0.0575

 1\1\GINC-NODE28\SP\RB2PLYPD3-FC\def2QZVP\C4H6\BOITTIER\26-Aug-2020\0\\
 #p B2PLYPD3/Def2QZVP\\butadiene\\0,1\C,0,-3.83087,0.211326,0.026813\C,
 0,-2.707288,-0.490459,0.036325\C,0,-1.386081,0.080754,-0.002157\C,0,-0
 .275221,-0.66058,0.04722\H,0,-4.813827,-0.234963,0.022079\H,0,-3.83594
 1,1.296637,-0.001297\H,0,-2.806779,-1.551805,-0.006191\H,0,-1.338542,1
 .163925,-0.039792\H,0,-0.360118,-1.744151,0.056877\H,0,0.725008,-0.228
 482,-0.00899\\Version=ES64L-G09RevD.01\State=1-A\HF=-155.7004204\MP2=-
 155.9259154\RMSD=5.254e-09\PG=C01 [X(C4H6)]\\@

 Normal termination of Gaussian 09 at Wed Aug 26 19:36:26 2020.
