 Gaussian 09, Revision D.01,
 Gaussian 09:  ES64L-G09RevD.01 24-Apr-2013

 --------------------
 #p B2PLYPD3/Def2QZVP
 --------------------

 ---------
 butadiene
 ---------
 Symbolic Z-matrix:
 Charge =  0 Multiplicity = 1

                         Standard orientation:
 ---------------------------------------------------------------------
 Center     Atomic      Atomic             Coordinates (Angstroms)
 Number     Number       Type             X           Y           Z
 ---------------------------------------------------------------------
      1          6           0       -1.828807    0.103334    0.000544
      2          6           0       -0.600025   -0.394016   -0.004506
      3          6           0        0.589420    0.409106   -0.027993
      4          6           0        1.828443   -0.115620    0.018049
      5          1           0       -2.715162   -0.536901    0.002641
      6          1           0       -1.995047    1.162729    0.118423
      7          1           0       -0.439010   -1.448806   -0.068264
      8          1           0        0.505866    1.483782   -0.037656
      9          1           0        1.990122   -1.172627    0.085671
     10          1           0        2.719052    0.494996   -0.017377
 ---------------------------------------------------------------------

 SCF Done:  E(RB2PLYPD3) =  -155.700112917     A.U. after   11 cycles
 E2(B2PLYPD3) =    -0.2256231872D+00 E(B2PLYPD3) =    -0.15592573610430D+03

 The electronic state is 1-A.
 Alpha  occ. eigenvalues --  -10.62400 -10.62078 -10.61467 -10.61408  -0.93354
 Alpha  occ. eigenvalues --   -0.84848  -0.70304  -0.64501  -0.54620  -0.54185
 Alpha  occ. eigenvalues --   -0.46590  -0.45569  -0.41468  -0.38321  -0.27513
 Alpha virt. eigenvalues --    0.01628   0.07031   0.07496   0.08059   0.09608
 Alpha virt. eigenvalues --    0.11713   0.12507   0.14805   0.15778   0.16324
 Alpha virt. eigenvalues --    0.18758   0.20294   0.21795   0.22905   0.23756

 Mulliken charges:
               1
     1  C   -0.174206
     2  C   -0.029252
     3  C   -0.029865
     4  C   -0.178197
     5  H    0.082205
     6  H    0.066527
     7  H    0.059253
     8  H    0.056647
     9  H    0.063540
    10  H    0.083348
 Sum of Mulliken charges =   0.00000

 Dipole moment (field-independent basis, Debye):
    X=              0.0215    Y=             -0.0060    Z=              0.0610  Tot=              0.0650
 Quadrupole moment (field-independent basis, Debye-Ang):
   XX=            -23.4786   YY=            -23.1241   ZZ=            -29.1884
   XY=             -0.1325   XZ=             -0.1044   YZ=              0.0765

 1\1\GINC-NODE31\SP\RB2PLYPD3-FC\def2QZVP\C4H6\BOITTIER\26-Aug-2020\0\\
 #p B2PLYPD3/Def2QZVP\\butadiene\\0,1\C,0,-3.830453,0.218731,0.022603\C
 ,0,-2.712543,-0.493662,0.030497\C,0,-1.397045,0.079087,-0.011441\C,0,-
 0.273855,-0.66086,0.048199\H,0,-4.818386,-0.249494,0.039461\H,0,-3.800
 969,1.293201,0.114764\H,0,-2.746131,-1.561364,-0.007673\H,0,-1.283939,
 1.150506,-0.04709\H,0,-0.306716,-1.727728,0.141424\H,0,0.712758,-0.223
 321,-0.001261\\Version=ES64L-G09RevD.01\State=1-A\HF=-155.7001129\MP2=
 -155.9257361\RMSD=5.333e-09\PG=C01 [X(C4H6)]\\@

 Normal termination of Gaussian 09 at Wed Aug 26 14:55:44 2020.
