 Gaussian 09, Revision D.01,
 Gaussian 09:  ES64L-G09RevD.01 24-Apr-2013

 --------------------
 #p B2PLYPD3/Def2QZVP
 --------------------

 ---------
 butadiene
 ---------
 Symbolic Z-matrix:
 Charge =  0 Multiplicity = 1

                         Standard orientation:
 ---------------------------------------------------------------------
 Center     Atomic      Atomic             Coordinates (Angstroms)
 Number     Number       Type             X           Y           Z
 ---------------------------------------------------------------------
      1          6           0        1.824142   -0.096901   -0.008290
      2          6           0        0.596478    0.389563    0.028009
      3          6           0       -0.591890   -0.433467    0.014695
      4          6           0       -1.827219    0.114670   -0.032062
      5          1           0        2.645687    0.583611   -0.076798
      6          1           0        2.088560   -1.137804   -0.137966
      7          1           0        0.492119    1.459520    0.162620
      8          1           0       -0.456550   -1.510723    0.129407
      9          1           0       -2.017393    1.227420   -0.122016
     10          1           0       -2.761489   -0.465212    0.030635
 ---------------------------------------------------------------------

 SCF Done:  E(RB2PLYPD3) =  -155.695376856     A.U. after   11 cycles
 E2(B2PLYPD3) =    -0.2262127692D+00 E(B2PLYPD3) =    -0.15592158962479D+03

 The electronic state is 1-A.
 Alpha  occ. eigenvalues --  -10.62971 -10.62534 -10.62198 -10.60961  -0.93092
 Alpha  occ. eigenvalues --   -0.84637  -0.69957  -0.63991  -0.54603  -0.53706
 Alpha  occ. eigenvalues --   -0.46600  -0.44954  -0.41137  -0.38030  -0.27600
 Alpha virt. eigenvalues --    0.01689   0.07043   0.07336   0.07935   0.09381
 Alpha virt. eigenvalues --    0.11527   0.12421   0.14767   0.15701   0.16249
 Alpha virt. eigenvalues --    0.18774   0.20059   0.21901   0.22525   0.23736

 Mulliken charges:
               1
     1  C   -0.172734
     2  C   -0.024208
     3  C   -0.045780
     4  C   -0.168887
     5  H    0.076757
     6  H    0.064658
     7  H    0.062734
     8  H    0.065764
     9  H    0.061337
    10  H    0.080359
 Sum of Mulliken charges =   0.00000

 Dipole moment (field-independent basis, Debye):
    X=             -0.0081    Y=              0.0030    Z=              0.0116  Tot=              0.0145
 Quadrupole moment (field-independent basis, Debye-Ang):
   XX=            -23.5556   YY=            -23.0943   ZZ=            -29.2545
   XY=             -0.3365   XZ=             -0.3737   YZ=             -0.0356

 1\1\GINC-NODE09\SP\RB2PLYPD3-FC\def2QZVP\C4H6\BOITTIER\26-Aug-2020\0\\
 #p B2PLYPD3/Def2QZVP\\butadiene\\0,1\C,0,-3.827314,0.214896,0.006072\C
 ,0,-2.710843,-0.489128,0.060525\C,0,-1.390722,0.099292,0.031948\C,0,-0
 .278132,-0.668883,0.004975\H,0,-4.760581,-0.30347,-0.049027\H,0,-3.894
 596,1.283043,-0.151241\H,0,-2.806232,-1.556088,0.22275\H,0,-1.324418,1
 .185591,0.11863\H,0,-0.297114,-1.799554,-0.055797\H,0,0.747296,-0.2703
 75,0.057354\\Version=ES64L-G09RevD.01\State=1-A\HF=-155.6953769\MP2=-1
 55.9215896\RMSD=7.553e-09\PG=C01 [X(C4H6)]\\@

 Normal termination of Gaussian 09 at Wed Aug 26 09:41:47 2020.
