 Gaussian 09, Revision D.01,
 Gaussian 09:  ES64L-G09RevD.01 24-Apr-2013

 --------------------
 #p B2PLYPD3/Def2QZVP
 --------------------

 ---------
 butadiene
 ---------
 Symbolic Z-matrix:
 Charge =  0 Multiplicity = 1

                         Standard orientation:
 ---------------------------------------------------------------------
 Center     Atomic      Atomic             Coordinates (Angstroms)
 Number     Number       Type             X           Y           Z
 ---------------------------------------------------------------------
      1          6           0       -1.826255   -0.096853    0.007166
      2          6           0       -0.590820    0.382663   -0.024279
      3          6           0        0.600101   -0.411503   -0.036949
      4          6           0        1.832473    0.112721    0.019189
      5          1           0       -2.694702    0.529573    0.040626
      6          1           0       -2.029818   -1.149014    0.092191
      7          1           0       -0.490386    1.461805    0.009425
      8          1           0        0.459291   -1.485856   -0.022168
      9          1           0        1.942377    1.196328    0.021395
     10          1           0        2.720242   -0.475006    0.067775
 ---------------------------------------------------------------------

 SCF Done:  E(RB2PLYPD3) =  -155.700278607     A.U. after   11 cycles
 E2(B2PLYPD3) =    -0.2254979721D+00 E(B2PLYPD3) =    -0.15592577657932D+03

 The electronic state is 1-A.
 Alpha  occ. eigenvalues --  -10.62453 -10.62121 -10.61545 -10.61061  -0.93407
 Alpha  occ. eigenvalues --   -0.85010  -0.70520  -0.64206  -0.55096  -0.54015
 Alpha  occ. eigenvalues --   -0.46830  -0.45384  -0.41367  -0.38405  -0.27570
 Alpha virt. eigenvalues --    0.01636   0.07047   0.07445   0.08086   0.09750
 Alpha virt. eigenvalues --    0.11681   0.12588   0.14748   0.15903   0.16282
 Alpha virt. eigenvalues --    0.18768   0.20520   0.21815   0.22664   0.23911

 Mulliken charges:
               1
     1  C   -0.175263
     2  C   -0.019412
     3  C   -0.033335
     4  C   -0.174166
     5  H    0.082683
     6  H    0.060253
     7  H    0.051091
     8  H    0.055309
     9  H    0.063579
    10  H    0.089263
 Sum of Mulliken charges =   0.00000

 Dipole moment (field-independent basis, Debye):
    X=              0.0073    Y=             -0.0113    Z=              0.1522  Tot=              0.1528
 Quadrupole moment (field-independent basis, Debye-Ang):
   XX=            -23.3390   YY=            -23.2015   ZZ=            -29.1653
   XY=              0.0640   XZ=             -0.0709   YZ=             -0.0649

 1\1\GINC-NODE24\SP\RB2PLYPD3-FC\def2QZVP\C4H6\BOITTIER\26-Aug-2020\0\\
 #p B2PLYPD3/Def2QZVP\\butadiene\\0,1\C,0,-3.832369,0.211413,0.005777\C
 ,0,-2.704806,-0.483806,0.055739\C,0,-1.389155,0.080222,0.046375\C,0,-0
 .273021,-0.661154,0.01021\H,0,-4.800461,-0.247144,-0.010102\H,0,-3.841
 215,1.279817,-0.113158\H,0,-2.802652,-1.563711,0.056585\H,0,-1.332035,
 1.161236,-0.002888\H,0,-0.362268,-1.746173,0.042705\H,0,0.706766,-0.24
 6749,-0.054636\\Version=ES64L-G09RevD.01\State=1-A\HF=-155.7002786\MP2
 =-155.9257766\RMSD=5.306e-09\PG=C01 [X(C4H6)]\\@

 Normal termination of Gaussian 09 at Wed Aug 26 21:15:39 2020.
