 Gaussian 09, Revision D.01,
 Gaussian 09:  ES64L-G09RevD.01 24-Apr-2013

 --------------------
 #p B2PLYPD3/Def2QZVP
 --------------------

 ---------
 butadiene
 ---------
 Symbolic Z-matrix:
 Charge =  0 Multiplicity = 1

                         Standard orientation:
 ---------------------------------------------------------------------
 Center     Atomic      Atomic             Coordinates (Angstroms)
 Number     Number       Type             X           Y           Z
 ---------------------------------------------------------------------
      1          6           0       -1.831847    0.068445   -0.000700
      2          6           0       -0.596927   -0.353988   -0.062895
      3          6           0        0.595546    0.431529   -0.034812
      4          6           0        1.833770   -0.149702    0.036277
      5          1           0       -2.704855   -0.589883    0.135965
      6          1           0       -2.028436    1.105721    0.226358
      7          1           0       -0.380927   -1.339908   -0.140372
      8          1           0        0.403753    1.475876   -0.013948
      9          1           0        2.006744   -1.197311    0.250253
     10          1           0        2.700467    0.567802   -0.085476
 ---------------------------------------------------------------------

 SCF Done:  E(RB2PLYPD3) =  -155.683600446     A.U. after   12 cycles
 E2(B2PLYPD3) =    -0.2262947890D+00 E(B2PLYPD3) =    -0.15590989523464D+03

 The electronic state is 1-A.
 Alpha  occ. eigenvalues --  -10.62856 -10.62609 -10.61153 -10.60837  -0.93744
 Alpha  occ. eigenvalues --   -0.84624  -0.70529  -0.65217  -0.54472  -0.53821
 Alpha  occ. eigenvalues --   -0.47202  -0.45751  -0.40805  -0.38227  -0.27413
 Alpha virt. eigenvalues --    0.01064   0.06882   0.07475   0.08185   0.09621
 Alpha virt. eigenvalues --    0.11865   0.12244   0.15001   0.15618   0.16151
 Alpha virt. eigenvalues --    0.18479   0.19821   0.21744   0.22812   0.23651

 Mulliken charges:
               1
     1  C   -0.166855
     2  C   -0.014997
     3  C   -0.044338
     4  C   -0.187800
     5  H    0.076302
     6  H    0.051330
     7  H    0.059603
     8  H    0.062668
     9  H    0.083619
    10  H    0.080468
 Sum of Mulliken charges =   0.00000

 Dipole moment (field-independent basis, Debye):
    X=              0.0473    Y=             -0.0495    Z=              0.2929  Tot=              0.3008
 Quadrupole moment (field-independent basis, Debye-Ang):
   XX=            -23.9540   YY=            -23.2259   ZZ=            -29.0392
   XY=             -0.3225   XZ=             -0.5559   YZ=             -0.1315

 1\1\GINC-NODE15\SP\RB2PLYPD3-FC\def2QZVP\C4H6\BOITTIER\26-Aug-2020\0\\
 #p B2PLYPD3/Def2QZVP\\butadiene\\0,1\C,0,-3.83937,0.194956,0.032852\C,
 0,-2.705392,-0.452425,-0.015494\C,0,-1.387308,0.097497,-0.023038\C,0,-
 0.278254,-0.701089,0.068288\H,0,-4.818194,-0.283117,0.19888\H,0,-3.837
 046,1.258887,0.217755\H,0,-2.677523,-1.463615,-0.053103\H,0,-1.381109,
 1.15928,-0.044459\H,0,-0.301097,-1.753232,0.324538\H,0,0.705542,-0.163
 155,-0.085249\\Version=ES64L-G09RevD.01\State=1-A\HF=-155.6836004\MP2=
 -155.9098952\RMSD=4.857e-09\PG=C01 [X(C4H6)]\\@

 Normal termination of Gaussian 09 at Wed Aug 26 12:02:20 2020.
