 Gaussian 09, Revision D.01,
 Gaussian 09:  ES64L-G09RevD.01 24-Apr-2013

 --------------------
 #p B2PLYPD3/Def2QZVP
 --------------------

 ---------
 butadiene
 ---------
 Symbolic Z-matrix:
 Charge =  0 Multiplicity = 1

                         Standard orientation:
 ---------------------------------------------------------------------
 Center     Atomic      Atomic             Coordinates (Angstroms)
 Number     Number       Type             X           Y           Z
 ---------------------------------------------------------------------
      1          6           0        1.798827   -0.142420   -0.087919
      2          6           0        0.605565    0.430683    0.127315
      3          6           0       -0.613079   -0.393688    0.051775
      4          6           0       -1.828422    0.105529   -0.040471
      5          1           0        2.676821    0.439132   -0.093654
      6          1           0        1.919599   -1.142544   -0.009199
      7          1           0        0.601419    1.542252   -0.034749
      8          1           0       -0.395535   -1.465312    0.072333
      9          1           0       -1.934065    1.192085   -0.114479
     10          1           0       -2.645583   -0.566239   -0.124451
 ---------------------------------------------------------------------

 SCF Done:  E(RB2PLYPD3) =  -155.686936231     A.U. after   12 cycles
 E2(B2PLYPD3) =    -0.2258184707D+00 E(B2PLYPD3) =    -0.15591275470177D+03

 The electronic state is 1-A.
 Alpha  occ. eigenvalues --  -10.62863 -10.62465 -10.60964 -10.60386  -0.93071
 Alpha  occ. eigenvalues --   -0.85427  -0.70045  -0.64061  -0.54885  -0.54166
 Alpha  occ. eigenvalues --   -0.46238  -0.45785  -0.41218  -0.38038  -0.27882
 Alpha virt. eigenvalues --    0.01977   0.07142   0.07338   0.08108   0.09030
 Alpha virt. eigenvalues --    0.11865   0.12464   0.14767   0.15406   0.16453
 Alpha virt. eigenvalues --    0.18660   0.19109   0.22558   0.23451   0.24340

 Mulliken charges:
               1
     1  C   -0.163626
     2  C   -0.035297
     3  C   -0.029305
     4  C   -0.179978
     5  H    0.074777
     6  H    0.064426
     7  H    0.054764
     8  H    0.052383
     9  H    0.071734
    10  H    0.090123
 Sum of Mulliken charges =   0.00000

 Dipole moment (field-independent basis, Debye):
    X=              0.1338    Y=             -0.0694    Z=             -0.1581  Tot=              0.2185
 Quadrupole moment (field-independent basis, Debye-Ang):
   XX=            -23.8265   YY=            -22.9674   ZZ=            -29.1219
   XY=             -0.0117   XZ=              0.1947   YZ=             -0.2761

 1\1\GINC-NODE22\SP\RB2PLYPD3-FC\def2QZVP\C4H6\BOITTIER\26-Aug-2020\0\\
 #p B2PLYPD3/Def2QZVP\\butadiene\\0,1\C,0,-3.802404,0.240734,-0.069703\
 C,0,-2.727949,-0.530189,0.153613\C,0,-1.383469,0.065458,0.064362\C,0,-
 0.275327,-0.641317,-0.020933\H,0,-4.769086,-0.177142,-0.065745\H,0,-3.
 744937,1.247579,-0.006518\H,0,-2.920127,-1.627457,0.008915\H,0,-1.4088
 73,1.158831,0.068344\H,0,-0.362888,-1.730497,-0.078047\H,0,0.647047,-0
 .125301,-0.115961\\Version=ES64L-G09RevD.01\State=1-A\HF=-155.6869362\
 MP2=-155.9127547\RMSD=3.511e-09\PG=C01 [X(C4H6)]\\@

 Normal termination of Gaussian 09 at Wed Aug 26 12:44:14 2020.
