 Gaussian 09, Revision D.01,
 Gaussian 09:  ES64L-G09RevD.01 24-Apr-2013

 --------------------
 #p B2PLYPD3/Def2QZVP
 --------------------

 ---------
 butadiene
 ---------
 Symbolic Z-matrix:
 Charge =  0 Multiplicity = 1

                         Standard orientation:
 ---------------------------------------------------------------------
 Center     Atomic      Atomic             Coordinates (Angstroms)
 Number     Number       Type             X           Y           Z
 ---------------------------------------------------------------------
      1          6           0       -1.843203    0.095256    0.007919
      2          6           0       -0.602833   -0.397741   -0.000302
      3          6           0        0.604049    0.426502   -0.019711
      4          6           0        1.825296   -0.116756    0.010897
      5          1           0       -2.711848   -0.533900    0.050780
      6          1           0       -1.983956    1.170997   -0.046438
      7          1           0       -0.343939   -1.475914    0.010670
      8          1           0        0.443938    1.504927   -0.011607
      9          1           0        1.926376   -1.201245   -0.097874
     10          1           0        2.769580    0.491564    0.101647
 ---------------------------------------------------------------------

 SCF Done:  E(RB2PLYPD3) =  -155.696666934     A.U. after   11 cycles
 E2(B2PLYPD3) =    -0.2264037094D+00 E(B2PLYPD3) =    -0.15592307064362D+03

 The electronic state is 1-A.
 Alpha  occ. eigenvalues --  -10.62844 -10.62657 -10.62227 -10.61544  -0.92960
 Alpha  occ. eigenvalues --   -0.84672  -0.69753  -0.63878  -0.54465  -0.53289
 Alpha  occ. eigenvalues --   -0.46926  -0.45401  -0.40820  -0.38022  -0.27691
 Alpha virt. eigenvalues --    0.01772   0.07013   0.07191   0.08096   0.09347
 Alpha virt. eigenvalues --    0.11699   0.12460   0.14550   0.15832   0.15904
 Alpha virt. eigenvalues --    0.18660   0.20473   0.21388   0.23252   0.23548

 Mulliken charges:
               1
     1  C   -0.179841
     2  C   -0.024754
     3  C   -0.026351
     4  C   -0.175906
     5  H    0.091229
     6  H    0.065998
     7  H    0.047311
     8  H    0.053850
     9  H    0.063995
    10  H    0.084468
 Sum of Mulliken charges =   0.00000

 Dipole moment (field-independent basis, Debye):
    X=              0.0227    Y=              0.0217    Z=             -0.0111  Tot=              0.0333
 Quadrupole moment (field-independent basis, Debye-Ang):
   XX=            -23.5627   YY=            -23.2259   ZZ=            -29.3541
   XY=             -0.2513   XZ=              0.0657   YZ=              0.0751

 1\1\GINC-NODE02\SP\RB2PLYPD3-FC\def2QZVP\C4H6\BOITTIER\26-Aug-2020\0\\
 #p B2PLYPD3/Def2QZVP\\butadiene\\0,1\C,0,-3.84493,0.215943,0.026385\C,
 0,-2.71603,-0.496212,0.033542\C,0,-1.378509,0.091958,-0.004033\C,0,-0.
 277532,-0.665096,0.043174\H,0,-4.814118,-0.241946,0.083223\H,0,-3.7861
 47,1.297519,-0.055611\H,0,-2.659226,-1.602946,0.0725\H,0,-1.338113,1.1
 81307,-0.0237\H,0,-0.377311,-1.752136,-0.037774\H,0,0.762512,-0.238161
 ,0.120606\\Version=ES64L-G09RevD.01\State=1-A\HF=-155.6966669\MP2=-155
 .9230706\RMSD=2.894e-09\PG=C01 [X(C4H6)]\\@

 Normal termination of Gaussian 09 at Wed Aug 26 10:05:36 2020.
