 Gaussian 09, Revision D.01,
 Gaussian 09:  ES64L-G09RevD.01 24-Apr-2013

 --------------------
 #p B2PLYPD3/Def2QZVP
 --------------------

 ---------
 butadiene
 ---------
 Symbolic Z-matrix:
 Charge =  0 Multiplicity = 1

                         Standard orientation:
 ---------------------------------------------------------------------
 Center     Atomic      Atomic             Coordinates (Angstroms)
 Number     Number       Type             X           Y           Z
 ---------------------------------------------------------------------
      1          6           0       -1.847591    0.116383   -0.001335
      2          6           0       -0.608760   -0.412425   -0.017444
      3          6           0        0.608694    0.397264   -0.022874
      4          6           0        1.850998   -0.109849    0.015283
      5          1           0       -2.760427   -0.508842    0.091678
      6          1           0       -2.020082    1.178425    0.023014
      7          1           0       -0.475820   -1.466927   -0.018111
      8          1           0        0.497941    1.480562    0.013048
      9          1           0        2.022453   -1.165940    0.017624
     10          1           0        2.715891    0.534483    0.030965
 ---------------------------------------------------------------------

 SCF Done:  E(RB2PLYPD3) =  -155.699650074     A.U. after   11 cycles
 E2(B2PLYPD3) =    -0.2260330558D+00 E(B2PLYPD3) =    -0.15592568312982D+03

 The electronic state is 1-A.
 Alpha  occ. eigenvalues --  -10.62749 -10.62686 -10.61989 -10.61439  -0.92703
 Alpha  occ. eigenvalues --   -0.84679  -0.70118  -0.64420  -0.54374  -0.53939
 Alpha  occ. eigenvalues --   -0.46728  -0.45582  -0.41293  -0.37894  -0.27567
 Alpha virt. eigenvalues --    0.01551   0.06964   0.07500   0.08042   0.09427
 Alpha virt. eigenvalues --    0.11644   0.12463   0.14655   0.15846   0.16228
 Alpha virt. eigenvalues --    0.18866   0.20355   0.21761   0.22933   0.23653

 Mulliken charges:
               1
     1  C   -0.169972
     2  C   -0.040482
     3  C   -0.028611
     4  C   -0.178572
     5  H    0.080039
     6  H    0.067390
     7  H    0.062714
     8  H    0.055367
     9  H    0.066264
    10  H    0.085863
 Sum of Mulliken charges =   0.00000

 Dipole moment (field-independent basis, Debye):
    X=              0.0051    Y=             -0.0005    Z=              0.1161  Tot=              0.1162
 Quadrupole moment (field-independent basis, Debye-Ang):
   XX=            -23.4258   YY=            -23.0854   ZZ=            -29.3455
   XY=             -0.1962   XZ=             -0.1824   YZ=              0.0143

 1\1\GINC-NODE20\SP\RB2PLYPD3-FC\def2QZVP\C4H6\BOITTIER\26-Aug-2020\0\\
 #p B2PLYPD3/Def2QZVP\\butadiene\\0,1\C,0,-3.849479,0.22991,0.022862\C,
 0,-2.724869,-0.511609,0.021279\C,0,-1.382595,0.067526,-0.0056\C,0,-0.2
 50453,-0.651835,0.046481\H,0,-4.858731,-0.219795,0.132412\H,0,-3.82973
 4,1.305954,0.018621\H,0,-2.782078,-1.572556,0.048981\H,0,-1.29826,1.15
 3773,0.001172\H,0,-0.270035,-1.721135,0.077243\H,0,0.715526,-0.171907,
 0.045061\\Version=ES64L-G09RevD.01\State=1-A\HF=-155.6996501\MP2=-155.
 9256831\RMSD=3.398e-09\PG=C01 [X(C4H6)]\\@

 Normal termination of Gaussian 09 at Wed Aug 26 09:08:24 2020.
