 Gaussian 09, Revision D.01,
 Gaussian 09:  ES64L-G09RevD.01 24-Apr-2013

 --------------------
 #p B2PLYPD3/Def2QZVP
 --------------------

 ---------
 butadiene
 ---------
 Symbolic Z-matrix:
 Charge =  0 Multiplicity = 1

                         Standard orientation:
 ---------------------------------------------------------------------
 Center     Atomic      Atomic             Coordinates (Angstroms)
 Number     Number       Type             X           Y           Z
 ---------------------------------------------------------------------
      1          6           0       -1.824698   -0.124942   -0.040476
      2          6           0       -0.606254    0.416602    0.060930
      3          6           0        0.603692   -0.388824    0.020748
      4          6           0        1.843150    0.102336   -0.031777
      5          1           0       -2.743451    0.475377   -0.114333
      6          1           0       -1.899786   -1.220627   -0.001073
      7          1           0       -0.530781    1.502536    0.049870
      8          1           0        0.401472   -1.424441    0.116701
      9          1           0        1.934486    1.195081   -0.017441
     10          1           0        2.742720   -0.558957   -0.090274
 ---------------------------------------------------------------------

 SCF Done:  E(RB2PLYPD3) =  -155.696018939     A.U. after   11 cycles
 E2(B2PLYPD3) =    -0.2262992832D+00 E(B2PLYPD3) =    -0.15592231822215D+03

 The electronic state is 1-A.
 Alpha  occ. eigenvalues --  -10.62513 -10.62273 -10.62025 -10.61930  -0.93151
 Alpha  occ. eigenvalues --   -0.84752  -0.69552  -0.64258  -0.54095  -0.53752
 Alpha  occ. eigenvalues --   -0.46602  -0.45242  -0.41357  -0.38015  -0.27677
 Alpha virt. eigenvalues --    0.01785   0.06995   0.07369   0.07977   0.09454
 Alpha virt. eigenvalues --    0.11673   0.12450   0.14427   0.15565   0.16215
 Alpha virt. eigenvalues --    0.18582   0.20032   0.21493   0.23089   0.23986

 Mulliken charges:
               1
     1  C   -0.174448
     2  C   -0.028386
     3  C   -0.028379
     4  C   -0.180030
     5  H    0.086831
     6  H    0.059553
     7  H    0.051196
     8  H    0.056853
     9  H    0.066940
    10  H    0.089869
 Sum of Mulliken charges =   0.00000

 Dipole moment (field-independent basis, Debye):
    X=             -0.0669    Y=              0.0002    Z=              0.0034  Tot=              0.0670
 Quadrupole moment (field-independent basis, Debye-Ang):
   XX=            -23.6686   YY=            -23.1714   ZZ=            -29.3214
   XY=             -0.1704   XZ=              0.1001   YZ=             -0.1241

 1\1\GINC-NODE20\SP\RB2PLYPD3-FC\def2QZVP\C4H6\BOITTIER\26-Aug-2020\0\\
 #p B2PLYPD3/Def2QZVP\\butadiene\\0,1\C,0,-3.827545,0.232135,0.058925\C
 ,0,-2.724362,-0.519308,-0.021554\C,0,-1.391039,0.060662,-0.008112\C,0,
 -0.257532,-0.639544,0.063494\H,0,-4.837488,-0.193517,0.152623\H,0,-3.7
 08191,1.321796,-0.019253\H,0,-2.841753,-1.600437,0.027954\H,0,-1.40769
 6,1.11171,-0.140865\H,0,-0.360635,-1.731063,0.087886\H,0,0.744935,-0.1
 45892,0.099887\\Version=ES64L-G09RevD.01\State=1-A\HF=-155.6960189\MP2
 =-155.9223182\RMSD=4.450e-09\PG=C01 [X(C4H6)]\\@

 Normal termination of Gaussian 09 at Wed Aug 26 09:33:09 2020.
