 Gaussian 09, Revision D.01,
 Gaussian 09:  ES64L-G09RevD.01 24-Apr-2013

 --------------------
 #p B2PLYPD3/Def2QZVP
 --------------------

 ---------
 butadiene
 ---------
 Symbolic Z-matrix:
 Charge =  0 Multiplicity = 1

                         Standard orientation:
 ---------------------------------------------------------------------
 Center     Atomic      Atomic             Coordinates (Angstroms)
 Number     Number       Type             X           Y           Z
 ---------------------------------------------------------------------
      1          6           0        1.827885   -0.108570   -0.013277
      2          6           0        0.595235    0.423307    0.000275
      3          6           0       -0.584131   -0.405726    0.019994
      4          6           0       -1.827868    0.106032   -0.034827
      5          1           0        2.699813    0.491091    0.023965
      6          1           0        1.941212   -1.222219   -0.049693
      7          1           0        0.461702    1.509232    0.076362
      8          1           0       -0.437042   -1.451972    0.062962
      9          1           0       -2.072682    1.170942   -0.001980
     10          1           0       -2.659730   -0.587331    0.055393
 ---------------------------------------------------------------------

 SCF Done:  E(RB2PLYPD3) =  -155.697159581     A.U. after   11 cycles
 E2(B2PLYPD3) =    -0.2263185831D+00 E(B2PLYPD3) =    -0.15592347816367D+03

 The electronic state is 1-A.
 Alpha  occ. eigenvalues --  -10.62557 -10.62305 -10.61709 -10.61700  -0.93111
 Alpha  occ. eigenvalues --   -0.84535  -0.70074  -0.64240  -0.54612  -0.53659
 Alpha  occ. eigenvalues --   -0.46629  -0.45252  -0.41543  -0.38078  -0.27378
 Alpha virt. eigenvalues --    0.01581   0.07046   0.07288   0.08090   0.09385
 Alpha virt. eigenvalues --    0.11718   0.12355   0.14766   0.15836   0.16126
 Alpha virt. eigenvalues --    0.18692   0.20289   0.21614   0.22822   0.24033

 Mulliken charges:
               1
     1  C   -0.178836
     2  C   -0.025874
     3  C   -0.035764
     4  C   -0.174047
     5  H    0.089468
     6  H    0.059980
     7  H    0.056321
     8  H    0.062299
     9  H    0.069863
    10  H    0.076590
 Sum of Mulliken charges =   0.00000

 Dipole moment (field-independent basis, Debye):
    X=              0.0299    Y=              0.0200    Z=              0.1713  Tot=              0.1750
 Quadrupole moment (field-independent basis, Debye-Ang):
   XX=            -23.8388   YY=            -22.9110   ZZ=            -29.3329
   XY=             -0.2074   XZ=             -0.1640   YZ=              0.0577

 1\1\GINC-NODE13\SP\RB2PLYPD3-FC\def2QZVP\C4H6\BOITTIER\26-Aug-2020\0\\
 #p B2PLYPD3/Def2QZVP\\butadiene\\0,1\C,0,-3.826527,0.232025,0.005153\C
 ,0,-2.71408,-0.518759,0.041025\C,0,-1.4012,0.076988,0.036478\C,0,-0.27
 4326,-0.658433,0.003368\H,0,-4.794547,-0.193632,0.059853\H,0,-3.731145
 ,1.345443,-0.069598\H,0,-2.784339,-1.60735,0.154547\H,0,-1.351274,1.13
 3195,0.043247\H,0,-0.231468,-1.748531,0.073338\H,0,0.67211,-0.128967,0
 .072724\\Version=ES64L-G09RevD.01\State=1-A\HF=-155.6971596\MP2=-155.9
 234782\RMSD=5.200e-09\PG=C01 [X(C4H6)]\\@

 Normal termination of Gaussian 09 at Wed Aug 26 11:09:05 2020.
