 Gaussian 09, Revision D.01,
 Gaussian 09:  ES64L-G09RevD.01 24-Apr-2013

 --------------------
 #p B2PLYPD3/Def2QZVP
 --------------------

 ---------
 butadiene
 ---------
 Symbolic Z-matrix:
 Charge =  0 Multiplicity = 1

                         Standard orientation:
 ---------------------------------------------------------------------
 Center     Atomic      Atomic             Coordinates (Angstroms)
 Number     Number       Type             X           Y           Z
 ---------------------------------------------------------------------
      1          6           0        1.861701   -0.082509   -0.040311
      2          6           0        0.585083    0.373998    0.014915
      3          6           0       -0.595684   -0.443531    0.002303
      4          6           0       -1.840581    0.114619   -0.061348
      5          1           0        2.683836    0.558299    0.056917
      6          1           0        2.030219   -1.103791   -0.087710
      7          1           0        0.481326    1.427013    0.248474
      8          1           0       -0.385078   -1.468841    0.221201
      9          1           0       -1.958321    1.197794   -0.086636
     10          1           0       -2.915096   -0.385933    0.154403
 ---------------------------------------------------------------------

 SCF Done:  E(RB2PLYPD3) =  -155.678730316     A.U. after   11 cycles
 E2(B2PLYPD3) =    -0.2277172089D+00 E(B2PLYPD3) =    -0.15590644752509D+03

 The electronic state is 1-A.
 Alpha  occ. eigenvalues --  -10.63649 -10.63261 -10.62580 -10.60931  -0.93037
 Alpha  occ. eigenvalues --   -0.84219  -0.70476  -0.64597  -0.54769  -0.53217
 Alpha  occ. eigenvalues --   -0.47634  -0.44750  -0.41348  -0.37179  -0.27360
 Alpha virt. eigenvalues --    0.00779   0.06987   0.07431   0.07766   0.09208
 Alpha virt. eigenvalues --    0.11445   0.12621   0.14415   0.15547   0.16408
 Alpha virt. eigenvalues --    0.18929   0.19630   0.21835   0.22371   0.23790

 Mulliken charges:
               1
     1  C   -0.188308
     2  C   -0.017097
     3  C   -0.048830
     4  C   -0.155665
     5  H    0.089686
     6  H    0.063880
     7  H    0.056632
     8  H    0.066923
     9  H    0.063653
    10  H    0.069127
 Sum of Mulliken charges =   0.00000

 Dipole moment (field-independent basis, Debye):
    X=              0.0379    Y=              0.0583    Z=              0.4661  Tot=              0.4713
 Quadrupole moment (field-independent basis, Debye-Ang):
   XX=            -23.2720   YY=            -23.5609   ZZ=            -29.2945
   XY=             -0.5038   XZ=             -0.2821   YZ=             -0.0136

 1\1\GINC-NODE08\SP\RB2PLYPD3-FC\def2QZVP\C4H6\BOITTIER\26-Aug-2020\0\\
 #p B2PLYPD3/Def2QZVP\\butadiene\\0,1\C,0,-3.866663,0.204092,-0.015204\
 C,0,-2.695886,-0.477845,0.058571\C,0,-1.384794,0.107704,0.028681\C,0,-
 0.263978,-0.671609,-0.013695\H,0,-4.792668,-0.271451,0.09601\H,0,-3.84
 4297,1.237195,-0.091748\H,0,-2.787638,-1.524963,0.321785\H,0,-1.402897
 ,1.160013,0.218022\H,0,-0.347693,-1.758225,-0.008322\H,0,0.884453,-0.3
 71505,0.193008\\Version=ES64L-G09RevD.01\State=1-A\HF=-155.6787303\MP2
 =-155.9064475\RMSD=9.136e-09\PG=C01 [X(C4H6)]\\@

 Normal termination of Gaussian 09 at Wed Aug 26 14:13:36 2020.
