 Gaussian 09, Revision D.01,
 Gaussian 09:  ES64L-G09RevD.01 24-Apr-2013

 --------------------
 #p B2PLYPD3/Def2QZVP
 --------------------

 ---------
 butadiene
 ---------
 Symbolic Z-matrix:
 Charge =  0 Multiplicity = 1

                         Standard orientation:
 ---------------------------------------------------------------------
 Center     Atomic      Atomic             Coordinates (Angstroms)
 Number     Number       Type             X           Y           Z
 ---------------------------------------------------------------------
      1          6           0       -1.860100    0.134810    0.008087
      2          6           0       -0.617847   -0.459092    0.005171
      3          6           0        0.621962    0.349300   -0.043877
      4          6           0        1.872524   -0.077619   -0.019221
      5          1           0       -2.801760   -0.400474   -0.041854
      6          1           0       -1.956066    1.206553    0.104919
      7          1           0       -0.373394   -1.465701   -0.073356
      8          1           0        0.375897    1.436162    0.051991
      9          1           0        1.986111   -1.100847    0.229500
     10          1           0        2.669977    0.639917    0.027843
 ---------------------------------------------------------------------

 SCF Done:  E(RB2PLYPD3) =  -155.684983203     A.U. after   11 cycles
 E2(B2PLYPD3) =    -0.2268565984D+00 E(B2PLYPD3) =    -0.15591183980100D+03

 The electronic state is 1-A.
 Alpha  occ. eigenvalues --  -10.63207 -10.62725 -10.62602 -10.60957  -0.92661
 Alpha  occ. eigenvalues --   -0.84755  -0.70789  -0.64091  -0.54859  -0.53392
 Alpha  occ. eigenvalues --   -0.47985  -0.45711  -0.40487  -0.37421  -0.27668
 Alpha virt. eigenvalues --    0.01117   0.06974   0.07412   0.08263   0.09107
 Alpha virt. eigenvalues --    0.11713   0.12563   0.14681   0.15383   0.16308
 Alpha virt. eigenvalues --    0.18751   0.19722   0.21806   0.23009   0.24019

 Mulliken charges:
               1
     1  C   -0.167502
     2  C   -0.055826
     3  C   -0.001144
     4  C   -0.185997
     5  H    0.086702
     6  H    0.069502
     7  H    0.062545
     8  H    0.037552
     9  H    0.062355
    10  H    0.091813
 Sum of Mulliken charges =   0.00000

 Dipole moment (field-independent basis, Debye):
    X=             -0.1526    Y=              0.0270    Z=              0.2630  Tot=              0.3053
 Quadrupole moment (field-independent basis, Debye-Ang):
   XX=            -23.4653   YY=            -23.4262   ZZ=            -29.2767
   XY=             -0.2579   XZ=              0.5920   YZ=              0.0738

 1\1\GINC-NODE07\SP\RB2PLYPD3-FC\def2QZVP\C4H6\BOITTIER\26-Aug-2020\0\\
 #p B2PLYPD3/Def2QZVP\\butadiene\\0,1\C,0,-3.857289,0.260745,0.024508\C
 ,0,-2.743614,-0.548822,0.04036\C,0,-1.377453,0.019824,-0.016872\C,0,-0
 .225334,-0.626529,0.023387\H,0,-4.880412,-0.095514,-0.020712\H,0,-3.75
 7158,1.33381,0.100157\H,0,-2.685938,-1.584451,-0.017361\H,0,-1.422174,
 1.134994,0.056635\H,0,-0.300127,-1.648195,0.292393\H,0,0.689104,-0.064
 954,0.061375\\Version=ES64L-G09RevD.01\State=1-A\HF=-155.6849832\MP2=-
 155.9118398\RMSD=7.657e-09\PG=C01 [X(C4H6)]\\@

 Normal termination of Gaussian 09 at Wed Aug 26 12:04:34 2020.
