 Gaussian 09, Revision D.01,
 Gaussian 09:  ES64L-G09RevD.01 24-Apr-2013

 --------------------
 #p B2PLYPD3/Def2QZVP
 --------------------

 ---------
 butadiene
 ---------
 Symbolic Z-matrix:
 Charge =  0 Multiplicity = 1

                         Standard orientation:
 ---------------------------------------------------------------------
 Center     Atomic      Atomic             Coordinates (Angstroms)
 Number     Number       Type             X           Y           Z
 ---------------------------------------------------------------------
      1          6           0       -1.832032    0.098042   -0.009610
      2          6           0       -0.601337   -0.397612    0.002890
      3          6           0        0.600912    0.428484   -0.003950
      4          6           0        1.834267   -0.117219    0.000771
      5          1           0       -2.694703   -0.537098   -0.010077
      6          1           0       -2.026485    1.171463    0.009954
      7          1           0       -0.459002   -1.471229    0.078762
      8          1           0        0.463645    1.490264    0.025260
      9          1           0        1.958080   -1.186471   -0.063662
     10          1           0        2.747607    0.462899    0.019165
 ---------------------------------------------------------------------

 SCF Done:  E(RB2PLYPD3) =  -155.700530506     A.U. after   11 cycles
 E2(B2PLYPD3) =    -0.2257079526D+00 E(B2PLYPD3) =    -0.15592623845817D+03

 The electronic state is 1-A.
 Alpha  occ. eigenvalues --  -10.62668 -10.62402 -10.61668 -10.61276  -0.92947
 Alpha  occ. eigenvalues --   -0.84778  -0.70091  -0.64361  -0.54717  -0.53827
 Alpha  occ. eigenvalues --   -0.46774  -0.45555  -0.41341  -0.37995  -0.27602
 Alpha virt. eigenvalues --    0.01788   0.07050   0.07404   0.08128   0.09385
 Alpha virt. eigenvalues --    0.11671   0.12544   0.14648   0.15844   0.16241
 Alpha virt. eigenvalues --    0.18773   0.20461   0.21756   0.22957   0.23822

 Mulliken charges:
               1
     1  C   -0.176366
     2  C   -0.026727
     3  C   -0.037822
     4  C   -0.174142
     5  H    0.084528
     6  H    0.063221
     7  H    0.056775
     8  H    0.061220
     9  H    0.065015
    10  H    0.084298
 Sum of Mulliken charges =   0.00000

 Dipole moment (field-independent basis, Debye):
    X=              0.0050    Y=              0.0028    Z=              0.0520  Tot=              0.0524
 Quadrupole moment (field-independent basis, Debye-Ang):
   XX=            -23.4416   YY=            -23.0839   ZZ=            -29.2713
   XY=             -0.2028   XZ=             -0.0831   YZ=              0.0492

 1\1\GINC-NODE03\SP\RB2PLYPD3-FC\def2QZVP\C4H6\BOITTIER\26-Aug-2020\0\\
 #p B2PLYPD3/Def2QZVP\\butadiene\\0,1\C,0,-3.836217,0.213567,0.012083\C
 ,0,-2.716218,-0.497281,0.039267\C,0,-1.383758,0.095723,0.011337\C,0,-0
 .270282,-0.665012,0.032101\H,0,-4.800052,-0.253739,0.027898\H,0,-3.832
 023,1.304583,0.002403\H,0,-2.771323,-1.576448,0.1443\H,0,-1.325415,1.1
 65147,0.011673\H,0,-0.343351,-1.740276,-0.003257\H,0,0.733435,-0.26053
 1,0.035748\\Version=ES64L-G09RevD.01\State=1-A\HF=-155.7005305\MP2=-15
 5.9262385\RMSD=5.410e-09\PG=C01 [X(C4H6)]\\@

 Normal termination of Gaussian 09 at Wed Aug 26 22:02:53 2020.
