 Gaussian 09, Revision D.01,
 Gaussian 09:  ES64L-G09RevD.01 24-Apr-2013

 --------------------
 #p B2PLYPD3/Def2QZVP
 --------------------

 ---------
 butadiene
 ---------
 Symbolic Z-matrix:
 Charge =  0 Multiplicity = 1

                         Standard orientation:
 ---------------------------------------------------------------------
 Center     Atomic      Atomic             Coordinates (Angstroms)
 Number     Number       Type             X           Y           Z
 ---------------------------------------------------------------------
      1          6           0        1.862466    0.094199    0.001656
      2          6           0        0.611791   -0.367184   -0.023668
      3          6           0       -0.631734    0.429955   -0.038839
      4          6           0       -1.847485   -0.146965    0.018745
      5          1           0        2.722525   -0.559816    0.050100
      6          1           0        2.009570    1.167847    0.066580
      7          1           0        0.502997   -1.439578    0.059622
      8          1           0       -0.531887    1.475282    0.024750
      9          1           0       -1.945779   -1.199433   -0.022232
     10          1           0       -2.727651    0.495670    0.073815
 ---------------------------------------------------------------------

 SCF Done:  E(RB2PLYPD3) =  -155.697659269     A.U. after   11 cycles
 E2(B2PLYPD3) =    -0.2257261863D+00 E(B2PLYPD3) =    -0.15592338545484D+03

 The electronic state is 1-A.
 Alpha  occ. eigenvalues --  -10.62655 -10.62454 -10.61701 -10.61383  -0.92639
 Alpha  occ. eigenvalues --   -0.85031  -0.69942  -0.64461  -0.54373  -0.54162
 Alpha  occ. eigenvalues --   -0.47063  -0.45579  -0.41286  -0.37662  -0.27775
 Alpha virt. eigenvalues --    0.01711   0.06993   0.07583   0.08048   0.09430
 Alpha virt. eigenvalues --    0.11700   0.12415   0.14610   0.15835   0.16078
 Alpha virt. eigenvalues --    0.18816   0.20317   0.21380   0.22980   0.24217

 Mulliken charges:
               1
     1  C   -0.179818
     2  C   -0.024615
     3  C   -0.045499
     4  C   -0.174959
     5  H    0.089136
     6  H    0.060548
     7  H    0.050303
     8  H    0.062949
     9  H    0.076620
    10  H    0.085334
 Sum of Mulliken charges =   0.00000

 Dipole moment (field-independent basis, Debye):
    X=             -0.0730    Y=              0.0007    Z=              0.1882  Tot=              0.2019
 Quadrupole moment (field-independent basis, Debye-Ang):
   XX=            -23.5645   YY=            -23.0475   ZZ=            -29.2863
   XY=             -0.1069   XZ=              0.1239   YZ=              0.0882

 1\1\GINC-NODE22\SP\RB2PLYPD3-FC\def2QZVP\C4H6\BOITTIER\26-Aug-2020\0\\
 #p B2PLYPD3/Def2QZVP\\butadiene\\0,1\C,0,-3.871582,0.197738,0.009709\C
 ,0,-2.719039,-0.47117,0.05342\C,0,-1.356733,0.099876,0.046649\C,0,-0.2
 58719,-0.679421,0.011095\H,0,-4.831587,-0.299532,-0.020249\H,0,-3.8316
 79,1.278034,-0.089999\H,0,-2.796858,-1.548382,0.004841\H,0,-1.275156,1
 .144191,-0.050681\H,0,-0.343117,-1.731223,0.086049\H,0,0.718855,-0.200
 137,-0.061984\\Version=ES64L-G09RevD.01\State=1-A\HF=-155.6976593\MP2=
 -155.9233855\RMSD=5.773e-09\PG=C01 [X(C4H6)]\\@

 Normal termination of Gaussian 09 at Wed Aug 26 10:02:25 2020.
