 Gaussian 09, Revision D.01,
 Gaussian 09:  ES64L-G09RevD.01 24-Apr-2013

 --------------------
 #p B2PLYPD3/Def2QZVP
 --------------------

 ---------
 butadiene
 ---------
 Symbolic Z-matrix:
 Charge =  0 Multiplicity = 1

                         Standard orientation:
 ---------------------------------------------------------------------
 Center     Atomic      Atomic             Coordinates (Angstroms)
 Number     Number       Type             X           Y           Z
 ---------------------------------------------------------------------
      1          6           0       -1.835981    0.082710    0.059302
      2          6           0       -0.564060   -0.386629   -0.068655
      3          6           0        0.583276    0.435349   -0.107101
      4          6           0        1.814011   -0.137205    0.099203
      5          1           0       -2.708705   -0.596324    0.155768
      6          1           0       -1.943124    1.127940    0.079544
      7          1           0       -0.278530   -1.387447   -0.144382
      8          1           0        0.406476    1.511927   -0.090358
      9          1           0        1.942826   -1.163969   -0.033019
     10          1           0        2.597582    0.542523    0.135955
 ---------------------------------------------------------------------

 SCF Done:  E(RB2PLYPD3) =  -155.683525759     A.U. after   12 cycles
 E2(B2PLYPD3) =    -0.2273687102D+00 E(B2PLYPD3) =    -0.15591089446946D+03

 The electronic state is 1-A.
 Alpha  occ. eigenvalues --  -10.62650 -10.61905 -10.61752 -10.61237  -0.93687
 Alpha  occ. eigenvalues --   -0.84230  -0.71150  -0.65038  -0.54494  -0.53907
 Alpha  occ. eigenvalues --   -0.47319  -0.45842  -0.42101  -0.37993  -0.26728
 Alpha virt. eigenvalues --    0.00820   0.07073   0.07466   0.08211   0.09236
 Alpha virt. eigenvalues --    0.11882   0.12488   0.14956   0.15749   0.16065
 Alpha virt. eigenvalues --    0.18606   0.19836   0.21771   0.23702   0.23948

 Mulliken charges:
               1
     1  C   -0.195272
     2  C   -0.015821
     3  C   -0.030943
     4  C   -0.183827
     5  H    0.089699
     6  H    0.069887
     7  H    0.054123
     8  H    0.052266
     9  H    0.076659
    10  H    0.083230
 Sum of Mulliken charges =   0.00000

 Dipole moment (field-independent basis, Debye):
    X=              0.0933    Y=              0.0157    Z=             -0.0335  Tot=              0.1003
 Quadrupole moment (field-independent basis, Debye-Ang):
   XX=            -24.1366   YY=            -22.9545   ZZ=            -29.2520
   XY=             -0.2710   XZ=             -0.2852   YZ=              0.1912

 1\1\GINC-NODE08\SP\RB2PLYPD3-FC\def2QZVP\C4H6\BOITTIER\26-Aug-2020\0\\
 #p B2PLYPD3/Def2QZVP\\butadiene\\0,1\C,0,-3.837612,0.220591,0.085676\C
 ,0,-2.680051,-0.487049,-0.031515\C,0,-1.396717,0.098415,-0.093079\C,0,
 -0.297248,-0.694034,0.126648\H,0,-4.823669,-0.2758,0.20112\H,0,-3.7423
 2,1.26714,0.078516\H,0,-2.592106,-1.525651,-0.081221\H,0,-1.363804,1.1
 88986,-0.104472\H,0,-0.368438,-1.729489,0.021352\H,0,0.602285,-0.17645
 6,0.144472\\Version=ES64L-G09RevD.01\State=1-A\HF=-155.6835258\MP2=-15
 5.9108945\RMSD=4.159e-09\PG=C01 [X(C4H6)]\\@

 Normal termination of Gaussian 09 at Wed Aug 26 13:10:30 2020.
