 Gaussian 09, Revision D.01,
 Gaussian 09:  ES64L-G09RevD.01 24-Apr-2013

 --------------------
 #p B2PLYPD3/Def2QZVP
 --------------------

 ---------
 butadiene
 ---------
 Symbolic Z-matrix:
 Charge =  0 Multiplicity = 1

                         Standard orientation:
 ---------------------------------------------------------------------
 Center     Atomic      Atomic             Coordinates (Angstroms)
 Number     Number       Type             X           Y           Z
 ---------------------------------------------------------------------
      1          6           0        1.826387   -0.109582   -0.003571
      2          6           0        0.592865    0.390377    0.006985
      3          6           0       -0.614711   -0.427031    0.010546
      4          6           0       -1.824789    0.115845   -0.010591
      5          1           0        2.727175    0.524504    0.009614
      6          1           0        2.013377   -1.153640   -0.138088
      7          1           0        0.537962    1.536431    0.063956
      8          1           0       -0.450875   -1.490662    0.137668
      9          1           0       -1.934124    1.219433   -0.050253
     10          1           0       -2.772025   -0.453720   -0.043108
 ---------------------------------------------------------------------

 SCF Done:  E(RB2PLYPD3) =  -155.694679090     A.U. after   11 cycles
 E2(B2PLYPD3) =    -0.2262209269D+00 E(B2PLYPD3) =    -0.15592090001655D+03

 The electronic state is 1-A.
 Alpha  occ. eigenvalues --  -10.63074 -10.62732 -10.62058 -10.61333  -0.93002
 Alpha  occ. eigenvalues --   -0.84883  -0.69577  -0.63559  -0.54480  -0.53642
 Alpha  occ. eigenvalues --   -0.46698  -0.44585  -0.40840  -0.38160  -0.27844
 Alpha virt. eigenvalues --    0.01937   0.06987   0.07266   0.07849   0.09373
 Alpha virt. eigenvalues --    0.11611   0.12479   0.14445   0.15624   0.16340
 Alpha virt. eigenvalues --    0.18667   0.20184   0.21627   0.22662   0.23828

 Mulliken charges:
               1
     1  C   -0.176999
     2  C   -0.019861
     3  C   -0.042428
     4  C   -0.162521
     5  H    0.080436
     6  H    0.062627
     7  H    0.047057
     8  H    0.064575
     9  H    0.063212
    10  H    0.083902
 Sum of Mulliken charges =   0.00000

 Dipole moment (field-independent basis, Debye):
    X=             -0.0325    Y=             -0.0379    Z=             -0.0161  Tot=              0.0525
 Quadrupole moment (field-independent basis, Debye-Ang):
   XX=            -23.4298   YY=            -23.2213   ZZ=            -29.3073
   XY=             -0.0958   XZ=             -0.0622   YZ=              0.0359

 1\1\GINC-NODE36\SP\RB2PLYPD3-FC\def2QZVP\C4H6\BOITTIER\26-Aug-2020\0\\
 #p B2PLYPD3/Def2QZVP\\butadiene\\0,1\C,0,-3.833166,0.214116,0.014071\C
 ,0,-2.708003,-0.496424,0.042134\C,0,-1.374462,0.093296,0.024556\C,0,-0
 .280083,-0.656223,0.022143\H,0,-4.832193,-0.249266,0.04373\H,0,-3.8321
 77,1.270399,-0.151406\H,0,-2.857316,-1.631848,0.132779\H,0,-1.346449,1
 .172371,0.120086\H,0,-0.368571,-1.762367,0.015079\H,0,0.75314,-0.26512
 3,-0.024842\\Version=ES64L-G09RevD.01\State=1-A\HF=-155.6946791\MP2=-1
 55.9209\RMSD=3.652e-09\PG=C01 [X(C4H6)]\\@

 Normal termination of Gaussian 09 at Wed Aug 26 10:00:32 2020.
