 Gaussian 09, Revision D.01,
 Gaussian 09:  ES64L-G09RevD.01 24-Apr-2013

 --------------------
 #p B2PLYPD3/Def2QZVP
 --------------------

 ---------
 butadiene
 ---------
 Symbolic Z-matrix:
 Charge =  0 Multiplicity = 1

                         Standard orientation:
 ---------------------------------------------------------------------
 Center     Atomic      Atomic             Coordinates (Angstroms)
 Number     Number       Type             X           Y           Z
 ---------------------------------------------------------------------
      1          6           0       -1.861119   -0.107869    0.033544
      2          6           0       -0.612194    0.367809   -0.044759
      3          6           0        0.621805   -0.410828   -0.024685
      4          6           0        1.849808    0.123152    0.011363
      5          1           0       -2.692585    0.637144    0.008139
      6          1           0       -2.043985   -1.184371    0.093610
      7          1           0       -0.459127    1.459970   -0.093058
      8          1           0        0.507428   -1.480340   -0.050945
      9          1           0        1.935871    1.208629    0.182567
     10          1           0        2.762592   -0.474619    0.006914
 ---------------------------------------------------------------------

 SCF Done:  E(RB2PLYPD3) =  -155.696982388     A.U. after   11 cycles
 E2(B2PLYPD3) =    -0.2264509992D+00 E(B2PLYPD3) =    -0.15592343338697D+03

 The electronic state is 1-A.
 Alpha  occ. eigenvalues --  -10.62783 -10.62608 -10.62146 -10.62021  -0.92758
 Alpha  occ. eigenvalues --   -0.84796  -0.69817  -0.63687  -0.54085  -0.53745
 Alpha  occ. eigenvalues --   -0.46549  -0.45524  -0.40831  -0.37935  -0.27755
 Alpha virt. eigenvalues --    0.01516   0.06905   0.07391   0.07912   0.09623
 Alpha virt. eigenvalues --    0.11680   0.12210   0.14603   0.15832   0.15964
 Alpha virt. eigenvalues --    0.18777   0.20546   0.20958   0.22416   0.23900

 Mulliken charges:
               1
     1  C   -0.181597
     2  C   -0.024595
     3  C   -0.033827
     4  C   -0.172343
     5  H    0.088471
     6  H    0.072117
     7  H    0.047227
     8  H    0.053505
     9  H    0.062599
    10  H    0.088441
 Sum of Mulliken charges =   0.00000

 Dipole moment (field-independent basis, Debye):
    X=              0.0466    Y=             -0.0390    Z=              0.0972  Tot=              0.1146
 Quadrupole moment (field-independent basis, Debye-Ang):
   XX=            -23.6540   YY=            -23.1534   ZZ=            -29.3717
   XY=             -0.0640   XZ=              0.1544   YZ=              0.0729

 1\1\GINC-NODE16\SP\RB2PLYPD3-FC\def2QZVP\C4H6\BOITTIER\26-Aug-2020\0\\
 #p B2PLYPD3/Def2QZVP\\butadiene\\0,1\C,0,-3.866042,0.21378,-0.01392\C,
 0,-2.71951,-0.471566,0.075405\C,0,-1.368252,0.078126,0.038328\C,0,-0.2
 52945,-0.663463,0.014628\H,0,-4.815086,-0.373242,0.027865\H,0,-3.85767
 6,1.304078,-0.098099\H,0,-2.760001,-1.572313,0.14816\H,0,-1.293371,1.1
 51445,0.040633\H,0,-0.359021,-1.750733,-0.132237\H,0,0.750466,-0.23495
 9,0.006008\\Version=ES64L-G09RevD.01\State=1-A\HF=-155.6969824\MP2=-15
 5.9234334\RMSD=3.444e-09\PG=C01 [X(C4H6)]\\@

 Normal termination of Gaussian 09 at Wed Aug 26 08:47:41 2020.
