 Gaussian 09, Revision D.01,
 Gaussian 09:  ES64L-G09RevD.01 24-Apr-2013

 --------------------
 #p B2PLYPD3/Def2QZVP
 --------------------

 ---------
 butadiene
 ---------
 Symbolic Z-matrix:
 Charge =  0 Multiplicity = 1

                         Standard orientation:
 ---------------------------------------------------------------------
 Center     Atomic      Atomic             Coordinates (Angstroms)
 Number     Number       Type             X           Y           Z
 ---------------------------------------------------------------------
      1          6           0       -1.858678    0.100168    0.021303
      2          6           0       -0.610490   -0.384678   -0.024531
      3          6           0        0.608216    0.408379   -0.020705
      4          6           0        1.845526   -0.113333    0.005807
      5          1           0       -2.697969   -0.561649    0.055946
      6          1           0       -2.014396    1.165954    0.019050
      7          1           0       -0.416738   -1.462957   -0.048120
      8          1           0        0.492721    1.492622   -0.058512
      9          1           0        2.008413   -1.204397    0.034937
     10          1           0        2.720522    0.507214    0.105456
 ---------------------------------------------------------------------

 SCF Done:  E(RB2PLYPD3) =  -155.699792642     A.U. after   11 cycles
 E2(B2PLYPD3) =    -0.2261132455D+00 E(B2PLYPD3) =    -0.15592590588796D+03

 The electronic state is 1-A.
 Alpha  occ. eigenvalues --  -10.62761 -10.62690 -10.61903 -10.61498  -0.92817
 Alpha  occ. eigenvalues --   -0.84812  -0.70349  -0.63796  -0.54661  -0.53731
 Alpha  occ. eigenvalues --   -0.46826  -0.45682  -0.41062  -0.37958  -0.27635
 Alpha virt. eigenvalues --    0.01500   0.07004   0.07366   0.08080   0.09614
 Alpha virt. eigenvalues --    0.11663   0.12391   0.14678   0.15841   0.16032
 Alpha virt. eigenvalues --    0.18822   0.20497   0.21509   0.22878   0.23677

 Mulliken charges:
               1
     1  C   -0.181087
     2  C   -0.026697
     3  C   -0.029647
     4  C   -0.174328
     5  H    0.092197
     6  H    0.069143
     7  H    0.049707
     8  H    0.052027
     9  H    0.061580
    10  H    0.087105
 Sum of Mulliken charges =   0.00000

 Dipole moment (field-independent basis, Debye):
    X=              0.0250    Y=              0.0133    Z=              0.0727  Tot=              0.0780
 Quadrupole moment (field-independent basis, Debye-Ang):
   XX=            -23.4545   YY=            -23.1578   ZZ=            -29.3287
   XY=             -0.1357   XZ=              0.1786   YZ=             -0.0096

 1\1\GINC-NODE01\SP\RB2PLYPD3-FC\def2QZVP\C4H6\BOITTIER\26-Aug-2020\0\\
 #p B2PLYPD3/Def2QZVP\\butadiene\\0,1\C,0,-3.860576,0.218811,0.038759\C
 ,0,-2.720671,-0.484805,0.012486\C,0,-1.378716,0.074699,-0.005137\C,0,-
 0.255982,-0.660873,0.042043\H,0,-4.805548,-0.279005,0.091854\H,0,-3.82
 1149,1.294562,0.001905\H,0,-2.725015,-1.580538,0.024034\H,0,-1.296486,
 1.160186,-0.077988\H,0,-0.292856,-1.761906,0.106593\H,0,0.717,-0.20577
 3,0.124606\\Version=ES64L-G09RevD.01\State=1-A\HF=-155.6997926\MP2=-15
 5.9259059\RMSD=2.534e-09\PG=C01 [X(C4H6)]\\@

 Normal termination of Gaussian 09 at Wed Aug 26 20:17:30 2020.
