 Gaussian 09, Revision D.01,
 Gaussian 09:  ES64L-G09RevD.01 24-Apr-2013

 --------------------
 #p B2PLYPD3/Def2QZVP
 --------------------

 ---------
 butadiene
 ---------
 Symbolic Z-matrix:
 Charge =  0 Multiplicity = 1

                         Standard orientation:
 ---------------------------------------------------------------------
 Center     Atomic      Atomic             Coordinates (Angstroms)
 Number     Number       Type             X           Y           Z
 ---------------------------------------------------------------------
      1          6           0       -1.854351   -0.158020    0.060775
      2          6           0       -0.591919    0.448772   -0.055407
      3          6           0        0.609704   -0.337795   -0.075182
      4          6           0        1.861480    0.057026    0.017139
      5          1           0       -2.694895    0.489597   -0.065729
      6          1           0       -2.132364   -1.172377    0.269673
      7          1           0       -0.560803    1.550583   -0.102919
      8          1           0        0.462679   -1.440338   -0.223385
      9          1           0        2.120484    1.068026    0.294583
     10          1           0        2.655417   -0.555387    0.143823
 ---------------------------------------------------------------------

 SCF Done:  E(RB2PLYPD3) =  -155.680688989     A.U. after   12 cycles
 E2(B2PLYPD3) =    -0.2272553775D+00 E(B2PLYPD3) =    -0.15590794436598D+03

 The electronic state is 1-A.
 Alpha  occ. eigenvalues --  -10.64026 -10.62611 -10.62541 -10.60271  -0.92703
 Alpha  occ. eigenvalues --   -0.84589  -0.71500  -0.63784  -0.55190  -0.53956
 Alpha  occ. eigenvalues --   -0.46958  -0.45331  -0.40936  -0.37731  -0.27141
 Alpha virt. eigenvalues --    0.00532   0.07052   0.07544   0.07849   0.09500
 Alpha virt. eigenvalues --    0.11305   0.12572   0.15051   0.15934   0.16525
 Alpha virt. eigenvalues --    0.18995   0.19489   0.22174   0.22430   0.22871

 Mulliken charges:
               1
     1  C   -0.176793
     2  C   -0.057954
     3  C   -0.019809
     4  C   -0.157458
     5  H    0.077264
     6  H    0.081067
     7  H    0.069307
     8  H    0.054901
     9  H    0.048822
    10  H    0.080654
 Sum of Mulliken charges =   0.00000

 Dipole moment (field-independent basis, Debye):
    X=             -0.1032    Y=             -0.0379    Z=              0.2356  Tot=              0.2600
 Quadrupole moment (field-independent basis, Debye-Ang):
   XX=            -23.2731   YY=            -23.2933   ZZ=            -29.1506
   XY=              0.2864   XZ=              0.5929   YZ=             -0.0908

 1\1\GINC-NODE13\SP\RB2PLYPD3-FC\def2QZVP\C4H6\BOITTIER\26-Aug-2020\0\\
 #p B2PLYPD3/Def2QZVP\\butadiene\\0,1\C,0,-3.849059,0.277972,-0.041681\
 C,0,-2.717827,-0.544776,0.095541\C,0,-1.392424,0.008416,0.079382\C,0,-
 0.235065,-0.612474,-0.000397\H,0,-4.792542,-0.19908,0.113841\H,0,-3.93
 8941,1.316958,-0.291236\H,0,-2.888352,-1.630848,0.188181\H,0,-1.33366,
 1.124245,0.182609\H,0,-0.16835,-1.664053,-0.236852\H,0,0.656157,-0.161
 468,-0.154513\\Version=ES64L-G09RevD.01\State=1-A\HF=-155.680689\MP2=-
 155.9079444\RMSD=4.230e-09\PG=C01 [X(C4H6)]\\@

 Normal termination of Gaussian 09 at Wed Aug 26 14:48:52 2020.
