 Gaussian 09, Revision D.01,
 Gaussian 09:  ES64L-G09RevD.01 24-Apr-2013

 --------------------
 #p B2PLYPD3/Def2QZVP
 --------------------

 ---------
 butadiene
 ---------
 Symbolic Z-matrix:
 Charge =  0 Multiplicity = 1

                         Standard orientation:
 ---------------------------------------------------------------------
 Center     Atomic      Atomic             Coordinates (Angstroms)
 Number     Number       Type             X           Y           Z
 ---------------------------------------------------------------------
      1          6           0        1.823985   -0.097517    0.044050
      2          6           0        0.585567    0.398151   -0.057957
      3          6           0       -0.597065   -0.422481   -0.023384
      4          6           0       -1.843498    0.104014    0.029098
      5          1           0        2.761162    0.521327    0.099961
      6          1           0        2.019143   -1.170471   -0.046544
      7          1           0        0.458502    1.517726   -0.022081
      8          1           0       -0.370238   -1.483862   -0.060775
      9          1           0       -1.937045    1.196104   -0.023488
     10          1           0       -2.745459   -0.473828    0.102086
 ---------------------------------------------------------------------

 SCF Done:  E(RB2PLYPD3) =  -155.694249773     A.U. after   11 cycles
 E2(B2PLYPD3) =    -0.2270617424D+00 E(B2PLYPD3) =    -0.15592131151553D+03

 The electronic state is 1-A.
 Alpha  occ. eigenvalues --  -10.62979 -10.62916 -10.62149 -10.62032  -0.93072
 Alpha  occ. eigenvalues --   -0.84352  -0.70113  -0.63736  -0.54770  -0.53027
 Alpha  occ. eigenvalues --   -0.46669  -0.45051  -0.41080  -0.38163  -0.27389
 Alpha virt. eigenvalues --    0.01384   0.06992   0.07195   0.08016   0.09317
 Alpha virt. eigenvalues --    0.11617   0.12538   0.14501   0.15714   0.16246
 Alpha virt. eigenvalues --    0.18706   0.20075   0.21863   0.22952   0.23581

 Mulliken charges:
               1
     1  C   -0.172251
     2  C   -0.017997
     3  C   -0.033855
     4  C   -0.174319
     5  H    0.079297
     6  H    0.059011
     7  H    0.048513
     8  H    0.055709
     9  H    0.064789
    10  H    0.091102
 Sum of Mulliken charges =   0.00000

 Dipole moment (field-independent basis, Debye):
    X=              0.0155    Y=             -0.0334    Z=             -0.0153  Tot=              0.0399
 Quadrupole moment (field-independent basis, Debye-Ang):
   XX=            -23.3713   YY=            -23.3157   ZZ=            -29.4126
   XY=             -0.2444   XZ=             -0.0443   YZ=              0.0916

 1\1\GINC-NODE13\SP\RB2PLYPD3-FC\def2QZVP\C4H6\BOITTIER\26-Aug-2020\0\\
 #p B2PLYPD3/Def2QZVP\\butadiene\\0,1\C,0,-3.830225,0.218996,0.061668\C
 ,0,-2.705526,-0.500981,-0.018695\C,0,-1.391212,0.087054,-0.012078\C,0,
 -0.263639,-0.658916,0.063114\H,0,-4.865544,-0.212985,0.138495\H,0,-3.8
 23683,1.305392,-0.069575\H,0,-2.787869,-1.622583,0.059454\H,0,-1.41769
 ,1.169937,-0.089798\H,0,-0.374233,-1.75062,0.051752\H,0,0.73007,-0.255
 866,0.116549\\Version=ES64L-G09RevD.01\State=1-A\HF=-155.6942498\MP2=-
 155.9213115\RMSD=6.942e-09\PG=C01 [X(C4H6)]\\@

 Normal termination of Gaussian 09 at Wed Aug 26 10:04:51 2020.
