 Gaussian 09, Revision D.01,
 Gaussian 09:  ES64L-G09RevD.01 24-Apr-2013

 --------------------
 #p B2PLYPD3/Def2QZVP
 --------------------

 ---------
 butadiene
 ---------
 Symbolic Z-matrix:
 Charge =  0 Multiplicity = 1

                         Standard orientation:
 ---------------------------------------------------------------------
 Center     Atomic      Atomic             Coordinates (Angstroms)
 Number     Number       Type             X           Y           Z
 ---------------------------------------------------------------------
      1          6           0        1.809704    0.121270   -0.021273
      2          6           0        0.585147   -0.415405    0.023741
      3          6           0       -0.572313    0.389547   -0.005712
      4          6           0       -1.806225   -0.117453   -0.064417
      5          1           0        2.731469   -0.512379   -0.037043
      6          1           0        1.866139    1.203407   -0.026943
      7          1           0        0.568521   -1.488580    0.188469
      8          1           0       -0.509963    1.513357    0.113182
      9          1           0       -2.122409   -1.094622   -0.049390
     10          1           0       -2.631638    0.511064    0.217691
 ---------------------------------------------------------------------

 SCF Done:  E(RB2PLYPD3) =  -155.683975726     A.U. after   11 cycles
 E2(B2PLYPD3) =    -0.2265966386D+00 E(B2PLYPD3) =    -0.15591057236471D+03

 The electronic state is 1-A.
 Alpha  occ. eigenvalues --  -10.62897 -10.62120 -10.61824 -10.60501  -0.93737
 Alpha  occ. eigenvalues --   -0.84959  -0.70365  -0.64096  -0.55564  -0.53554
 Alpha  occ. eigenvalues --   -0.45999  -0.44947  -0.41723  -0.38179  -0.27319
 Alpha virt. eigenvalues --    0.01350   0.07004   0.07238   0.07821   0.09561
 Alpha virt. eigenvalues --    0.11678   0.12621   0.14956   0.15574   0.16454
 Alpha virt. eigenvalues --    0.18795   0.19377   0.21729   0.23165   0.24159

 Mulliken charges:
               1
     1  C   -0.173039
     2  C   -0.032792
     3  C   -0.023460
     4  C   -0.165315
     5  H    0.084252
     6  H    0.063647
     7  H    0.063490
     8  H    0.057414
     9  H    0.063750
    10  H    0.062053
 Sum of Mulliken charges =   0.00000

 Dipole moment (field-independent basis, Debye):
    X=              0.0645    Y=             -0.0913    Z=              0.3709  Tot=              0.3874
 Quadrupole moment (field-independent basis, Debye-Ang):
   XX=            -23.8516   YY=            -23.0976   ZZ=            -29.0981
   XY=              0.0945   XZ=             -0.6471   YZ=              0.1035

 1\1\GINC-NODE05\SP\RB2PLYPD3-FC\def2QZVP\C4H6\BOITTIER\26-Aug-2020\0\\
 #p B2PLYPD3/Def2QZVP\\butadiene\\0,1\C,0,-3.807669,0.233242,0.0396\C,0
 ,-2.700385,-0.516748,0.007584\C,0,-1.416557,0.066616,0.007386\C,0,-0.2
 93778,-0.652695,0.078055\H,0,-4.828381,-0.222858,0.078727\H,0,-3.66804
 3,1.307448,0.010906\H,0,-2.878999,-1.579857,-0.122849\H,0,-1.27637,1.1
 79022,-0.147119\H,0,-0.159084,-1.670873,0.093163\H,0,0.628815,-0.19245
 3,-0.226781\\Version=ES64L-G09RevD.01\State=1-A\HF=-155.6839757\MP2=-1
 55.9105724\RMSD=5.847e-09\PG=C01 [X(C4H6)]\\@

 Normal termination of Gaussian 09 at Wed Aug 26 13:15:08 2020.
