 Gaussian 09, Revision D.01,
 Gaussian 09:  ES64L-G09RevD.01 24-Apr-2013

 --------------------
 #p B2PLYPD3/Def2QZVP
 --------------------

 ---------
 butadiene
 ---------
 Symbolic Z-matrix:
 Charge =  0 Multiplicity = 1

                         Standard orientation:
 ---------------------------------------------------------------------
 Center     Atomic      Atomic             Coordinates (Angstroms)
 Number     Number       Type             X           Y           Z
 ---------------------------------------------------------------------
      1          6           0        1.858737   -0.138800   -0.026902
      2          6           0        0.605489    0.413248    0.002393
      3          6           0       -0.637167   -0.378583    0.033977
      4          6           0       -1.850303    0.090040   -0.032486
      5          1           0        2.685915    0.541585    0.021590
      6          1           0        2.059549   -1.233030   -0.015474
      7          1           0        0.533315    1.559710   -0.002793
      8          1           0       -0.541010   -1.483090    0.136701
      9          1           0       -1.921629    1.220648    0.138767
     10          1           0       -2.676677   -0.521253   -0.140683
 ---------------------------------------------------------------------

 SCF Done:  E(RB2PLYPD3) =  -155.684221566     A.U. after   11 cycles
 E2(B2PLYPD3) =    -0.2268555885D+00 E(B2PLYPD3) =    -0.15591107715411D+03

 The electronic state is 1-A.
 Alpha  occ. eigenvalues --  -10.64027 -10.62462 -10.62355 -10.61149  -0.92607
 Alpha  occ. eigenvalues --   -0.85029  -0.69758  -0.62579  -0.55179  -0.53235
 Alpha  occ. eigenvalues --   -0.46538  -0.44895  -0.41085  -0.37430  -0.27761
 Alpha virt. eigenvalues --    0.01624   0.06963   0.07102   0.07915   0.09440
 Alpha virt. eigenvalues --    0.11587   0.12190   0.14342   0.15614   0.16401
 Alpha virt. eigenvalues --    0.18706   0.19707   0.21500   0.22548   0.24105

 Mulliken charges:
               1
     1  C   -0.177086
     2  C   -0.042490
     3  C   -0.014369
     4  C   -0.175591
     5  H    0.088002
     6  H    0.073909
     7  H    0.046268
     8  H    0.045859
     9  H    0.058439
    10  H    0.097060
 Sum of Mulliken charges =   0.00000

 Dipole moment (field-independent basis, Debye):
    X=              0.0001    Y=             -0.0814    Z=              0.1463  Tot=              0.1675
 Quadrupole moment (field-independent basis, Debye-Ang):
   XX=            -23.6966   YY=            -23.1038   ZZ=            -29.3962
   XY=              0.2941   XZ=              0.1528   YZ=              0.1593

 1\1\GINC-NODE26\SP\RB2PLYPD3-FC\def2QZVP\C4H6\BOITTIER\26-Aug-2020\0\\
 #p B2PLYPD3/Def2QZVP\\butadiene\\0,1\C,0,-3.861545,0.241427,-0.006832\
 C,0,-2.722848,-0.518165,0.044496\C,0,-1.361588,0.046763,0.048498\C,0,-
 0.248419,-0.627272,0.001\H,0,-4.793895,-0.282949,0.065631\H,0,-3.86955
 3,1.353576,-0.036066\H,0,-2.850551,-1.659181,0.081724\H,0,-1.264282,1.
 154215,0.110258\H,0,-0.373312,-1.746083,0.21396\H,0,0.670858,-0.172938
 ,-0.128578\\Version=ES64L-G09RevD.01\State=1-A\HF=-155.6842216\MP2=-15
 5.9110772\RMSD=8.714e-09\PG=C01 [X(C4H6)]\\@

 Normal termination of Gaussian 09 at Wed Aug 26 13:29:52 2020.
