 Gaussian 09, Revision D.01,
 Gaussian 09:  ES64L-G09RevD.01 24-Apr-2013

 --------------------
 #p B2PLYPD3/Def2QZVP
 --------------------

 ---------
 butadiene
 ---------
 Symbolic Z-matrix:
 Charge =  0 Multiplicity = 1

                         Standard orientation:
 ---------------------------------------------------------------------
 Center     Atomic      Atomic             Coordinates (Angstroms)
 Number     Number       Type             X           Y           Z
 ---------------------------------------------------------------------
      1          6           0        1.803811   -0.107930    0.054032
      2          6           0        0.591815    0.371854   -0.015207
      3          6           0       -0.590522   -0.428119   -0.082428
      4          6           0       -1.813938    0.127510    0.040522
      5          1           0        2.563977    0.610374    0.120575
      6          1           0        1.945306   -1.138342   -0.129760
      7          1           0        0.535643    1.511188   -0.127089
      8          1           0       -0.426478   -1.535331    0.034583
      9          1           0       -1.911042    1.282809   -0.049411
     10          1           0       -2.654400   -0.510582    0.169583
 ---------------------------------------------------------------------

 SCF Done:  E(RB2PLYPD3) =  -155.681337081     A.U. after   12 cycles
 E2(B2PLYPD3) =    -0.2267027059D+00 E(B2PLYPD3) =    -0.15590803978641D+03

 The electronic state is 1-A.
 Alpha  occ. eigenvalues --  -10.62921 -10.62466 -10.62072 -10.59996  -0.93617
 Alpha  occ. eigenvalues --   -0.85237  -0.69880  -0.62856  -0.54465  -0.54168
 Alpha  occ. eigenvalues --   -0.45815  -0.45163  -0.41452  -0.38254  -0.27521
 Alpha virt. eigenvalues --    0.01802   0.06791   0.07210   0.07986   0.09333
 Alpha virt. eigenvalues --    0.11850   0.12162   0.14751   0.15138   0.16500
 Alpha virt. eigenvalues --    0.18416   0.19329   0.21162   0.23590   0.24859

 Mulliken charges:
               1
     1  C   -0.188124
     2  C    0.004465
     3  C   -0.042950
     4  C   -0.174062
     5  H    0.084862
     6  H    0.068401
     7  H    0.034799
     8  H    0.051457
     9  H    0.070308
    10  H    0.090843
 Sum of Mulliken charges =   0.00000

 Dipole moment (field-independent basis, Debye):
    X=             -0.0386    Y=             -0.0132    Z=             -0.0621  Tot=              0.0743
 Quadrupole moment (field-independent basis, Debye-Ang):
   XX=            -24.3144   YY=            -22.8973   ZZ=            -29.1875
   XY=              0.2085   XZ=             -0.5253   YZ=             -0.1612

 1\1\GINC-NODE17\SP\RB2PLYPD3-FC\def2QZVP\C4H6\BOITTIER\26-Aug-2020\0\\
 #p B2PLYPD3/Def2QZVP\\butadiene\\0,1\C,0,-3.808664,0.215403,0.067237\C
 ,0,-2.703509,-0.477164,0.013323\C,0,-1.395645,0.094047,-0.061555\C,0,-
 0.293435,-0.671601,0.078103\H,0,-4.686546,-0.35198,0.142335\H,0,-3.760
 699,1.250812,-0.135684\H,0,-2.854453,-1.609704,-0.077913\H,0,-1.356619
 ,1.214634,0.03478\H,0,-0.407068,-1.826846,0.009325\H,0,0.648439,-0.194
 006,0.200452\\Version=ES64L-G09RevD.01\State=1-A\HF=-155.6813371\MP2=-
 155.9080398\RMSD=3.171e-09\PG=C01 [X(C4H6)]\\@

 Normal termination of Gaussian 09 at Wed Aug 26 11:36:11 2020.
