 Gaussian 09, Revision D.01,
 Gaussian 09:  ES64L-G09RevD.01 24-Apr-2013

 --------------------
 #p B2PLYPD3/Def2QZVP
 --------------------

 ---------
 butadiene
 ---------
 Symbolic Z-matrix:
 Charge =  0 Multiplicity = 1

                         Standard orientation:
 ---------------------------------------------------------------------
 Center     Atomic      Atomic             Coordinates (Angstroms)
 Number     Number       Type             X           Y           Z
 ---------------------------------------------------------------------
      1          6           0        1.842562   -0.140211    0.026533
      2          6           0        0.625323    0.420062   -0.086023
      3          6           0       -0.634586   -0.351644   -0.033649
      4          6           0       -1.859330    0.097586    0.043409
      5          1           0        2.858114    0.393705    0.049310
      6          1           0        1.812515   -1.210916    0.351494
      7          1           0        0.579083    1.500196   -0.077458
      8          1           0       -0.414451   -1.327105   -0.255160
      9          1           0       -2.053330    1.152234    0.263955
     10          1           0       -2.625748   -0.662868   -0.033756
 ---------------------------------------------------------------------

 SCF Done:  E(RB2PLYPD3) =  -155.682382122     A.U. after   11 cycles
 E2(B2PLYPD3) =    -0.2261975358D+00 E(B2PLYPD3) =    -0.15590857965775D+03

 The electronic state is 1-A.
 Alpha  occ. eigenvalues --  -10.62805 -10.62674 -10.61625 -10.61381  -0.93086
 Alpha  occ. eigenvalues --   -0.85232  -0.69543  -0.64223  -0.54273  -0.53658
 Alpha  occ. eigenvalues --   -0.47271  -0.45182  -0.40331  -0.37723  -0.28140
 Alpha virt. eigenvalues --    0.01692   0.06931   0.07521   0.07971   0.09374
 Alpha virt. eigenvalues --    0.11658   0.12202   0.14541   0.15119   0.16442
 Alpha virt. eigenvalues --    0.18384   0.19645   0.21020   0.22647   0.23754

 Mulliken charges:
               1
     1  C   -0.168823
     2  C   -0.041672
     3  C   -0.030471
     4  C   -0.185071
     5  H    0.086760
     6  H    0.052989
     7  H    0.053214
     8  H    0.067009
     9  H    0.078842
    10  H    0.087223
 Sum of Mulliken charges =   0.00000

 Dipole moment (field-independent basis, Debye):
    X=              0.0009    Y=              0.0526    Z=              0.2052  Tot=              0.2119
 Quadrupole moment (field-independent basis, Debye-Ang):
   XX=            -23.6611   YY=            -23.4924   ZZ=            -29.0333
   XY=              0.2690   XZ=              0.3923   YZ=              0.1945

 1\1\GINC-NODE32\SP\RB2PLYPD3-FC\def2QZVP\C4H6\BOITTIER\26-Aug-2020\0\\
 #p B2PLYPD3/Def2QZVP\\butadiene\\0,1\C,0,-3.84614,0.240911,0.052672\C,
 0,-2.743027,-0.522144,-0.042905\C,0,-1.369654,0.024468,-0.016312\C,0,-
 0.239015,-0.624555,0.074067\H,0,-4.937712,-0.110864,0.093376\H,0,-3.63
 1875,1.300446,0.343166\H,0,-2.881636,-1.593513,0.000195\H,0,-1.421579,
 1.015744,-0.268752\H,0,-0.226354,-1.689387,0.3281\H,0,0.645374,-0.0088
 68,-0.028041\\Version=ES64L-G09RevD.01\State=1-A\HF=-155.6823821\MP2=-
 155.9085797\RMSD=9.306e-09\PG=C01 [X(C4H6)]\\@

 Normal termination of Gaussian 09 at Wed Aug 26 12:07:35 2020.
