 Gaussian 09, Revision D.01,
 Gaussian 09:  ES64L-G09RevD.01 24-Apr-2013

 --------------------
 #p B2PLYPD3/Def2QZVP
 --------------------

 ---------
 butadiene
 ---------
 Symbolic Z-matrix:
 Charge =  0 Multiplicity = 1

                         Standard orientation:
 ---------------------------------------------------------------------
 Center     Atomic      Atomic             Coordinates (Angstroms)
 Number     Number       Type             X           Y           Z
 ---------------------------------------------------------------------
      1          6           0       -1.834338    0.067969    0.026842
      2          6           0       -0.614216   -0.357128   -0.068399
      3          6           0        0.600311    0.457015   -0.014508
      4          6           0        1.847373   -0.134569    0.028948
      5          1           0       -2.691164   -0.602696    0.148361
      6          1           0       -2.020654    1.150709    0.087601
      7          1           0       -0.393504   -1.465019   -0.031649
      8          1           0        0.333642    1.516748   -0.167724
      9          1           0        1.891725   -1.212670   -0.030861
     10          1           0        2.885171    0.413204    0.156975
 ---------------------------------------------------------------------

 SCF Done:  E(RB2PLYPD3) =  -155.681088732     A.U. after   12 cycles
 E2(B2PLYPD3) =    -0.2276152472D+00 E(B2PLYPD3) =    -0.15590870397886D+03

 The electronic state is 1-A.
 Alpha  occ. eigenvalues --  -10.63886 -10.63652 -10.62358 -10.61332  -0.93026
 Alpha  occ. eigenvalues --   -0.84456  -0.69714  -0.63354  -0.54335  -0.52697
 Alpha  occ. eigenvalues --   -0.47339  -0.44747  -0.40189  -0.37920  -0.27765
 Alpha virt. eigenvalues --    0.01434   0.06910   0.07144   0.07886   0.09266
 Alpha virt. eigenvalues --    0.11500   0.12488   0.14294   0.15207   0.16256
 Alpha virt. eigenvalues --    0.18648   0.19794   0.21892   0.22310   0.24013

 Mulliken charges:
               1
     1  C   -0.173894
     2  C   -0.002742
     3  C   -0.044871
     4  C   -0.171168
     5  H    0.090121
     6  H    0.054282
     7  H    0.036860
     8  H    0.058039
     9  H    0.070477
    10  H    0.082897
 Sum of Mulliken charges =   0.00000

 Dipole moment (field-independent basis, Debye):
    X=             -0.0161    Y=             -0.0325    Z=              0.0929  Tot=              0.0997
 Quadrupole moment (field-independent basis, Debye-Ang):
   XX=            -23.3906   YY=            -23.5432   ZZ=            -29.4154
   XY=             -0.3868   XZ=             -0.2495   YZ=             -0.0896

 1\1\GINC-NODE25\SP\RB2PLYPD3-FC\def2QZVP\C4H6\BOITTIER\26-Aug-2020\0\\
 #p B2PLYPD3/Def2QZVP\\butadiene\\0,1\C,0,-3.843212,0.1875,0.05033\C,0,
 -2.722712,-0.458508,-0.024703\C,0,-1.378925,0.120064,-0.007345\C,0,-0.
 261438,-0.688135,0.06379\H,0,-4.807667,-0.308057,0.201853\H,0,-3.82700
 4,1.287656,0.061483\H,0,-2.708967,-1.585298,0.062719\H,0,-1.447602,1.2
 02776,-0.20894\H,0,-0.416331,-1.757594,0.053293\H,0,0.860287,-0.335293
 ,0.167268\\Version=ES64L-G09RevD.01\State=1-A\HF=-155.6810887\MP2=-155
 .908704\RMSD=3.977e-09\PG=C01 [X(C4H6)]\\@

 Normal termination of Gaussian 09 at Wed Aug 26 13:32:31 2020.
