 Gaussian 09, Revision D.01,
 Gaussian 09:  ES64L-G09RevD.01 24-Apr-2013

 --------------------
 #p B2PLYPD3/Def2QZVP
 --------------------

 ---------
 butadiene
 ---------
 Symbolic Z-matrix:
 Charge =  0 Multiplicity = 1

                         Standard orientation:
 ---------------------------------------------------------------------
 Center     Atomic      Atomic             Coordinates (Angstroms)
 Number     Number       Type             X           Y           Z
 ---------------------------------------------------------------------
      1          6           0       -1.854431    0.100202   -0.014309
      2          6           0       -0.606901   -0.370945    0.000045
      3          6           0        0.627697    0.412582    0.022207
      4          6           0        1.843432   -0.135286   -0.026204
      5          1           0       -2.714780   -0.568332    0.089070
      6          1           0       -2.035864    1.150100   -0.083795
      7          1           0       -0.472935   -1.464800    0.055858
      8          1           0        0.500753    1.467870    0.013532
      9          1           0        2.017295   -1.158752   -0.072492
     10          1           0        2.646753    0.534591    0.107393
 ---------------------------------------------------------------------

 SCF Done:  E(RB2PLYPD3) =  -155.696969477     A.U. after   11 cycles
 E2(B2PLYPD3) =    -0.2253231009D+00 E(B2PLYPD3) =    -0.15592229257825D+03

 The electronic state is 1-A.
 Alpha  occ. eigenvalues --  -10.62517 -10.62368 -10.61395 -10.60846  -0.92900
 Alpha  occ. eigenvalues --   -0.85251  -0.70490  -0.64245  -0.54734  -0.54213
 Alpha  occ. eigenvalues --   -0.47211  -0.45999  -0.40966  -0.37847  -0.27781
 Alpha virt. eigenvalues --    0.01673   0.06982   0.07563   0.08081   0.09687
 Alpha virt. eigenvalues --    0.11763   0.12363   0.14971   0.15699   0.16096
 Alpha virt. eigenvalues --    0.18889   0.20293   0.21663   0.22809   0.24035

 Mulliken charges:
               1
     1  C   -0.182804
     2  C   -0.021653
     3  C   -0.040852
     4  C   -0.173619
     5  H    0.087471
     6  H    0.065252
     7  H    0.047238
     8  H    0.059279
     9  H    0.075788
    10  H    0.083900
 Sum of Mulliken charges =   0.00000

 Dipole moment (field-independent basis, Debye):
    X=              0.0563    Y=              0.0196    Z=              0.1053  Tot=              0.1210
 Quadrupole moment (field-independent basis, Debye-Ang):
   XX=            -23.6041   YY=            -23.0175   ZZ=            -29.1594
   XY=             -0.2121   XZ=              0.0317   YZ=             -0.0556

 1\1\GINC-NODE25\SP\RB2PLYPD3-FC\def2QZVP\C4H6\BOITTIER\26-Aug-2020\0\\
 #p B2PLYPD3/Def2QZVP\\butadiene\\0,1\C,0,-3.860927,0.211654,0.005481\C
 ,0,-2.716688,-0.472543,0.038762\C,0,-1.362622,0.079851,0.036696\C,0,-0
 .263528,-0.676313,0.009816\H,0,-4.825791,-0.28973,0.129885\H,0,-3.8535
 51,1.274084,-0.100448\H,0,-2.778628,-1.570255,0.132433\H,0,-1.300426,1
 .139997,-0.008524\H,0,-0.274121,-1.715364,-0.000885\H,0,0.646384,-0.15
 5384,0.122076\\Version=ES64L-G09RevD.01\State=1-A\HF=-155.6969695\MP2=
 -155.9222926\RMSD=6.552e-09\PG=C01 [X(C4H6)]\\@

 Normal termination of Gaussian 09 at Wed Aug 26 10:36:39 2020.
