 Gaussian 09, Revision D.01,
 Gaussian 09:  ES64L-G09RevD.01 24-Apr-2013

 --------------------
 #p B2PLYPD3/Def2QZVP
 --------------------

 ---------
 butadiene
 ---------
 Symbolic Z-matrix:
 Charge =  0 Multiplicity = 1

                         Standard orientation:
 ---------------------------------------------------------------------
 Center     Atomic      Atomic             Coordinates (Angstroms)
 Number     Number       Type             X           Y           Z
 ---------------------------------------------------------------------
      1          6           0        1.829954   -0.093292    0.039000
      2          6           0        0.577795    0.444850   -0.012118
      3          6           0       -0.592200   -0.405103   -0.037062
      4          6           0       -1.822123    0.074295   -0.006138
      5          1           0        2.880308    0.356287    0.052260
      6          1           0        1.858255   -1.220624   -0.063016
      7          1           0        0.372235    1.565232   -0.077084
      8          1           0       -0.319194   -1.428119   -0.048841
      9          1           0       -2.094748    1.173341    0.032142
     10          1           0       -2.657404   -0.570614    0.202446
 ---------------------------------------------------------------------

 SCF Done:  E(RB2PLYPD3) =  -155.682003384     A.U. after   11 cycles
 E2(B2PLYPD3) =    -0.2277889406D+00 E(B2PLYPD3) =    -0.15590979232416D+03

 The electronic state is 1-A.
 Alpha  occ. eigenvalues --  -10.63683 -10.63249 -10.62326 -10.61878  -0.93271
 Alpha  occ. eigenvalues --   -0.84160  -0.69713  -0.63865  -0.54956  -0.52232
 Alpha  occ. eigenvalues --   -0.47316  -0.43970  -0.40809  -0.38070  -0.27502
 Alpha virt. eigenvalues --    0.01410   0.06936   0.07012   0.08089   0.09125
 Alpha virt. eigenvalues --    0.11417   0.12617   0.14241   0.15843   0.16199
 Alpha virt. eigenvalues --    0.18637   0.20293   0.21498   0.22339   0.24055

 Mulliken charges:
               1
     1  C   -0.167648
     2  C   -0.024301
     3  C   -0.025578
     4  C   -0.164786
     5  H    0.086947
     6  H    0.043035
     7  H    0.050302
     8  H    0.061799
     9  H    0.060275
    10  H    0.079954
 Sum of Mulliken charges =   0.00000

 Dipole moment (field-independent basis, Debye):
    X=              0.0059    Y=             -0.0231    Z=              0.0595  Tot=              0.0641
 Quadrupole moment (field-independent basis, Debye-Ang):
   XX=            -23.3129   YY=            -23.5405   ZZ=            -29.4276
   XY=             -0.5347   XZ=             -0.6438   YZ=             -0.0380

 1\1\GINC-NODE18\SP\RB2PLYPD3-FC\def2QZVP\C4H6\BOITTIER\26-Aug-2020\0\\
 #p B2PLYPD3/Def2QZVP\\butadiene\\0,1\C,0,-3.83023,0.232677,0.049855\C,
 0,-2.705554,-0.538287,0.021038\C,0,-1.393305,0.068786,-0.016315\C,0,-0
 .279287,-0.638173,0.035279\H,0,-4.947694,-0.005097,0.066556\H,0,-3.639
 9,1.341275,-0.080033\H,0,-2.720231,-1.678561,-0.014889\H,0,-1.463438,1
 .124628,-0.055203\H,0,-0.224283,-1.767839,0.102525\H,0,0.664384,-0.161
 616,0.233993\\Version=ES64L-G09RevD.01\State=1-A\HF=-155.6820034\MP2=-
 155.9097923\RMSD=8.472e-09\PG=C01 [X(C4H6)]\\@

 Normal termination of Gaussian 09 at Wed Aug 26 14:02:46 2020.
