 Gaussian 09, Revision D.01,
 Gaussian 09:  ES64L-G09RevD.01 24-Apr-2013

 --------------------
 #p B2PLYPD3/Def2QZVP
 --------------------

 ---------
 butadiene
 ---------
 Symbolic Z-matrix:
 Charge =  0 Multiplicity = 1

                         Standard orientation:
 ---------------------------------------------------------------------
 Center     Atomic      Atomic             Coordinates (Angstroms)
 Number     Number       Type             X           Y           Z
 ---------------------------------------------------------------------
      1          6           0       -1.841728   -0.143068    0.033579
      2          6           0       -0.608524    0.420355   -0.024483
      3          6           0        0.603190   -0.336590   -0.058767
      4          6           0        1.838203    0.064274    0.068229
      5          1           0       -2.642779    0.566778   -0.197609
      6          1           0       -2.094291   -1.185507    0.276269
      7          1           0       -0.439518    1.519048    0.011212
      8          1           0        0.368610   -1.436732   -0.167137
      9          1           0        2.103923    1.104184    0.063208
     10          1           0        2.757210   -0.597599   -0.097296
 ---------------------------------------------------------------------

 SCF Done:  E(RB2PLYPD3) =  -155.681753261     A.U. after   12 cycles
 E2(B2PLYPD3) =    -0.2271166882D+00 E(B2PLYPD3) =    -0.15590886994933D+03

 The electronic state is 1-A.
 Alpha  occ. eigenvalues --  -10.63158 -10.62545 -10.62270 -10.61675  -0.93303
 Alpha  occ. eigenvalues --   -0.84881  -0.70493  -0.63173  -0.54491  -0.53437
 Alpha  occ. eigenvalues --   -0.46748  -0.45748  -0.39705  -0.37975  -0.27638
 Alpha virt. eigenvalues --    0.00900   0.06873   0.07278   0.07863   0.09753
 Alpha virt. eigenvalues --    0.11611   0.12225   0.14741   0.15522   0.16083
 Alpha virt. eigenvalues --    0.18995   0.20070   0.21419   0.22174   0.23346

 Mulliken charges:
               1
     1  C   -0.181060
     2  C   -0.042038
     3  C   -0.013961
     4  C   -0.160908
     5  H    0.082083
     6  H    0.085418
     7  H    0.055717
     8  H    0.042024
     9  H    0.057056
    10  H    0.075668
 Sum of Mulliken charges =   0.00000

 Dipole moment (field-independent basis, Debye):
    X=             -0.0566    Y=              0.0484    Z=             -0.1153  Tot=              0.1373
 Quadrupole moment (field-independent basis, Debye-Ang):
   XX=            -23.5810   YY=            -23.4684   ZZ=            -29.1727
   XY=              0.6717   XZ=             -0.2834   YZ=             -0.2128

 1\1\GINC-NODE25\SP\RB2PLYPD3-FC\def2QZVP\C4H6\BOITTIER\26-Aug-2020\0\\
 #p B2PLYPD3/Def2QZVP\\butadiene\\0,1\C,0,-3.833474,0.267275,-0.020553\
 C,0,-2.726779,-0.513088,0.068147\C,0,-1.395026,0.005361,0.074179\C,0,-
 0.256948,-0.624053,-0.029226\H,0,-4.751966,-0.269692,0.238386\H,0,-3.8
 88113,1.326645,-0.310583\H,0,-2.765795,-1.624503,0.082197\H,0,-1.41988
 3,1.13367,0.132369\H,0,-0.189827,-1.693996,0.02332\H,0,0.77001,-0.1384
 69,0.110822\\Version=ES64L-G09RevD.01\State=1-A\HF=-155.6817533\MP2=-1
 55.9088699\RMSD=3.717e-09\PG=C01 [X(C4H6)]\\@

 Normal termination of Gaussian 09 at Wed Aug 26 12:04:36 2020.
