 Gaussian 09, Revision D.01,
 Gaussian 09:  ES64L-G09RevD.01 24-Apr-2013

 --------------------
 #p B2PLYPD3/Def2QZVP
 --------------------

 ---------
 butadiene
 ---------
 Symbolic Z-matrix:
 Charge =  0 Multiplicity = 1

                         Standard orientation:
 ---------------------------------------------------------------------
 Center     Atomic      Atomic             Coordinates (Angstroms)
 Number     Number       Type             X           Y           Z
 ---------------------------------------------------------------------
      1          6           0       -1.836811    0.091506    0.003643
      2          6           0       -0.600524   -0.392434   -0.038532
      3          6           0        0.614764    0.441400   -0.020292
      4          6           0        1.823663   -0.133785    0.021752
      5          1           0       -2.721786   -0.527443    0.182379
      6          1           0       -1.995195    1.157883    0.006304
      7          1           0       -0.407703   -1.431939   -0.074621
      8          1           0        0.545943    1.549300   -0.008088
      9          1           0        1.887783   -1.243120    0.041228
     10          1           0        2.684405    0.455194    0.053379
 ---------------------------------------------------------------------

 SCF Done:  E(RB2PLYPD3) =  -155.696224935     A.U. after   11 cycles
 E2(B2PLYPD3) =    -0.2257993701D+00 E(B2PLYPD3) =    -0.15592202430459D+03

 The electronic state is 1-A.
 Alpha  occ. eigenvalues --  -10.62913 -10.62334 -10.61414 -10.61370  -0.92869
 Alpha  occ. eigenvalues --   -0.84959  -0.69762  -0.64144  -0.54850  -0.53627
 Alpha  occ. eigenvalues --   -0.46750  -0.45385  -0.41375  -0.37866  -0.27725
 Alpha virt. eigenvalues --    0.01984   0.07065   0.07317   0.08122   0.09264
 Alpha virt. eigenvalues --    0.11724   0.12535   0.14473   0.15762   0.16246
 Alpha virt. eigenvalues --    0.18776   0.20108   0.21652   0.23268   0.23890

 Mulliken charges:
               1
     1  C   -0.172205
     2  C   -0.031091
     3  C   -0.033853
     4  C   -0.178132
     5  H    0.083140
     6  H    0.063811
     7  H    0.061764
     8  H    0.053440
     9  H    0.062345
    10  H    0.090782
 Sum of Mulliken charges =   0.00000

 Dipole moment (field-independent basis, Debye):
    X=              0.0644    Y=              0.0309    Z=              0.1474  Tot=              0.1638
 Quadrupole moment (field-independent basis, Debye-Ang):
   XX=            -23.7285   YY=            -23.0045   ZZ=            -29.2541
   XY=             -0.0066   XZ=             -0.3166   YZ=             -0.0556

 1\1\GINC-NODE01\SP\RB2PLYPD3-FC\def2QZVP\C4H6\BOITTIER\26-Aug-2020\0\\
 #p B2PLYPD3/Def2QZVP\\butadiene\\0,1\C,0,-3.843554,0.202572,0.03058\C,
 0,-2.713673,-0.49529,0.003427\C,0,-1.369092,0.108476,-0.006847\C,0,-0.
 281865,-0.671507,0.053208\H,0,-4.823494,-0.242434,0.230363\H,0,-3.8092
 45,1.279616,-0.001852\H,0,-2.709529,-1.553134,0.001534\H,0,-1.23919,1.
 210684,-0.031183\H,0,-0.416438,-1.773262,0.109259\H,0,0.67029,-0.24484
 4,0.064682\\Version=ES64L-G09RevD.01\State=1-A\HF=-155.6962249\MP2=-15
 5.9220243\RMSD=5.461e-09\PG=C01 [X(C4H6)]\\@

 Normal termination of Gaussian 09 at Wed Aug 26 11:10:26 2020.
