 Gaussian 09, Revision D.01,
 Gaussian 09:  ES64L-G09RevD.01 24-Apr-2013

 --------------------
 #p B2PLYPD3/Def2QZVP
 --------------------

 ---------
 butadiene
 ---------
 Symbolic Z-matrix:
 Charge =  0 Multiplicity = 1

                         Standard orientation:
 ---------------------------------------------------------------------
 Center     Atomic      Atomic             Coordinates (Angstroms)
 Number     Number       Type             X           Y           Z
 ---------------------------------------------------------------------
      1          6           0        1.836827   -0.103642   -0.016851
      2          6           0        0.603351    0.387396    0.013292
      3          6           0       -0.613950   -0.415209   -0.006323
      4          6           0       -1.837342    0.118821   -0.003415
      5          1           0        2.698166    0.533554    0.048004
      6          1           0        2.007477   -1.170038   -0.012135
      7          1           0        0.474894    1.481414    0.020845
      8          1           0       -0.448101   -1.472750    0.029007
      9          1           0       -1.917720    1.203780   -0.050258
     10          1           0       -2.748033   -0.500164    0.044317
 ---------------------------------------------------------------------

 SCF Done:  E(RB2PLYPD3) =  -155.700072183     A.U. after   11 cycles
 E2(B2PLYPD3) =    -0.2256853997D+00 E(B2PLYPD3) =    -0.15592575758264D+03

 The electronic state is 1-A.
 Alpha  occ. eigenvalues --  -10.62518 -10.62420 -10.61884 -10.61225  -0.93043
 Alpha  occ. eigenvalues --   -0.84996  -0.69928  -0.64066  -0.54517  -0.53860
 Alpha  occ. eigenvalues --   -0.46840  -0.45526  -0.41005  -0.38143  -0.27808
 Alpha virt. eigenvalues --    0.01845   0.07008   0.07385   0.08063   0.09594
 Alpha virt. eigenvalues --    0.11717   0.12457   0.14623   0.15803   0.16074
 Alpha virt. eigenvalues --    0.18748   0.20409   0.21528   0.22814   0.24040

 Mulliken charges:
               1
     1  C   -0.177923
     2  C   -0.021699
     3  C   -0.034026
     4  C   -0.174052
     5  H    0.086698
     6  H    0.062087
     7  H    0.046927
     8  H    0.056423
     9  H    0.066839
    10  H    0.088726
 Sum of Mulliken charges =   0.00000

 Dipole moment (field-independent basis, Debye):
    X=             -0.0014    Y=             -0.0240    Z=              0.0785  Tot=              0.0821
 Quadrupole moment (field-independent basis, Debye-Ang):
   XX=            -23.5294   YY=            -23.1387   ZZ=            -29.2665
   XY=             -0.0444   XZ=              0.0673   YZ=             -0.0679

 1\1\GINC-NODE13\SP\RB2PLYPD3-FC\def2QZVP\C4H6\BOITTIER\26-Aug-2020\0\\
 #p B2PLYPD3/Def2QZVP\\butadiene\\0,1\C,0,-3.842602,0.213552,0.005188\C
 ,0,-2.716549,-0.489016,0.048675\C,0,-1.37556,0.082553,0.010763\C,0,-0.
 267195,-0.661163,0.028064\H,0,-4.803666,-0.257796,0.084669\H,0,-3.8200
 59,1.293076,-0.016364\H,0,-2.785499,-1.587876,0.083122\H,0,-1.349773,1
 .153252,0.020038\H,0,-0.382013,-1.743844,0.007857\H,0,0.739546,-0.2138
 11,0.061635\\Version=ES64L-G09RevD.01\State=1-A\HF=-155.7000722\MP2=-1
 55.9257576\RMSD=5.080e-09\PG=C01 [X(C4H6)]\\@

 Normal termination of Gaussian 09 at Wed Aug 26 18:59:16 2020.
