 Gaussian 09, Revision D.01,
 Gaussian 09:  ES64L-G09RevD.01 24-Apr-2013

 --------------------
 #p B2PLYPD3/Def2QZVP
 --------------------

 ---------
 butadiene
 ---------
 Symbolic Z-matrix:
 Charge =  0 Multiplicity = 1

                         Standard orientation:
 ---------------------------------------------------------------------
 Center     Atomic      Atomic             Coordinates (Angstroms)
 Number     Number       Type             X           Y           Z
 ---------------------------------------------------------------------
      1          6           0       -1.842043   -0.126256    0.000268
      2          6           0       -0.605555    0.405673   -0.039938
      3          6           0        0.620080   -0.367361   -0.004583
      4          6           0        1.852190    0.090544    0.015670
      5          1           0       -2.781675    0.458135    0.172488
      6          1           0       -1.975186   -1.189173   -0.001214
      7          1           0       -0.593058    1.528326   -0.003765
      8          1           0        0.433089   -1.456597   -0.061640
      9          1           0        2.014657    1.177890   -0.029577
     10          1           0        2.754147   -0.534182    0.095210
 ---------------------------------------------------------------------

 SCF Done:  E(RB2PLYPD3) =  -155.693919339     A.U. after   11 cycles
 E2(B2PLYPD3) =    -0.2263851070D+00 E(B2PLYPD3) =    -0.15592030444644D+03

 The electronic state is 1-A.
 Alpha  occ. eigenvalues --  -10.63192 -10.62718 -10.62058 -10.61778  -0.93008
 Alpha  occ. eigenvalues --   -0.85010  -0.69942  -0.63453  -0.54518  -0.53702
 Alpha  occ. eigenvalues --   -0.46911  -0.44655  -0.40631  -0.38189  -0.27871
 Alpha virt. eigenvalues --    0.01558   0.06959   0.07359   0.07804   0.09725
 Alpha virt. eigenvalues --    0.11539   0.12475   0.14394   0.15729   0.16278
 Alpha virt. eigenvalues --    0.18891   0.20367   0.21422   0.22694   0.23446

 Mulliken charges:
               1
     1  C   -0.169685
     2  C   -0.025632
     3  C   -0.029254
     4  C   -0.168128
     5  H    0.082416
     6  H    0.059087
     7  H    0.048387
     8  H    0.049434
     9  H    0.063011
    10  H    0.090365
 Sum of Mulliken charges =   0.00000

 Dipole moment (field-independent basis, Debye):
    X=             -0.0110    Y=             -0.0261    Z=              0.1264  Tot=              0.1296
 Quadrupole moment (field-independent basis, Debye-Ang):
   XX=            -23.1378   YY=            -23.4602   ZZ=            -29.3028
   XY=             -0.0007   XZ=             -0.3572   YZ=              0.0855

 1\1\GINC-NODE32\SP\RB2PLYPD3-FC\def2QZVP\C4H6\BOITTIER\26-Aug-2020\0\\
 #p B2PLYPD3/Def2QZVP\\butadiene\\0,1\C,0,-3.846497,0.231313,0.009897\C
 ,0,-2.722028,-0.507305,0.06888\C,0,-1.380136,0.038508,0.019614\C,0,-0.
 247039,-0.628022,0.016285\H,0,-4.873817,-0.184076,-0.1518\H,0,-3.79179
 ,1.300831,-0.015816\H,0,-2.905965,-1.61542,0.060874\H,0,-1.373847,1.14
 4753,0.04856\H,0,-0.277142,-1.725521,0.089453\H,0,0.750233,-0.172748,-
 0.074873\\Version=ES64L-G09RevD.01\State=1-A\HF=-155.6939193\MP2=-155.
 9203044\RMSD=5.327e-09\PG=C01 [X(C4H6)]\\@

 Normal termination of Gaussian 09 at Wed Aug 26 08:51:55 2020.
