 Gaussian 09, Revision D.01,
 Gaussian 09:  ES64L-G09RevD.01 24-Apr-2013

 --------------------
 #p B2PLYPD3/Def2QZVP
 --------------------

 ---------
 butadiene
 ---------
 Symbolic Z-matrix:
 Charge =  0 Multiplicity = 1

                         Standard orientation:
 ---------------------------------------------------------------------
 Center     Atomic      Atomic             Coordinates (Angstroms)
 Number     Number       Type             X           Y           Z
 ---------------------------------------------------------------------
      1          6           0        1.830023    0.110417   -0.013180
      2          6           0        0.614371   -0.420807   -0.012476
      3          6           0       -0.592401    0.379425   -0.014652
      4          6           0       -1.838715   -0.095362    0.001105
      5          1           0        2.724683   -0.474924    0.072097
      6          1           0        1.904991    1.220105    0.029710
      7          1           0        0.429987   -1.490905    0.090563
      8          1           0       -0.403979    1.469995    0.004342
      9          1           0       -2.082739   -1.161988   -0.065377
     10          1           0       -2.652616    0.595678    0.103884
 ---------------------------------------------------------------------

 SCF Done:  E(RB2PLYPD3) =  -155.697833872     A.U. after   11 cycles
 E2(B2PLYPD3) =    -0.2259509383D+00 E(B2PLYPD3) =    -0.15592378481072D+03

 The electronic state is 1-A.
 Alpha  occ. eigenvalues --  -10.62586 -10.62380 -10.61729 -10.61544  -0.93178
 Alpha  occ. eigenvalues --   -0.84953  -0.70177  -0.63617  -0.54907  -0.53399
 Alpha  occ. eigenvalues --   -0.46985  -0.45452  -0.40738  -0.38225  -0.27774
 Alpha virt. eigenvalues --    0.01737   0.07031   0.07234   0.08122   0.09612
 Alpha virt. eigenvalues --    0.11728   0.12376   0.14709   0.15611   0.16150
 Alpha virt. eigenvalues --    0.18719   0.20229   0.21654   0.22722   0.24038

 Mulliken charges:
               1
     1  C   -0.170267
     2  C   -0.028007
     3  C   -0.020705
     4  C   -0.184036
     5  H    0.089889
     6  H    0.059147
     7  H    0.052770
     8  H    0.045390
     9  H    0.068826
    10  H    0.086994
 Sum of Mulliken charges =   0.00000

 Dipole moment (field-independent basis, Debye):
    X=              0.0206    Y=             -0.0371    Z=              0.1939  Tot=              0.1985
 Quadrupole moment (field-independent basis, Debye-Ang):
   XX=            -23.5935   YY=            -23.1907   ZZ=            -29.2485
   XY=              0.2176   XZ=              0.1639   YZ=              0.0545

 1\1\GINC-NODE36\SP\RB2PLYPD3-FC\def2QZVP\C4H6\BOITTIER\26-Aug-2020\0\\
 #p B2PLYPD3/Def2QZVP\\butadiene\\0,1\C,0,-3.828095,0.234104,0.023453\C
 ,0,-2.731475,-0.512238,0.043589\C,0,-1.397666,0.051023,0.024456\C,0,-0
 .260527,-0.646022,0.027862\H,0,-4.815688,-0.178347,-0.046235\H,0,-3.69
 6935,1.336622,-0.054766\H,0,-2.748167,-1.6007,-0.024936\H,0,-1.381476,
 1.156472,-0.029652\H,0,-0.217526,-1.736714,0.128861\H,0,0.666733,-0.12
 0791,-0.094022\\Version=ES64L-G09RevD.01\State=1-A\HF=-155.6978339\MP2
 =-155.9237848\RMSD=2.892e-09\PG=C01 [X(C4H6)]\\@

 Normal termination of Gaussian 09 at Wed Aug 26 09:16:04 2020.
