 Gaussian 09, Revision D.01,
 Gaussian 09:  ES64L-G09RevD.01 24-Apr-2013

 --------------------
 #p B2PLYPD3/Def2QZVP
 --------------------

 ---------
 butadiene
 ---------
 Symbolic Z-matrix:
 Charge =  0 Multiplicity = 1

                         Standard orientation:
 ---------------------------------------------------------------------
 Center     Atomic      Atomic             Coordinates (Angstroms)
 Number     Number       Type             X           Y           Z
 ---------------------------------------------------------------------
      1          6           0       -1.840477    0.113207   -0.015689
      2          6           0       -0.592945   -0.452255    0.031410
      3          6           0        0.576838    0.371447   -0.008556
      4          6           0        1.831468   -0.070280   -0.045939
      5          1           0       -2.803967   -0.397479    0.078168
      6          1           0       -1.874029    1.233307   -0.136443
      7          1           0       -0.447477   -1.481449    0.026877
      8          1           0        0.447109    1.476785    0.129337
      9          1           0        2.129164   -1.107031   -0.047182
     10          1           0        2.699896    0.503151    0.181882
 ---------------------------------------------------------------------

 SCF Done:  E(RB2PLYPD3) =  -155.687836406     A.U. after   12 cycles
 E2(B2PLYPD3) =    -0.2270887405D+00 E(B2PLYPD3) =    -0.15591492514620D+03

 The electronic state is 1-A.
 Alpha  occ. eigenvalues --  -10.62896 -10.62821 -10.62695 -10.61082  -0.93190
 Alpha  occ. eigenvalues --   -0.84359  -0.70532  -0.64513  -0.55414  -0.53036
 Alpha  occ. eigenvalues --   -0.46984  -0.44719  -0.41201  -0.38071  -0.27269
 Alpha virt. eigenvalues --    0.01002   0.06983   0.07399   0.08028   0.09328
 Alpha virt. eigenvalues --    0.11511   0.12735   0.14545   0.15787   0.16288
 Alpha virt. eigenvalues --    0.18985   0.20322   0.21612   0.22543   0.23727

 Mulliken charges:
               1
     1  C   -0.164073
     2  C   -0.050998
     3  C   -0.012158
     4  C   -0.167409
     5  H    0.089386
     6  H    0.057544
     7  H    0.069740
     8  H    0.053368
     9  H    0.049708
    10  H    0.074893
 Sum of Mulliken charges =   0.00000

 Dipole moment (field-independent basis, Debye):
    X=             -0.0469    Y=             -0.0949    Z=              0.2345  Tot=              0.2573
 Quadrupole moment (field-independent basis, Debye-Ang):
   XX=            -23.1394   YY=            -23.4727   ZZ=            -29.2712
   XY=             -0.2906   XZ=              0.5289   YZ=              0.0766

 1\1\GINC-NODE18\SP\RB2PLYPD3-FC\def2QZVP\C4H6\BOITTIER\26-Aug-2020\0\\
 #p B2PLYPD3/Def2QZVP\\butadiene\\0,1\C,0,-3.835013,0.243126,0.000172\C
 ,0,-2.715327,-0.544189,0.069028\C,0,-1.41207,0.044972,0.015345\C,0,-0.
 262165,-0.624347,-0.003331\H,0,-4.877134,-0.075818,0.101075\H,0,-3.658
 312,1.346238,-0.148993\H,0,-2.764934,-1.582199,0.091328\H,0,-1.332919,
 1.158269,0.124533\H,0,-0.163648,-1.698152,0.023366\H,0,0.697923,-0.217
 681,0.21518\\Version=ES64L-G09RevD.01\State=1-A\HF=-155.6878364\MP2=-1
 55.9149251\RMSD=4.145e-09\PG=C01 [X(C4H6)]\\@

 Normal termination of Gaussian 09 at Wed Aug 26 13:48:50 2020.
