 Gaussian 09, Revision D.01,
 Gaussian 09:  ES64L-G09RevD.01 24-Apr-2013

 --------------------
 #p B2PLYPD3/Def2QZVP
 --------------------

 ---------
 butadiene
 ---------
 Symbolic Z-matrix:
 Charge =  0 Multiplicity = 1

                         Standard orientation:
 ---------------------------------------------------------------------
 Center     Atomic      Atomic             Coordinates (Angstroms)
 Number     Number       Type             X           Y           Z
 ---------------------------------------------------------------------
      1          6           0       -1.854227    0.083445    0.009694
      2          6           0       -0.604496   -0.344282   -0.087658
      3          6           0        0.644303    0.420685   -0.011895
      4          6           0        1.827068   -0.156612    0.039738
      5          1           0       -2.820932   -0.521756    0.221293
      6          1           0       -2.057272    1.109398    0.184057
      7          1           0       -0.579820   -1.430877   -0.080676
      8          1           0        0.573556    1.519922   -0.213119
      9          1           0        2.090933   -1.230275    0.056596
     10          1           0        2.717656    0.534177    0.132579
 ---------------------------------------------------------------------

 SCF Done:  E(RB2PLYPD3) =  -155.681061478     A.U. after   11 cycles
 E2(B2PLYPD3) =    -0.2265176762D+00 E(B2PLYPD3) =    -0.15590757915440D+03

 The electronic state is 1-A.
 Alpha  occ. eigenvalues --  -10.63345 -10.62496 -10.62438 -10.61704  -0.92947
 Alpha  occ. eigenvalues --   -0.85290  -0.69464  -0.63690  -0.54217  -0.53856
 Alpha  occ. eigenvalues --   -0.47019  -0.43873  -0.40061  -0.37917  -0.28248
 Alpha virt. eigenvalues --    0.01779   0.06835   0.07441   0.07528   0.09452
 Alpha virt. eigenvalues --    0.11363   0.12453   0.14264   0.15317   0.16647
 Alpha virt. eigenvalues --    0.19003   0.19905   0.21712   0.22420   0.23113

 Mulliken charges:
               1
     1  C   -0.159005
     2  C   -0.026561
     3  C   -0.049357
     4  C   -0.164105
     5  H    0.071626
     6  H    0.051069
     7  H    0.054636
     8  H    0.070417
     9  H    0.080383
    10  H    0.070896
 Sum of Mulliken charges =   0.00000

 Dipole moment (field-independent basis, Debye):
    X=              0.1655    Y=             -0.0177    Z=              0.1979  Tot=              0.2586
 Quadrupole moment (field-independent basis, Debye-Ang):
   XX=            -23.3630   YY=            -23.4210   ZZ=            -29.1797
   XY=             -0.2072   XZ=             -0.6913   YZ=             -0.1576

 1\1\GINC-NODE30\SP\RB2PLYPD3-FC\def2QZVP\C4H6\BOITTIER\26-Aug-2020\0\\
 #p B2PLYPD3/Def2QZVP\\butadiene\\0,1\C,0,-3.866856,0.184672,0.043317\C
 ,0,-2.709617,-0.454386,-0.038278\C,0,-1.347874,0.088745,-0.005439\C,0,
 -0.280231,-0.678985,0.06939\H,0,-4.919815,-0.235739,0.288456\H,0,-3.88
 9891,1.237347,0.168034\H,0,-2.870381,-1.527645,0.021865\H,0,-1.232791,
 1.173073,-0.260011\H,0,-0.202996,-1.779905,0.137742\H,0,0.716143,-0.14
 6855,0.124451\\Version=ES64L-G09RevD.01\State=1-A\HF=-155.6810615\MP2=
 -155.9075792\RMSD=6.502e-09\PG=C01 [X(C4H6)]\\@

 Normal termination of Gaussian 09 at Wed Aug 26 15:02:19 2020.
