 Gaussian 09, Revision D.01,
 Gaussian 09:  ES64L-G09RevD.01 24-Apr-2013

 --------------------
 #p B2PLYPD3/Def2QZVP
 --------------------

 ---------
 butadiene
 ---------
 Symbolic Z-matrix:
 Charge =  0 Multiplicity = 1

                         Standard orientation:
 ---------------------------------------------------------------------
 Center     Atomic      Atomic             Coordinates (Angstroms)
 Number     Number       Type             X           Y           Z
 ---------------------------------------------------------------------
      1          6           0       -1.827295   -0.130281    0.008001
      2          6           0       -0.593898    0.417692   -0.050090
      3          6           0        0.585613   -0.364134   -0.031043
      4          6           0        1.830371    0.075598    0.022332
      5          1           0       -2.688798    0.499634    0.107270
      6          1           0       -1.971617   -1.206033    0.108919
      7          1           0       -0.498118    1.526662    0.004808
      8          1           0        0.470967   -1.440479   -0.046551
      9          1           0        2.010647    1.124330    0.075253
     10          1           0        2.708173   -0.497358    0.055104
 ---------------------------------------------------------------------

 SCF Done:  E(RB2PLYPD3) =  -155.696219793     A.U. after   11 cycles
 E2(B2PLYPD3) =    -0.2258257148D+00 E(B2PLYPD3) =    -0.15592204550789D+03

 The electronic state is 1-A.
 Alpha  occ. eigenvalues --  -10.62874 -10.61916 -10.61813 -10.60636  -0.93565
 Alpha  occ. eigenvalues --   -0.85010  -0.70883  -0.63975  -0.55286  -0.54151
 Alpha  occ. eigenvalues --   -0.46793  -0.45225  -0.41268  -0.38589  -0.27441
 Alpha virt. eigenvalues --    0.01378   0.07060   0.07398   0.08027   0.09863
 Alpha virt. eigenvalues --    0.11660   0.12642   0.14802   0.15857   0.16420
 Alpha virt. eigenvalues --    0.18767   0.20463   0.21965   0.22721   0.23587

 Mulliken charges:
               1
     1  C   -0.172731
     2  C   -0.033597
     3  C   -0.014434
     4  C   -0.173241
     5  H    0.084911
     6  H    0.067940
     7  H    0.052468
     8  H    0.048584
     9  H    0.052882
    10  H    0.087219
 Sum of Mulliken charges =   0.00000

 Dipole moment (field-independent basis, Debye):
    X=              0.0031    Y=              0.0021    Z=              0.2291  Tot=              0.2291
 Quadrupole moment (field-independent basis, Debye-Ang):
   XX=            -23.3047   YY=            -23.2515   ZZ=            -29.1398
   XY=              0.0326   XZ=             -0.2783   YZ=              0.0487

 1\1\GINC-NODE12\SP\RB2PLYPD3-FC\def2QZVP\C4H6\BOITTIER\26-Aug-2020\0\\
 #p B2PLYPD3/Def2QZVP\\butadiene\\0,1\C,0,-3.823958,0.24594,0.000319\C,
 0,-2.711403,-0.516253,0.079058\C,0,-1.408896,0.035974,0.041869\C,0,-0.
 265557,-0.625184,0.006091\H,0,-4.786228,-0.218573,-0.083942\H,0,-3.769
 388,1.32653,-0.13235\H,0,-2.820005,-1.625176,0.056755\H,0,-1.324865,1.
 11513,0.025674\H,0,-0.280073,-1.690293,-0.015659\H,0,0.702127,-0.22348
 9,-0.039916\\Version=ES64L-G09RevD.01\State=1-A\HF=-155.6962198\MP2=-1
 55.9220455\RMSD=6.130e-09\PG=C01 [X(C4H6)]\\@

 Normal termination of Gaussian 09 at Wed Aug 26 08:40:01 2020.
