 Gaussian 09, Revision D.01,
 Gaussian 09:  ES64L-G09RevD.01 24-Apr-2013

 --------------------
 #p B2PLYPD3/Def2QZVP
 --------------------

 ---------
 butadiene
 ---------
 Symbolic Z-matrix:
 Charge =  0 Multiplicity = 1

                         Standard orientation:
 ---------------------------------------------------------------------
 Center     Atomic      Atomic             Coordinates (Angstroms)
 Number     Number       Type             X           Y           Z
 ---------------------------------------------------------------------
      1          6           0        1.840906    0.110983    0.030789
      2          6           0        0.602540   -0.385934   -0.014912
      3          6           0       -0.625640    0.408655   -0.053914
      4          6           0       -1.831620   -0.112941    0.045493
      5          1           0        2.699270   -0.558931   -0.083121
      6          1           0        2.025460    1.150954    0.144528
      7          1           0        0.455522   -1.452041   -0.096340
      8          1           0       -0.489229    1.515127   -0.060117
      9          1           0       -1.849567   -1.219373    0.105929
     10          1           0       -2.758572    0.439686   -0.055619
 ---------------------------------------------------------------------

 SCF Done:  E(RB2PLYPD3) =  -155.696714040     A.U. after   11 cycles
 E2(B2PLYPD3) =    -0.2257657642D+00 E(B2PLYPD3) =    -0.15592247980413D+03

 The electronic state is 1-A.
 Alpha  occ. eigenvalues --  -10.62606 -10.62503 -10.61616 -10.61446  -0.93059
 Alpha  occ. eigenvalues --   -0.85164  -0.69808  -0.63778  -0.54718  -0.53685
 Alpha  occ. eigenvalues --   -0.47100  -0.45255  -0.40754  -0.38030  -0.27966
 Alpha virt. eigenvalues --    0.01843   0.07032   0.07363   0.08010   0.09610
 Alpha virt. eigenvalues --    0.11715   0.12459   0.14585   0.15583   0.16173
 Alpha virt. eigenvalues --    0.18799   0.20173   0.21406   0.22498   0.24111

 Mulliken charges:
               1
     1  C   -0.182286
     2  C   -0.028128
     3  C   -0.029180
     4  C   -0.164362
     5  H    0.085140
     6  H    0.071675
     7  H    0.053205
     8  H    0.047558
     9  H    0.053800
    10  H    0.092577
 Sum of Mulliken charges =   0.00000

 Dipole moment (field-independent basis, Debye):
    X=             -0.0232    Y=              0.0296    Z=             -0.0838  Tot=              0.0918
 Quadrupole moment (field-independent basis, Debye-Ang):
   XX=            -23.4759   YY=            -23.2751   ZZ=            -29.2120
   XY=             -0.0154   XZ=              0.0098   YZ=              0.1545

 1\1\GINC-NODE05\SP\RB2PLYPD3-FC\def2QZVP\C4H6\BOITTIER\26-Aug-2020\0\\
 #p B2PLYPD3/Def2QZVP\\butadiene\\0,1\C,0,-3.84688,0.215307,-0.012657\C
 ,0,-2.715147,-0.48986,0.054308\C,0,-1.366109,0.076944,0.066463\C,0,-0.
 271229,-0.652173,-0.010733\H,0,-4.80927,-0.288309,0.124184\H,0,-3.8459
 64,1.266586,-0.165458\H,0,-2.757754,-1.561436,0.175709\H,0,-1.305574,1
 .189605,0.031153\H,0,-0.448605,-1.745945,-0.029886\H,0,0.738962,-0.268
 04,0.07182\\Version=ES64L-G09RevD.01\State=1-A\HF=-155.696714\MP2=-155
 .9224798\RMSD=6.748e-09\PG=C01 [X(C4H6)]\\@

 Normal termination of Gaussian 09 at Wed Aug 26 11:18:38 2020.
