 Gaussian 09, Revision D.01,
 Gaussian 09:  ES64L-G09RevD.01 24-Apr-2013

 --------------------
 #p B2PLYPD3/Def2QZVP
 --------------------

 ---------
 butadiene
 ---------
 Symbolic Z-matrix:
 Charge =  0 Multiplicity = 1

                         Standard orientation:
 ---------------------------------------------------------------------
 Center     Atomic      Atomic             Coordinates (Angstroms)
 Number     Number       Type             X           Y           Z
 ---------------------------------------------------------------------
      1          6           0       -1.833624   -0.104836    0.011750
      2          6           0       -0.605621    0.400922   -0.023508
      3          6           0        0.598570   -0.420350   -0.000706
      4          6           0        1.834973    0.111320   -0.004484
      5          1           0       -2.701143    0.524996    0.060375
      6          1           0       -2.003604   -1.162370   -0.009075
      7          1           0       -0.448104    1.492894   -0.011568
      8          1           0        0.472422   -1.496660   -0.035756
      9          1           0        1.975441    1.199656    0.020023
     10          1           0        2.739200   -0.480855    0.077690
 ---------------------------------------------------------------------

 SCF Done:  E(RB2PLYPD3) =  -155.700180750     A.U. after   11 cycles
 E2(B2PLYPD3) =    -0.2259110870D+00 E(B2PLYPD3) =    -0.15592609183725D+03

 The electronic state is 1-A.
 Alpha  occ. eigenvalues --  -10.62761 -10.62648 -10.61828 -10.61185  -0.92913
 Alpha  occ. eigenvalues --   -0.84790  -0.70033  -0.64042  -0.54654  -0.53792
 Alpha  occ. eigenvalues --   -0.46678  -0.45430  -0.41227  -0.38061  -0.27634
 Alpha virt. eigenvalues --    0.01763   0.07035   0.07336   0.08084   0.09416
 Alpha virt. eigenvalues --    0.11666   0.12523   0.14633   0.15804   0.16235
 Alpha virt. eigenvalues --    0.18760   0.20363   0.21831   0.23022   0.23646

 Mulliken charges:
               1
     1  C   -0.176488
     2  C   -0.024729
     3  C   -0.035458
     4  C   -0.172277
     5  H    0.085764
     6  H    0.066456
     7  H    0.053079
     8  H    0.058063
     9  H    0.060958
    10  H    0.084631
 Sum of Mulliken charges =   0.00000

 Dipole moment (field-independent basis, Debye):
    X=             -0.0132    Y=             -0.0200    Z=              0.0776  Tot=              0.0812
 Quadrupole moment (field-independent basis, Debye-Ang):
   XX=            -23.4722   YY=            -23.0954   ZZ=            -29.3019
   XY=              0.1936   XZ=              0.0931   YZ=              0.0721

 1\1\GINC-NODE01\SP\RB2PLYPD3-FC\def2QZVP\C4H6\BOITTIER\26-Aug-2020\0\\
 #p B2PLYPD3/Def2QZVP\\butadiene\\0,1\C,0,-3.835941,0.21929,0.007133\C,
 0,-2.720026,-0.500051,0.055173\C,0,-1.386851,0.088226,0.014447\C,0,-0.
 267484,-0.658836,0.031622\H,0,-4.803527,-0.243534,-0.027679\H,0,-3.811
 074,1.290305,0.003336\H,0,-2.76337,-1.602456,0.068638\H,0,-1.315425,1.
 170068,0.024476\H,0,-0.326976,-1.754859,0.032424\H,0,0.72893,-0.242693
 ,-0.063426\\Version=ES64L-G09RevD.01\State=1-A\HF=-155.7001808\MP2=-15
 5.9260918\RMSD=5.039e-09\PG=C01 [X(C4H6)]\\@

 Normal termination of Gaussian 09 at Wed Aug 26 19:55:14 2020.
