 Gaussian 09, Revision D.01,
 Gaussian 09:  ES64L-G09RevD.01 24-Apr-2013

 --------------------
 #p B2PLYPD3/Def2QZVP
 --------------------

 ---------
 butadiene
 ---------
 Symbolic Z-matrix:
 Charge =  0 Multiplicity = 1

                         Standard orientation:
 ---------------------------------------------------------------------
 Center     Atomic      Atomic             Coordinates (Angstroms)
 Number     Number       Type             X           Y           Z
 ---------------------------------------------------------------------
      1          6           0        1.808221    0.116958   -0.016309
      2          6           0        0.600226   -0.418287    0.016307
      3          6           0       -0.604314    0.395876    0.008243
      4          6           0       -1.824971   -0.117388   -0.008075
      5          1           0        2.697591   -0.492601   -0.059002
      6          1           0        1.946093    1.203910   -0.034084
      7          1           0        0.519893   -1.456395    0.136804
      8          1           0       -0.452837    1.474851    0.077908
      9          1           0       -1.972830   -1.172163   -0.111020
     10          1           0       -2.612878    0.579444   -0.011600
 ---------------------------------------------------------------------

 SCF Done:  E(RB2PLYPD3) =  -155.697821967     A.U. after   11 cycles
 E2(B2PLYPD3) =    -0.2249285182D+00 E(B2PLYPD3) =    -0.15592275048486D+03

 The electronic state is 1-A.
 Alpha  occ. eigenvalues --  -10.62168 -10.61693 -10.61228 -10.60680  -0.93383
 Alpha  occ. eigenvalues --   -0.85364  -0.69868  -0.64437  -0.54800  -0.54343
 Alpha  occ. eigenvalues --   -0.46432  -0.45919  -0.41484  -0.38098  -0.27822
 Alpha virt. eigenvalues --    0.02210   0.07103   0.07444   0.08123   0.09511
 Alpha virt. eigenvalues --    0.11841   0.12397   0.14797   0.15697   0.16135
 Alpha virt. eigenvalues --    0.18580   0.20258   0.21645   0.23060   0.24363

 Mulliken charges:
               1
     1  C   -0.174353
     2  C   -0.033790
     3  C   -0.027158
     4  C   -0.184597
     5  H    0.081993
     6  H    0.061192
     7  H    0.062791
     8  H    0.052821
     9  H    0.074404
    10  H    0.086697
 Sum of Mulliken charges =   0.00000

 Dipole moment (field-independent basis, Debye):
    X=              0.0485    Y=             -0.0171    Z=              0.0082  Tot=              0.0520
 Quadrupole moment (field-independent basis, Debye-Ang):
   XX=            -23.9394   YY=            -22.8573   ZZ=            -29.0765
   XY=              0.0149   XZ=              0.0633   YZ=              0.0595

 1\1\GINC-NODE39\SP\RB2PLYPD3-FC\def2QZVP\C4H6\BOITTIER\26-Aug-2020\0\\
 #p B2PLYPD3/Def2QZVP\\butadiene\\0,1\C,0,-3.811676,0.228247,0.032423\C
 ,0,-2.719707,-0.516223,0.019295\C,0,-1.388397,0.067947,0.005092\C,0,-0
 .279865,-0.655678,0.040225\H,0,-4.796006,-0.209854,0.091794\H,0,-3.751
 82,1.322297,0.016245\H,0,-2.82771,-1.555072,-0.068849\H,0,-1.343637,1.
 153902,-0.098271\H,0,-0.323728,-1.716162,0.176094\H,0,0.620494,-0.1120
 99,0.024106\\Version=ES64L-G09RevD.01\State=1-A\HF=-155.697822\MP2=-15
 5.9227505\RMSD=4.815e-09\PG=C01 [X(C4H6)]\\@

 Normal termination of Gaussian 09 at Wed Aug 26 09:22:55 2020.
