 Gaussian 09, Revision D.01,
 Gaussian 09:  ES64L-G09RevD.01 24-Apr-2013

 --------------------
 #p B2PLYPD3/Def2QZVP
 --------------------

 ---------
 butadiene
 ---------
 Symbolic Z-matrix:
 Charge =  0 Multiplicity = 1

                         Standard orientation:
 ---------------------------------------------------------------------
 Center     Atomic      Atomic             Coordinates (Angstroms)
 Number     Number       Type             X           Y           Z
 ---------------------------------------------------------------------
      1          6           0        1.851008    0.104187    0.006970
      2          6           0        0.617591   -0.388719   -0.011764
      3          6           0       -0.608547    0.410379   -0.011740
      4          6           0       -1.845119   -0.116087    0.005335
      5          1           0        2.716205   -0.549641    0.010644
      6          1           0        1.999281    1.168572    0.051201
      7          1           0        0.417485   -1.473050   -0.057441
      8          1           0       -0.494265    1.489543   -0.010425
      9          1           0       -1.988182   -1.193187    0.093823
     10          1           0       -2.740127    0.499200   -0.020609
 ---------------------------------------------------------------------

 SCF Done:  E(RB2PLYPD3) =  -155.700206154     A.U. after   11 cycles
 E2(B2PLYPD3) =    -0.2259142807D+00 E(B2PLYPD3) =    -0.15592612043490D+03

 The electronic state is 1-A.
 Alpha  occ. eigenvalues --  -10.62750 -10.62693 -10.61841 -10.61474  -0.92792
 Alpha  occ. eigenvalues --   -0.84896  -0.70069  -0.63865  -0.54516  -0.53768
 Alpha  occ. eigenvalues --   -0.46868  -0.45656  -0.40848  -0.37995  -0.27774
 Alpha virt. eigenvalues --    0.01699   0.06997   0.07370   0.08062   0.09564
 Alpha virt. eigenvalues --    0.11675   0.12409   0.14645   0.15772   0.16109
 Alpha virt. eigenvalues --    0.18797   0.20468   0.21525   0.22909   0.23669

 Mulliken charges:
               1
     1  C   -0.177626
     2  C   -0.025918
     3  C   -0.031606
     4  C   -0.176499
     5  H    0.090092
     6  H    0.068531
     7  H    0.049694
     8  H    0.052687
     9  H    0.063518
    10  H    0.087126
 Sum of Mulliken charges =   0.00000

 Dipole moment (field-independent basis, Debye):
    X=             -0.0166    Y=              0.0195    Z=              0.0523  Tot=              0.0583
 Quadrupole moment (field-independent basis, Debye-Ang):
   XX=            -23.4159   YY=            -23.1806   ZZ=            -29.3190
   XY=              0.1362   XZ=             -0.0073   YZ=             -0.0178

 1\1\GINC-NODE04\SP\RB2PLYPD3-FC\def2QZVP\C4H6\BOITTIER\26-Aug-2020\0\\
 #p B2PLYPD3/Def2QZVP\\butadiene\\0,1\C,0,-3.853199,0.217216,0.010774\C
 ,0,-2.727766,-0.487625,0.045764\C,0,-1.378488,0.078925,0.024733\C,0,-0
 .256079,-0.660512,0.024902\H,0,-4.821389,-0.271136,0.024519\H,0,-3.808
 872,1.289244,-0.064381\H,0,-2.724657,-1.588499,0.123025\H,0,-1.297924,
 1.160637,-0.007893\H,0,-0.308273,-1.747918,-0.032249\H,0,0.734627,-0.2
 14757,0.034579\\Version=ES64L-G09RevD.01\State=1-A\HF=-155.7002062\MP2
 =-155.9261204\RMSD=4.780e-09\PG=C01 [X(C4H6)]\\@

 Normal termination of Gaussian 09 at Wed Aug 26 12:47:50 2020.
