 Gaussian 09, Revision D.01,
 Gaussian 09:  ES64L-G09RevD.01 24-Apr-2013

 --------------------
 #p B2PLYPD3/Def2QZVP
 --------------------

 ---------
 butadiene
 ---------
 Symbolic Z-matrix:
 Charge =  0 Multiplicity = 1

                         Standard orientation:
 ---------------------------------------------------------------------
 Center     Atomic      Atomic             Coordinates (Angstroms)
 Number     Number       Type             X           Y           Z
 ---------------------------------------------------------------------
      1          6           0       -1.821379   -0.119564   -0.029729
      2          6           0       -0.600398    0.424704    0.012648
      3          6           0        0.588509   -0.394780    0.012310
      4          6           0        1.837259    0.098078   -0.013360
      5          1           0       -2.698191    0.506563    0.045590
      6          1           0       -1.996031   -1.212974   -0.039578
      7          1           0       -0.494354    1.510013    0.077873
      8          1           0        0.432981   -1.461492    0.089802
      9          1           0        2.027068    1.153171   -0.064394
     10          1           0        2.704581   -0.545911   -0.000506
 ---------------------------------------------------------------------

 SCF Done:  E(RB2PLYPD3) =  -155.699899613     A.U. after   11 cycles
 E2(B2PLYPD3) =    -0.2260216560D+00 E(B2PLYPD3) =    -0.15592592126947D+03

 The electronic state is 1-A.
 Alpha  occ. eigenvalues --  -10.62596 -10.62452 -10.61755 -10.61398  -0.93074
 Alpha  occ. eigenvalues --   -0.84663  -0.70110  -0.64110  -0.54521  -0.53889
 Alpha  occ. eigenvalues --   -0.46452  -0.45509  -0.41420  -0.38098  -0.27486
 Alpha virt. eigenvalues --    0.01665   0.07051   0.07334   0.08036   0.09482
 Alpha virt. eigenvalues --    0.11691   0.12411   0.14759   0.15866   0.16144
 Alpha virt. eigenvalues --    0.18759   0.20396   0.21634   0.22863   0.23767

 Mulliken charges:
               1
     1  C   -0.172385
     2  C   -0.033231
     3  C   -0.028398
     4  C   -0.180074
     5  H    0.081965
     6  H    0.064546
     7  H    0.058361
     8  H    0.058181
     9  H    0.066659
    10  H    0.084375
 Sum of Mulliken charges =   0.00000

 Dipole moment (field-independent basis, Debye):
    X=             -0.0317    Y=              0.0143    Z=              0.1149  Tot=              0.1200
 Quadrupole moment (field-independent basis, Debye-Ang):
   XX=            -23.6267   YY=            -23.0002   ZZ=            -29.2980
   XY=              0.2265   XZ=             -0.2012   YZ=             -0.0124

 1\1\GINC-NODE31\SP\RB2PLYPD3-FC\def2QZVP\C4H6\BOITTIER\26-Aug-2020\0\\
 #p B2PLYPD3/Def2QZVP\\butadiene\\0,1\C,0,-3.820688,0.23817,0.041843\C,
 0,-2.72036,-0.521833,0.019703\C,0,-1.401291,0.065316,0.000472\C,0,-0.2
 64111,-0.647275,0.044953\H,0,-4.797621,-0.218428,-0.018379\H,0,-3.7917
 63,1.344877,0.019252\H,0,-2.815343,-1.609614,-0.013541\H,0,-1.358622,1
 .139725,-0.108577\H,0,-0.270997,-1.71733,0.12734\H,0,0.706611,-0.17396
 4,0.016486\\Version=ES64L-G09RevD.01\State=1-A\HF=-155.6998996\MP2=-15
 5.9259213\RMSD=2.937e-09\PG=C01 [X(C4H6)]\\@

 Normal termination of Gaussian 09 at Wed Aug 26 16:25:16 2020.
