 Gaussian 09, Revision D.01,
 Gaussian 09:  ES64L-G09RevD.01 24-Apr-2013

 --------------------
 #p B2PLYPD3/Def2QZVP
 --------------------

 ---------
 butadiene
 ---------
 Symbolic Z-matrix:
 Charge =  0 Multiplicity = 1

                         Standard orientation:
 ---------------------------------------------------------------------
 Center     Atomic      Atomic             Coordinates (Angstroms)
 Number     Number       Type             X           Y           Z
 ---------------------------------------------------------------------
      1          6           0        1.836729    0.102983   -0.028967
      2          6           0        0.605160   -0.399686    0.029454
      3          6           0       -0.604834    0.413132    0.004170
      4          6           0       -1.838967   -0.122926   -0.023515
      5          1           0        2.754658   -0.508639    0.021965
      6          1           0        1.980496    1.196360   -0.056819
      7          1           0        0.488128   -1.478076    0.069990
      8          1           0       -0.493939    1.499148    0.107665
      9          1           0       -1.992121   -1.189641   -0.057011
     10          1           0       -2.725750    0.519834    0.027360
 ---------------------------------------------------------------------

 SCF Done:  E(RB2PLYPD3) =  -155.699211675     A.U. after   11 cycles
 E2(B2PLYPD3) =    -0.2262264750D+00 E(B2PLYPD3) =    -0.15592543815016D+03

 The electronic state is 1-A.
 Alpha  occ. eigenvalues --  -10.62913 -10.62547 -10.61866 -10.61804  -0.92842
 Alpha  occ. eigenvalues --   -0.84695  -0.69687  -0.63964  -0.54199  -0.53856
 Alpha  occ. eigenvalues --   -0.46498  -0.45258  -0.41170  -0.37980  -0.27672
 Alpha virt. eigenvalues --    0.01720   0.07011   0.07351   0.07931   0.09453
 Alpha virt. eigenvalues --    0.11640   0.12402   0.14540   0.15737   0.16248
 Alpha virt. eigenvalues --    0.18796   0.20273   0.21550   0.22722   0.23758

 Mulliken charges:
               1
     1  C   -0.168649
     2  C   -0.032366
     3  C   -0.032668
     4  C   -0.177667
     5  H    0.084494
     6  H    0.059324
     7  H    0.055971
     8  H    0.057987
     9  H    0.069588
    10  H    0.083987
 Sum of Mulliken charges =   0.00000

 Dipole moment (field-independent basis, Debye):
    X=             -0.0087    Y=             -0.0192    Z=              0.1259  Tot=              0.1277
 Quadrupole moment (field-independent basis, Debye-Ang):
   XX=            -23.5329   YY=            -23.1005   ZZ=            -29.3632
   XY=              0.0686   XZ=             -0.0463   YZ=              0.0736

 1\1\GINC-NODE25\SP\RB2PLYPD3-FC\def2QZVP\C4H6\BOITTIER\26-Aug-2020\0\\
 #p B2PLYPD3/Def2QZVP\\butadiene\\0,1\C,0,-3.841298,0.214591,0.044627\C
 ,0,-2.718978,-0.50076,0.005592\C,0,-1.383669,0.084343,0.004392\C,0,-0.
 264357,-0.661328,0.052577\H,0,-4.853554,-0.22546,0.013632\H,0,-3.78829
 5,1.316408,0.034189\H,0,-2.795686,-1.583522,0.002792\H,0,-1.300246,1.1
 68542,-0.137008\H,0,-0.303094,-1.736475,0.123412\H,0,0.722306,-0.18863
 1,-0.019304\\Version=ES64L-G09RevD.01\State=1-A\HF=-155.6992117\MP2=-1
 55.9254382\RMSD=6.406e-09\PG=C01 [X(C4H6)]\\@

 Normal termination of Gaussian 09 at Wed Aug 26 21:28:04 2020.
