 Gaussian 09, Revision D.01,
 Gaussian 09:  ES64L-G09RevD.01 24-Apr-2013

 --------------------
 #p B2PLYPD3/Def2QZVP
 --------------------

 ---------
 butadiene
 ---------
 Symbolic Z-matrix:
 Charge =  0 Multiplicity = 1

                         Standard orientation:
 ---------------------------------------------------------------------
 Center     Atomic      Atomic             Coordinates (Angstroms)
 Number     Number       Type             X           Y           Z
 ---------------------------------------------------------------------
      1          6           0       -1.839172   -0.122835   -0.004512
      2          6           0       -0.616392    0.420353    0.003795
      3          6           0        0.605702   -0.392046    0.026979
      4          6           0        1.851142    0.102776   -0.015517
      5          1           0       -2.721416    0.512775   -0.024308
      6          1           0       -1.968635   -1.191379    0.004332
      7          1           0       -0.493266    1.486408   -0.014736
      8          1           0        0.424727   -1.466498   -0.032896
      9          1           0        2.044113    1.147579    0.031504
     10          1           0        2.706795   -0.538370   -0.028362
 ---------------------------------------------------------------------

 SCF Done:  E(RB2PLYPD3) =  -155.700515453     A.U. after   11 cycles
 E2(B2PLYPD3) =    -0.2256896076D+00 E(B2PLYPD3) =    -0.15592620506100D+03

 The electronic state is 1-A.
 Alpha  occ. eigenvalues --  -10.62755 -10.62510 -10.61587 -10.61264  -0.92746
 Alpha  occ. eigenvalues --   -0.84873  -0.70200  -0.64296  -0.54557  -0.53942
 Alpha  occ. eigenvalues --   -0.46752  -0.46026  -0.41110  -0.37892  -0.27684
 Alpha virt. eigenvalues --    0.01735   0.07019   0.07454   0.08130   0.09416
 Alpha virt. eigenvalues --    0.11711   0.12458   0.14759   0.15799   0.16104
 Alpha virt. eigenvalues --    0.18807   0.20372   0.21736   0.23144   0.23765

 Mulliken charges:
               1
     1  C   -0.176277
     2  C   -0.033123
     3  C   -0.031264
     4  C   -0.178837
     5  H    0.085689
     6  H    0.067995
     7  H    0.057909
     8  H    0.054024
     9  H    0.068240
    10  H    0.085644
 Sum of Mulliken charges =   0.00000

 Dipole moment (field-independent basis, Debye):
    X=             -0.0169    Y=              0.0284    Z=             -0.0325  Tot=              0.0464
 Quadrupole moment (field-independent basis, Debye-Ang):
   XX=            -23.4776   YY=            -23.0544   ZZ=            -29.2914
   XY=              0.2293   XZ=              0.0259   YZ=              0.0709

 1\1\GINC-NODE28\SP\RB2PLYPD3-FC\def2QZVP\C4H6\BOITTIER\26-Aug-2020\0\\
 #p B2PLYPD3/Def2QZVP\\butadiene\\0,1\C,0,-3.839086,0.237227,0.025166\C
 ,0,-2.733857,-0.516924,0.031478\C,0,-1.385736,0.061825,-0.009294\C,0,-
 0.249378,-0.647633,0.046689\H,0,-4.82113,-0.228823,0.058825\H,0,-3.774
 44,1.311127,-0.009245\H,0,-2.804262,-1.587009,0.075505\H,0,-1.370503,1
 .152417,0.024782\H,0,-0.247446,-1.71092,0.024776\H,0,0.707598,-0.17058
 9,0.045493\\Version=ES64L-G09RevD.01\State=1-A\HF=-155.7005155\MP2=-15
 5.9262051\RMSD=2.686e-09\PG=C01 [X(C4H6)]\\@

 Normal termination of Gaussian 09 at Wed Aug 26 18:37:07 2020.
