 Gaussian 09, Revision D.01,
 Gaussian 09:  ES64L-G09RevD.01 24-Apr-2013

 --------------------
 #p B2PLYPD3/Def2QZVP
 --------------------

 ---------
 butadiene
 ---------
 Symbolic Z-matrix:
 Charge =  0 Multiplicity = 1

                         Standard orientation:
 ---------------------------------------------------------------------
 Center     Atomic      Atomic             Coordinates (Angstroms)
 Number     Number       Type             X           Y           Z
 ---------------------------------------------------------------------
      1          6           0        1.845940    0.098041    0.001489
      2          6           0        0.602290   -0.382608   -0.014003
      3          6           0       -0.612091    0.407344    0.006350
      4          6           0       -1.841380   -0.114442    0.002782
      5          1           0        2.691097   -0.539625    0.018568
      6          1           0        2.098063    1.131477    0.054310
      7          1           0        0.451622   -1.435222   -0.038035
      8          1           0       -0.488359    1.476786   -0.060723
      9          1           0       -1.986070   -1.192630    0.050821
     10          1           0       -2.734900    0.509200   -0.004645
 ---------------------------------------------------------------------

 SCF Done:  E(RB2PLYPD3) =  -155.700346186     A.U. after   11 cycles
 E2(B2PLYPD3) =    -0.2253283474D+00 E(B2PLYPD3) =    -0.15592567453371D+03

 The electronic state is 1-A.
 Alpha  occ. eigenvalues --  -10.62397 -10.62252 -10.61736 -10.61061  -0.93083
 Alpha  occ. eigenvalues --   -0.85009  -0.70606  -0.64411  -0.54961  -0.53957
 Alpha  occ. eigenvalues --   -0.47061  -0.45698  -0.41075  -0.38151  -0.27708
 Alpha virt. eigenvalues --    0.01643   0.06999   0.07534   0.08132   0.09699
 Alpha virt. eigenvalues --    0.11651   0.12509   0.14849   0.15817   0.16217
 Alpha virt. eigenvalues --    0.18873   0.20509   0.21855   0.22750   0.23704

 Mulliken charges:
               1
     1  C   -0.174097
     2  C   -0.031870
     3  C   -0.031508
     4  C   -0.174832
     5  H    0.082009
     6  H    0.065311
     7  H    0.057055
     8  H    0.057804
     9  H    0.064117
    10  H    0.086009
 Sum of Mulliken charges =   0.00000

 Dipole moment (field-independent basis, Debye):
    X=              0.0054    Y=              0.0122    Z=              0.0191  Tot=              0.0233
 Quadrupole moment (field-independent basis, Debye-Ang):
   XX=            -23.2254   YY=            -23.1981   ZZ=            -29.1868
   XY=              0.2509   XZ=              0.1183   YZ=             -0.0531

 1\1\GINC-NODE31\SP\RB2PLYPD3-FC\def2QZVP\C4H6\BOITTIER\26-Aug-2020\0\\
 #p B2PLYPD3/Def2QZVP\\butadiene\\0,1\C,0,-3.850465,0.215786,0.015859\C
 ,0,-2.714723,-0.482115,0.046722\C,0,-1.377144,0.073472,0.009771\C,0,-0
 .263016,-0.662562,0.029709\H,0,-4.797381,-0.258069,0.012549\H,0,-3.910
 871,1.276158,-0.063565\H,0,-2.757624,-1.543646,0.097578\H,0,-1.304522,
 1.148949,0.04964\H,0,-0.316579,-1.749963,0.009142\H,0,0.728894,-0.2115
 17,0.023851\\Version=ES64L-G09RevD.01\State=1-A\HF=-155.7003462\MP2=-1
 55.9256745\RMSD=2.627e-09\PG=C01 [X(C4H6)]\\@

 Normal termination of Gaussian 09 at Wed Aug 26 19:18:14 2020.
