 Gaussian 09, Revision D.01,
 Gaussian 09:  ES64L-G09RevD.01 24-Apr-2013

 --------------------
 #p B2PLYPD3/Def2QZVP
 --------------------

 ---------
 butadiene
 ---------
 Symbolic Z-matrix:
 Charge =  0 Multiplicity = 1

                         Standard orientation:
 ---------------------------------------------------------------------
 Center     Atomic      Atomic             Coordinates (Angstroms)
 Number     Number       Type             X           Y           Z
 ---------------------------------------------------------------------
      1          6           0       -1.847429    0.107177   -0.012618
      2          6           0       -0.606455   -0.401300    0.020233
      3          6           0        0.614606    0.399435    0.003055
      4          6           0        1.844859   -0.113261   -0.023622
      5          1           0       -2.751542   -0.495388   -0.026786
      6          1           0       -2.027386    1.179365   -0.040450
      7          1           0       -0.478061   -1.495468    0.061830
      8          1           0        0.479090    1.471587    0.082121
      9          1           0        2.032875   -1.144998   -0.023233
     10          1           0        2.711545    0.532598    0.024229
 ---------------------------------------------------------------------

 SCF Done:  E(RB2PLYPD3) =  -155.699971149     A.U. after   11 cycles
 E2(B2PLYPD3) =    -0.2257091446D+00 E(B2PLYPD3) =    -0.15592568029399D+03

 The electronic state is 1-A.
 Alpha  occ. eigenvalues --  -10.62918 -10.62598 -10.61763 -10.61171  -0.92792
 Alpha  occ. eigenvalues --   -0.84900  -0.70324  -0.64102  -0.54622  -0.53966
 Alpha  occ. eigenvalues --   -0.46907  -0.45610  -0.40986  -0.37948  -0.27731
 Alpha virt. eigenvalues --    0.01671   0.07000   0.07451   0.08032   0.09561
 Alpha virt. eigenvalues --    0.11618   0.12505   0.14720   0.15866   0.16189
 Alpha virt. eigenvalues --    0.18868   0.20533   0.21793   0.22803   0.23551

 Mulliken charges:
               1
     1  C   -0.171889
     2  C   -0.034547
     3  C   -0.029332
     4  C   -0.175163
     5  H    0.085137
     6  H    0.061807
     7  H    0.053391
     8  H    0.057783
     9  H    0.069937
    10  H    0.082875
 Sum of Mulliken charges =   0.00000

 Dipole moment (field-independent basis, Debye):
    X=              0.0060    Y=             -0.0042    Z=              0.0839  Tot=              0.0842
 Quadrupole moment (field-independent basis, Debye-Ang):
   XX=            -23.2517   YY=            -23.1826   ZZ=            -29.2795
   XY=             -0.2702   XZ=              0.2187   YZ=              0.0470

 1\1\GINC-NODE33\SP\RB2PLYPD3-FC\def2QZVP\C4H6\BOITTIER\26-Aug-2020\0\\
 #p B2PLYPD3/Def2QZVP\\butadiene\\0,1\C,0,-3.850946,0.222089,0.004778\C
 ,0,-2.721192,-0.499523,0.055539\C,0,-1.376385,0.068604,0.021097\C,0,-0
 .258019,-0.656843,0.012429\H,0,-4.848457,-0.208812,0.003662\H,0,-3.835
 805,1.308019,-0.05243\H,0,-2.790981,-1.597454,0.126919\H,0,-1.317378,1
 .14942,0.070902\H,0,-0.258018,-1.705178,0.041146\H,0,0.710481,-0.17574
 7,0.045924\\Version=ES64L-G09RevD.01\State=1-A\HF=-155.6999711\MP2=-15
 5.9256803\RMSD=3.393e-09\PG=C01 [X(C4H6)]\\@

 Normal termination of Gaussian 09 at Wed Aug 26 14:14:29 2020.
