 Gaussian 09, Revision D.01,
 Gaussian 09:  ES64L-G09RevD.01 24-Apr-2013

 --------------------
 #p B2PLYPD3/Def2QZVP
 --------------------

 ---------
 butadiene
 ---------
 Symbolic Z-matrix:
 Charge =  0 Multiplicity = 1

                         Standard orientation:
 ---------------------------------------------------------------------
 Center     Atomic      Atomic             Coordinates (Angstroms)
 Number     Number       Type             X           Y           Z
 ---------------------------------------------------------------------
      1          6           0       -1.848664    0.126528   -0.010287
      2          6           0       -0.627172   -0.421175   -0.016515
      3          6           0        0.614896    0.371026   -0.031331
      4          6           0        1.845705   -0.100282    0.016455
      5          1           0       -2.762741   -0.453447    0.117952
      6          1           0       -1.955721    1.220753    0.013156
      7          1           0       -0.542551   -1.483118    0.044366
      8          1           0        0.550363    1.456765    0.044488
      9          1           0        2.083014   -1.121440   -0.041550
     10          1           0        2.719047    0.523897    0.071661
 ---------------------------------------------------------------------

 SCF Done:  E(RB2PLYPD3) =  -155.697667340     A.U. after   11 cycles
 E2(B2PLYPD3) =    -0.2252920649D+00 E(B2PLYPD3) =    -0.15592295940453D+03

 The electronic state is 1-A.
 Alpha  occ. eigenvalues --  -10.62762 -10.62505 -10.61908 -10.60774  -0.92789
 Alpha  occ. eigenvalues --   -0.85280  -0.70037  -0.64331  -0.54846  -0.54063
 Alpha  occ. eigenvalues --   -0.47003  -0.45176  -0.40935  -0.37989  -0.28011
 Alpha virt. eigenvalues --    0.01875   0.06993   0.07585   0.08000   0.09570
 Alpha virt. eigenvalues --    0.11580   0.12590   0.14574   0.15829   0.16447
 Alpha virt. eigenvalues --    0.18969   0.20143   0.21904   0.22740   0.23859

 Mulliken charges:
               1
     1  C   -0.162752
     2  C   -0.048422
     3  C   -0.024160
     4  C   -0.170147
     5  H    0.084219
     6  H    0.062466
     7  H    0.063183
     8  H    0.053952
     9  H    0.062519
    10  H    0.079142
 Sum of Mulliken charges =   0.00000

 Dipole moment (field-independent basis, Debye):
    X=              0.0226    Y=             -0.0439    Z=              0.1912  Tot=              0.1975
 Quadrupole moment (field-independent basis, Debye-Ang):
   XX=            -23.1372   YY=            -23.2467   ZZ=            -29.1853
   XY=             -0.0433   XZ=             -0.2711   YZ=              0.0499

 1\1\GINC-NODE21\SP\RB2PLYPD3-FC\def2QZVP\C4H6\BOITTIER\26-Aug-2020\0\\
 #p B2PLYPD3/Def2QZVP\\butadiene\\0,1\C,0,-3.848487,0.231905,0.017561\C
 ,0,-2.740423,-0.519239,0.0237\C,0,-1.379954,0.045097,-0.010687\C,0,-0.
 249224,-0.631182,0.047625\H,0,-4.848625,-0.177682,0.160098\H,0,-3.7642
 04,1.328367,0.014983\H,0,-2.840814,-1.578057,0.109822\H,0,-1.255016,1.
 127057,0.039274\H,0,-0.192727,-1.67909,0.013837\H,0,0.719315,-0.166725
 ,0.087451\\Version=ES64L-G09RevD.01\State=1-A\HF=-155.6976673\MP2=-155
 .9229594\RMSD=6.146e-09\PG=C01 [X(C4H6)]\\@

 Normal termination of Gaussian 09 at Wed Aug 26 08:52:16 2020.
