 Gaussian 09, Revision D.01,
 Gaussian 09:  ES64L-G09RevD.01 24-Apr-2013

 --------------------
 #p B2PLYPD3/Def2QZVP
 --------------------

 ---------
 butadiene
 ---------
 Symbolic Z-matrix:
 Charge =  0 Multiplicity = 1

                         Standard orientation:
 ---------------------------------------------------------------------
 Center     Atomic      Atomic             Coordinates (Angstroms)
 Number     Number       Type             X           Y           Z
 ---------------------------------------------------------------------
      1          6           0        1.843089   -0.136237    0.021694
      2          6           0        0.622512    0.408864   -0.056033
      3          6           0       -0.621868   -0.371259   -0.025329
      4          6           0       -1.855710    0.096125    0.042025
      5          1           0        2.744196    0.503226    0.035473
      6          1           0        1.965968   -1.175172    0.132369
      7          1           0        0.509022    1.459293   -0.035034
      8          1           0       -0.481785   -1.437796   -0.069536
      9          1           0       -1.927718    1.210151    0.106323
     10          1           0       -2.737827   -0.544663   -0.063739
 ---------------------------------------------------------------------

 SCF Done:  E(RB2PLYPD3) =  -155.695703014     A.U. after   11 cycles
 E2(B2PLYPD3) =    -0.2256453279D+00 E(B2PLYPD3) =    -0.15592134834168D+03

 The electronic state is 1-A.
 Alpha  occ. eigenvalues --  -10.62481 -10.62176 -10.61778 -10.61676  -0.92951
 Alpha  occ. eigenvalues --   -0.85171  -0.69859  -0.64277  -0.54573  -0.53740
 Alpha  occ. eigenvalues --   -0.47294  -0.45332  -0.40836  -0.37937  -0.27968
 Alpha virt. eigenvalues --    0.01762   0.06944   0.07532   0.08010   0.09682
 Alpha virt. eigenvalues --    0.11709   0.12396   0.14554   0.15821   0.15983
 Alpha virt. eigenvalues --    0.18790   0.20414   0.21150   0.22698   0.24055

 Mulliken charges:
               1
     1  C   -0.173046
     2  C   -0.039570
     3  C   -0.021838
     4  C   -0.177693
     5  H    0.083940
     6  H    0.071811
     7  H    0.056941
     8  H    0.048363
     9  H    0.056330
    10  H    0.094762
 Sum of Mulliken charges =   0.00000

 Dipole moment (field-independent basis, Debye):
    X=              0.0773    Y=             -0.0359    Z=              0.0428  Tot=              0.0953
 Quadrupole moment (field-independent basis, Debye-Ang):
   XX=            -23.5327   YY=            -23.2187   ZZ=            -29.2316
   XY=              0.1838   XZ=              0.4387   YZ=              0.0743

 1\1\GINC-NODE19\SP\RB2PLYPD3-FC\def2QZVP\C4H6\BOITTIER\26-Aug-2020\0\\
 #p B2PLYPD3/Def2QZVP\\butadiene\\0,1\C,0,-3.84515,0.237664,0.045946\C,
 0,-2.737473,-0.512208,-0.015125\C,0,-1.376998,0.04197,-0.012269\C,0,-0
 .241818,-0.62893,0.069038\H,0,-4.842928,-0.235842,0.082368\H,0,-3.7861
 94,1.285275,0.121908\H,0,-2.806722,-1.565198,0.04091\H,0,-1.33133,1.11
 4647,-0.092002\H,0,-0.362587,-1.735947,0.170535\H,0,0.736829,-0.153855
 ,-0.059337\\Version=ES64L-G09RevD.01\State=1-A\HF=-155.695703\MP2=-155
 .9213483\RMSD=6.455e-09\PG=C01 [X(C4H6)]\\@

 Normal termination of Gaussian 09 at Wed Aug 26 09:23:19 2020.
