 Gaussian 09, Revision D.01,
 Gaussian 09:  ES64L-G09RevD.01 24-Apr-2013

 --------------------
 #p B2PLYPD3/Def2QZVP
 --------------------

 ---------
 butadiene
 ---------
 Symbolic Z-matrix:
 Charge =  0 Multiplicity = 1

                         Standard orientation:
 ---------------------------------------------------------------------
 Center     Atomic      Atomic             Coordinates (Angstroms)
 Number     Number       Type             X           Y           Z
 ---------------------------------------------------------------------
      1          6           0       -1.851701    0.114998   -0.009443
      2          6           0       -0.634915   -0.413445   -0.009531
      3          6           0        0.600335    0.369052    0.023949
      4          6           0        1.859126   -0.089974   -0.045075
      5          1           0       -2.688756   -0.586673    0.194042
      6          1           0       -2.036615    1.229475   -0.220987
      7          1           0       -0.318764   -1.416060    0.018333
      8          1           0        0.491856    1.390208    0.143647
      9          1           0        2.156572   -1.118055   -0.030047
     10          1           0        2.558643    0.617316    0.135610
 ---------------------------------------------------------------------

 SCF Done:  E(RB2PLYPD3) =  -155.679105912     A.U. after   11 cycles
 E2(B2PLYPD3) =    -0.2259304030D+00 E(B2PLYPD3) =    -0.15590503631472D+03

 The electronic state is 1-A.
 Alpha  occ. eigenvalues --  -10.62794 -10.62140 -10.61694 -10.60523  -0.93137
 Alpha  occ. eigenvalues --   -0.85237  -0.70788  -0.64600  -0.54392  -0.53760
 Alpha  occ. eigenvalues --   -0.47510  -0.46409  -0.40413  -0.37563  -0.27780
 Alpha virt. eigenvalues --    0.01398   0.06925   0.07472   0.08303   0.09536
 Alpha virt. eigenvalues --    0.11724   0.12202   0.14906   0.15538   0.16036
 Alpha virt. eigenvalues --    0.18802   0.20208   0.20960   0.22516   0.24683

 Mulliken charges:
               1
     1  C   -0.175645
     2  C   -0.043365
     3  C   -0.023006
     4  C   -0.180826
     5  H    0.086273
     6  H    0.079644
     7  H    0.062777
     8  H    0.052383
     9  H    0.061306
    10  H    0.080460
 Sum of Mulliken charges =   0.00000

 Dipole moment (field-independent basis, Debye):
    X=             -0.0053    Y=              0.0036    Z=              0.2226  Tot=              0.2227
 Quadrupole moment (field-independent basis, Debye-Ang):
   XX=            -23.9151   YY=            -23.0971   ZZ=            -29.0570
   XY=             -0.5342   XZ=              0.2824   YZ=             -0.1697

 1\1\GINC-NODE28\SP\RB2PLYPD3-FC\def2QZVP\C4H6\BOITTIER\26-Aug-2020\0\\
 #p B2PLYPD3/Def2QZVP\\butadiene\\0,1\C,0,-3.845663,0.24599,0.00763\C,0
 ,-2.749434,-0.50057,0.034987\C,0,-1.389347,0.037379,0.04123\C,0,-0.239
 091,-0.651808,-0.003001\H,0,-4.798641,-0.277315,0.236529\H,0,-3.819242
 ,1.365532,-0.251077\H,0,-2.626625,-1.542601,0.106085\H,0,-1.304175,1.0
 64877,0.117708\H,0,-0.139471,-1.715864,0.056254\H,0,0.581175,-0.08115,
 0.151088\\Version=ES64L-G09RevD.01\State=1-A\HF=-155.6791059\MP2=-155.
 9050363\RMSD=7.494e-09\PG=C01 [X(C4H6)]\\@

 Normal termination of Gaussian 09 at Wed Aug 26 11:41:30 2020.
