 Gaussian 09, Revision D.01,
 Gaussian 09:  ES64L-G09RevD.01 24-Apr-2013

 --------------------
 #p B2PLYPD3/Def2QZVP
 --------------------

 ---------
 butadiene
 ---------
 Symbolic Z-matrix:
 Charge =  0 Multiplicity = 1

                         Standard orientation:
 ---------------------------------------------------------------------
 Center     Atomic      Atomic             Coordinates (Angstroms)
 Number     Number       Type             X           Y           Z
 ---------------------------------------------------------------------
      1          6           0        1.819188    0.118424    0.023666
      2          6           0        0.597999   -0.421556   -0.030279
      3          6           0       -0.579299    0.379347   -0.053869
      4          6           0       -1.837796   -0.097391    0.003926
      5          1           0        2.679851   -0.503908    0.103163
      6          1           0        1.926784    1.196061   -0.002458
      7          1           0        0.450780   -1.471187   -0.014680
      8          1           0       -0.375936    1.462375    0.033111
      9          1           0       -2.002306   -1.132770    0.064668
     10          1           0       -2.679723    0.576483    0.155535
 ---------------------------------------------------------------------

 SCF Done:  E(RB2PLYPD3) =  -155.697096151     A.U. after   11 cycles
 E2(B2PLYPD3) =    -0.2260147475D+00 E(B2PLYPD3) =    -0.15592311089858D+03

 The electronic state is 1-A.
 Alpha  occ. eigenvalues --  -10.62487 -10.61959 -10.61417 -10.61335  -0.93538
 Alpha  occ. eigenvalues --   -0.84768  -0.70632  -0.64410  -0.54826  -0.53942
 Alpha  occ. eigenvalues --   -0.46530  -0.46058  -0.41523  -0.38383  -0.27331
 Alpha virt. eigenvalues --    0.01412   0.07047   0.07403   0.08151   0.09590
 Alpha virt. eigenvalues --    0.11828   0.12512   0.14895   0.15720   0.16100
 Alpha virt. eigenvalues --    0.18661   0.20344   0.21695   0.23275   0.23927

 Mulliken charges:
               1
     1  C   -0.179307
     2  C   -0.029010
     3  C   -0.016105
     4  C   -0.184810
     5  H    0.087996
     6  H    0.067572
     7  H    0.054824
     8  H    0.046464
     9  H    0.067180
    10  H    0.085196
 Sum of Mulliken charges =   0.00000

 Dipole moment (field-independent basis, Debye):
    X=              0.0829    Y=             -0.0567    Z=              0.2556  Tot=              0.2746
 Quadrupole moment (field-independent basis, Debye-Ang):
   XX=            -23.7885   YY=            -23.0778   ZZ=            -29.1766
   XY=              0.1827   XZ=             -0.3442   YZ=              0.0297

 1\1\GINC-NODE16\SP\RB2PLYPD3-FC\def2QZVP\C4H6\BOITTIER\26-Aug-2020\0\\
 #p B2PLYPD3/Def2QZVP\\butadiene\\0,1\C,0,-3.81719,0.240448,-0.00802\C,
 0,-2.717142,-0.514893,0.063717\C,0,-1.411458,0.053605,0.058138\C,0,-0.
 263837,-0.650397,0.015952\H,0,-4.77901,-0.213456,-0.064864\H,0,-3.7226
 13,1.319559,-0.019603\H,0,-2.767509,-1.573506,0.0848\H,0,-1.410816,1.1
 5193,-0.066581\H,0,-0.294902,-1.699776,-0.008595\H,0,0.687432,-0.15032
 2,-0.159958\\Version=ES64L-G09RevD.01\State=1-A\HF=-155.6970962\MP2=-1
 55.9231109\RMSD=3.274e-09\PG=C01 [X(C4H6)]\\@

 Normal termination of Gaussian 09 at Wed Aug 26 09:10:04 2020.
