 Gaussian 09, Revision D.01,
 Gaussian 09:  ES64L-G09RevD.01 24-Apr-2013

 --------------------
 #p B2PLYPD3/Def2QZVP
 --------------------

 ---------
 butadiene
 ---------
 Symbolic Z-matrix:
 Charge =  0 Multiplicity = 1

                         Standard orientation:
 ---------------------------------------------------------------------
 Center     Atomic      Atomic             Coordinates (Angstroms)
 Number     Number       Type             X           Y           Z
 ---------------------------------------------------------------------
      1          6           0       -1.827254    0.115486   -0.016792
      2          6           0       -0.607526   -0.409298    0.007007
      3          6           0        0.594634    0.380330    0.009767
      4          6           0        1.832859   -0.097935   -0.011715
      5          1           0       -2.729102   -0.491733    0.028466
      6          1           0       -1.955885    1.199783   -0.012843
      7          1           0       -0.454467   -1.488458    0.056990
      8          1           0        0.492363    1.465414    0.009768
      9          1           0        2.019673   -1.147680   -0.063115
     10          1           0        2.671140    0.531179    0.051126
 ---------------------------------------------------------------------

 SCF Done:  E(RB2PLYPD3) =  -155.700340983     A.U. after   11 cycles
 E2(B2PLYPD3) =    -0.2252825596D+00 E(B2PLYPD3) =    -0.15592562354279D+03

 The electronic state is 1-A.
 Alpha  occ. eigenvalues --  -10.62417 -10.62160 -10.61650 -10.60769  -0.93358
 Alpha  occ. eigenvalues --   -0.85184  -0.70421  -0.64019  -0.54944  -0.54125
 Alpha  occ. eigenvalues --   -0.46988  -0.45406  -0.41132  -0.38388  -0.27735
 Alpha virt. eigenvalues --    0.01785   0.07045   0.07415   0.08076   0.09812
 Alpha virt. eigenvalues --    0.11710   0.12517   0.14775   0.15813   0.16246
 Alpha virt. eigenvalues --    0.18764   0.20451   0.21779   0.22651   0.24004

 Mulliken charges:
               1
     1  C   -0.170690
     2  C   -0.033293
     3  C   -0.017798
     4  C   -0.180655
     5  H    0.086314
     6  H    0.064925
     7  H    0.053783
     8  H    0.048105
     9  H    0.061675
    10  H    0.087634
 Sum of Mulliken charges =   0.00000

 Dipole moment (field-independent basis, Debye):
    X=             -0.0068    Y=             -0.0036    Z=              0.0748  Tot=              0.0752
 Quadrupole moment (field-independent basis, Debye-Ang):
   XX=            -23.3887   YY=            -23.1719   ZZ=            -29.1524
   XY=             -0.0913   XZ=             -0.0649   YZ=              0.0166

 1\1\GINC-NODE12\SP\RB2PLYPD3-FC\def2QZVP\C4H6\BOITTIER\26-Aug-2020\0\\
 #p B2PLYPD3/Def2QZVP\\butadiene\\0,1\C,0,-3.827076,0.230042,0.003957\C
 ,0,-2.72248,-0.506087,0.045001\C,0,-1.397183,0.052404,0.025358\C,0,-0.
 266167,-0.642701,0.019761\H,0,-4.823785,-0.202114,0.066447\H,0,-3.7571
 7,1.319326,-0.024944\H,0,-2.767199,-1.593136,0.127683\H,0,-1.301229,1.
 137568,-0.007482\H,0,-0.272798,-1.709978,0.000258\H,0,0.672459,-0.1742
 77,0.064585\\Version=ES64L-G09RevD.01\State=1-A\HF=-155.700341\MP2=-15
 5.9256235\RMSD=3.104e-09\PG=C01 [X(C4H6)]\\@

 Normal termination of Gaussian 09 at Wed Aug 26 16:05:34 2020.
