 Gaussian 09, Revision D.01,
 Gaussian 09:  ES64L-G09RevD.01 24-Apr-2013

 --------------------
 #p B2PLYPD3/Def2QZVP
 --------------------

 ---------
 butadiene
 ---------
 Symbolic Z-matrix:
 Charge =  0 Multiplicity = 1

                         Standard orientation:
 ---------------------------------------------------------------------
 Center     Atomic      Atomic             Coordinates (Angstroms)
 Number     Number       Type             X           Y           Z
 ---------------------------------------------------------------------
      1          6           0       -1.841600   -0.115881    0.012755
      2          6           0       -0.607505    0.407318   -0.021673
      3          6           0        0.611153   -0.386867   -0.006481
      4          6           0        1.844358    0.103969    0.001032
      5          1           0       -2.748155    0.516560    0.010168
      6          1           0       -1.995973   -1.190517    0.055736
      7          1           0       -0.456459    1.488399   -0.035688
      8          1           0        0.442560   -1.454895   -0.046265
      9          1           0        2.038044    1.151621    0.087841
     10          1           0        2.681550   -0.562402    0.014407
 ---------------------------------------------------------------------

 SCF Done:  E(RB2PLYPD3) =  -155.700445342     A.U. after   11 cycles
 E2(B2PLYPD3) =    -0.2256779582D+00 E(B2PLYPD3) =    -0.15592612330034D+03

 The electronic state is 1-A.
 Alpha  occ. eigenvalues --  -10.62681 -10.62328 -10.61987 -10.61150  -0.92986
 Alpha  occ. eigenvalues --   -0.84930  -0.70238  -0.64053  -0.54549  -0.53882
 Alpha  occ. eigenvalues --   -0.46858  -0.45796  -0.40840  -0.38131  -0.27758
 Alpha virt. eigenvalues --    0.01700   0.06981   0.07417   0.08077   0.09644
 Alpha virt. eigenvalues --    0.11700   0.12388   0.14795   0.15828   0.16040
 Alpha virt. eigenvalues --    0.18779   0.20488   0.21663   0.22808   0.23735

 Mulliken charges:
               1
     1  C   -0.174908
     2  C   -0.032238
     3  C   -0.025254
     4  C   -0.178469
     5  H    0.085246
     6  H    0.065695
     7  H    0.053195
     8  H    0.052488
     9  H    0.068408
    10  H    0.085837
 Sum of Mulliken charges =   0.00000

 Dipole moment (field-independent basis, Debye):
    X=             -0.0023    Y=             -0.0049    Z=              0.0679  Tot=              0.0681
 Quadrupole moment (field-independent basis, Debye-Ang):
   XX=            -23.4617   YY=            -23.1402   ZZ=            -29.2627
   XY=              0.2423   XZ=              0.0746   YZ=              0.0544

 1\1\GINC-NODE39\SP\RB2PLYPD3-FC\def2QZVP\C4H6\BOITTIER\26-Aug-2020\0\\
 #p B2PLYPD3/Def2QZVP\\butadiene\\0,1\C,0,-3.842971,0.232467,0.00563\C,
 0,-2.723723,-0.504247,0.055121\C,0,-1.381599,0.055741,0.0204\C,0,-0.25
 7529,-0.650086,0.027114\H,0,-4.848936,-0.22528,0.023841\H,0,-3.800614,
 1.315812,-0.065722\H,0,-2.770624,-1.59408,0.097683\H,0,-1.354118,1.137
 314,0.031943\H,0,-0.256819,-1.717389,-0.031945\H,0,0.686314,-0.146714,
 -0.002847\\Version=ES64L-G09RevD.01\State=1-A\HF=-155.7004453\MP2=-155
 .9261233\RMSD=4.209e-09\PG=C01 [X(C4H6)]\\@

 Normal termination of Gaussian 09 at Wed Aug 26 20:05:29 2020.
