 Gaussian 09, Revision D.01,
 Gaussian 09:  ES64L-G09RevD.01 24-Apr-2013

 --------------------
 #p B2PLYPD3/Def2QZVP
 --------------------

 ---------
 butadiene
 ---------
 Symbolic Z-matrix:
 Charge =  0 Multiplicity = 1

                         Standard orientation:
 ---------------------------------------------------------------------
 Center     Atomic      Atomic             Coordinates (Angstroms)
 Number     Number       Type             X           Y           Z
 ---------------------------------------------------------------------
      1          6           0        1.848503    0.094544   -0.019448
      2          6           0        0.607512   -0.388648    0.016930
      3          6           0       -0.601683    0.422776    0.006638
      4          6           0       -1.844858   -0.120095   -0.014450
      5          1           0        2.695493   -0.527674   -0.045319
      6          1           0        2.038024    1.146320    0.044005
      7          1           0        0.455542   -1.470729    0.060270
      8          1           0       -0.490131    1.498315    0.017459
      9          1           0       -2.016288   -1.183474   -0.011021
     10          1           0       -2.739480    0.485782   -0.003416
 ---------------------------------------------------------------------

 SCF Done:  E(RB2PLYPD3) =  -155.699731876     A.U. after   11 cycles
 E2(B2PLYPD3) =    -0.2258653431D+00 E(B2PLYPD3) =    -0.15592559721864D+03

 The electronic state is 1-A.
 Alpha  occ. eigenvalues --  -10.62937 -10.62599 -10.61820 -10.60985  -0.92767
 Alpha  occ. eigenvalues --   -0.84767  -0.70523  -0.64217  -0.54853  -0.53912
 Alpha  occ. eigenvalues --   -0.46803  -0.45710  -0.41404  -0.37880  -0.27501
 Alpha virt. eigenvalues --    0.01515   0.07028   0.07455   0.08112   0.09475
 Alpha virt. eigenvalues --    0.11625   0.12548   0.14735   0.15933   0.16249
 Alpha virt. eigenvalues --    0.18853   0.20569   0.21827   0.22927   0.23593

 Mulliken charges:
               1
     1  C   -0.176260
     2  C   -0.026128
     3  C   -0.038279
     4  C   -0.174471
     5  H    0.087084
     6  H    0.064437
     7  H    0.053818
     8  H    0.059544
     9  H    0.066698
    10  H    0.083557
 Sum of Mulliken charges =   0.00000

 Dipole moment (field-independent basis, Debye):
    X=             -0.0098    Y=              0.0003    Z=              0.0752  Tot=              0.0759
 Quadrupole moment (field-independent basis, Debye-Ang):
   XX=            -23.2750   YY=            -23.1231   ZZ=            -29.2973
   XY=              0.2374   XZ=              0.0032   YZ=              0.0502

 1\1\GINC-NODE34\SP\RB2PLYPD3-FC\def2QZVP\C4H6\BOITTIER\26-Aug-2020\0\\
 #p B2PLYPD3/Def2QZVP\\butadiene\\0,1\C,0,-3.851955,0.212959,0.036143\C
 ,0,-2.719317,-0.488218,0.017757\C,0,-1.38299,0.090333,0.004527\C,0,-0.
 258807,-0.668069,0.045492\H,0,-4.797636,-0.244167,0.080196\H,0,-3.8478
 34,1.279103,-0.061317\H,0,-2.76627,-1.580737,0.009372\H,0,-1.297683,1.
 167367,-0.04093\H,0,-0.283079,-1.744465,0.076439\H,0,0.730808,-0.23517
 1,0.016887\\Version=ES64L-G09RevD.01\State=1-A\HF=-155.6997319\MP2=-15
 5.9255972\RMSD=6.071e-09\PG=C01 [X(C4H6)]\\@

 Normal termination of Gaussian 09 at Wed Aug 26 14:03:57 2020.
