 Gaussian 09, Revision D.01,
 Gaussian 09:  ES64L-G09RevD.01 24-Apr-2013

 --------------------
 #p B2PLYPD3/Def2QZVP
 --------------------

 ---------
 butadiene
 ---------
 Symbolic Z-matrix:
 Charge =  0 Multiplicity = 1

                         Standard orientation:
 ---------------------------------------------------------------------
 Center     Atomic      Atomic             Coordinates (Angstroms)
 Number     Number       Type             X           Y           Z
 ---------------------------------------------------------------------
      1          6           0       -1.827536   -0.129209   -0.041931
      2          6           0       -0.596839    0.440226    0.024486
      3          6           0        0.588385   -0.389793    0.020813
      4          6           0        1.834302    0.087942   -0.029233
      5          1           0       -2.674950    0.535024    0.044663
      6          1           0       -1.973250   -1.250767   -0.080019
      7          1           0       -0.443327    1.504561    0.118417
      8          1           0        0.411184   -1.437062    0.160604
      9          1           0        1.995870    1.158806   -0.089580
     10          1           0        2.694605   -0.565557    0.001106
 ---------------------------------------------------------------------

 SCF Done:  E(RB2PLYPD3) =  -155.696052724     A.U. after   11 cycles
 E2(B2PLYPD3) =    -0.2265456061D+00 E(B2PLYPD3) =    -0.15592259832986D+03

 The electronic state is 1-A.
 Alpha  occ. eigenvalues --  -10.62744 -10.62361 -10.62090 -10.61373  -0.93013
 Alpha  occ. eigenvalues --   -0.84427  -0.69910  -0.64210  -0.54225  -0.53665
 Alpha  occ. eigenvalues --   -0.46499  -0.45650  -0.41471  -0.37795  -0.27401
 Alpha virt. eigenvalues --    0.01578   0.07064   0.07246   0.08058   0.09362
 Alpha virt. eigenvalues --    0.11766   0.12247   0.14698   0.15708   0.15979
 Alpha virt. eigenvalues --    0.18626   0.20249   0.21337   0.22921   0.23990

 Mulliken charges:
               1
     1  C   -0.176908
     2  C   -0.044245
     3  C   -0.018999
     4  C   -0.184775
     5  H    0.085120
     6  H    0.070765
     7  H    0.060608
     8  H    0.057752
     9  H    0.063678
    10  H    0.087002
 Sum of Mulliken charges =   0.00000

 Dipole moment (field-independent basis, Debye):
    X=             -0.0117    Y=              0.0161    Z=              0.1736  Tot=              0.1747
 Quadrupole moment (field-independent basis, Debye-Ang):
   XX=            -23.9705   YY=            -22.9007   ZZ=            -29.3484
   XY=              0.1992   XZ=             -0.1358   YZ=             -0.0088

 1\1\GINC-NODE02\SP\RB2PLYPD3-FC\def2QZVP\C4H6\BOITTIER\26-Aug-2020\0\\
 #p B2PLYPD3/Def2QZVP\\butadiene\\0,1\C,0,-3.823289,0.252183,0.053592\C
 ,0,-2.719556,-0.537027,0.006673\C,0,-1.401052,0.058801,-0.008721\C,0,-
 0.265136,-0.639946,0.05831\H,0,-4.779281,-0.245667,-0.017395\H,0,-3.75
 8581,1.381936,0.060438\H,0,-2.76611,-1.613553,-0.05754\H,0,-1.381409,1
 .116514,-0.177747\H,0,-0.304673,-1.720128,0.148521\H,0,0.701298,-0.158
 248,0.012744\\Version=ES64L-G09RevD.01\State=1-A\HF=-155.6960527\MP2=-
 155.9225983\RMSD=8.194e-09\PG=C01 [X(C4H6)]\\@

 Normal termination of Gaussian 09 at Wed Aug 26 09:50:07 2020.
