 Gaussian 09, Revision D.01,
 Gaussian 09:  ES64L-G09RevD.01 24-Apr-2013

 --------------------
 #p B2PLYPD3/Def2QZVP
 --------------------

 ---------
 butadiene
 ---------
 Symbolic Z-matrix:
 Charge =  0 Multiplicity = 1

                         Standard orientation:
 ---------------------------------------------------------------------
 Center     Atomic      Atomic             Coordinates (Angstroms)
 Number     Number       Type             X           Y           Z
 ---------------------------------------------------------------------
      1          6           0       -1.845129   -0.134917    0.024219
      2          6           0       -0.626354    0.423088   -0.025364
      3          6           0        0.604625   -0.377094   -0.036991
      4          6           0        1.840226    0.103584    0.043500
      5          1           0       -2.710046    0.530573   -0.065462
      6          1           0       -1.968369   -1.201740    0.133506
      7          1           0       -0.456871    1.480882    0.002053
      8          1           0        0.522845   -1.421481   -0.090534
      9          1           0        2.133564    1.127005    0.017117
     10          1           0        2.638667   -0.603204   -0.028866
 ---------------------------------------------------------------------

 SCF Done:  E(RB2PLYPD3) =  -155.696417402     A.U. after   11 cycles
 E2(B2PLYPD3) =    -0.2254000226D+00 E(B2PLYPD3) =    -0.15592181742479D+03

 The electronic state is 1-A.
 Alpha  occ. eigenvalues --  -10.62566 -10.61931 -10.61821 -10.60878  -0.92868
 Alpha  occ. eigenvalues --   -0.85107  -0.70145  -0.64623  -0.54553  -0.54023
 Alpha  occ. eigenvalues --   -0.46654  -0.46363  -0.41045  -0.37754  -0.27751
 Alpha virt. eigenvalues --    0.01752   0.06959   0.07583   0.08111   0.09512
 Alpha virt. eigenvalues --    0.11743   0.12332   0.14944   0.15660   0.16127
 Alpha virt. eigenvalues --    0.18836   0.20480   0.21432   0.22546   0.24433

 Mulliken charges:
               1
     1  C   -0.176974
     2  C   -0.044183
     3  C   -0.029598
     4  C   -0.174150
     5  H    0.086098
     6  H    0.075901
     7  H    0.064052
     8  H    0.058351
     9  H    0.066559
    10  H    0.073945
 Sum of Mulliken charges =   0.00000

 Dipole moment (field-independent basis, Debye):
    X=              0.0057    Y=              0.0066    Z=             -0.0696  Tot=              0.0701
 Quadrupole moment (field-independent basis, Debye-Ang):
   XX=            -23.7538   YY=            -22.9057   ZZ=            -29.1939
   XY=              0.2705   XZ=             -0.1764   YZ=             -0.0726

 1\1\GINC-NODE35\SP\RB2PLYPD3-FC\def2QZVP\C4H6\BOITTIER\26-Aug-2020\0\\
 #p B2PLYPD3/Def2QZVP\\butadiene\\0,1\C,0,-3.840025,0.24741,-0.00915\C,
 0,-2.74044,-0.517337,0.063756\C,0,-1.386254,0.049909,0.051607\C,0,-0.2
 56686,-0.64633,-0.008111\H,0,-4.809671,-0.249287,0.100763\H,0,-3.77096
 7,1.314632,-0.155818\H,0,-2.762796,-1.588694,0.073641\H,0,-1.279925,1.
 093319,0.068585\H,0,-0.150877,-1.704152,0.054751\H,0,0.655419,-0.09151
 5,0.042273\\Version=ES64L-G09RevD.01\State=1-A\HF=-155.6964174\MP2=-15
 5.9218174\RMSD=6.470e-09\PG=C01 [X(C4H6)]\\@

 Normal termination of Gaussian 09 at Wed Aug 26 09:27:07 2020.
