 Gaussian 09, Revision D.01,
 Gaussian 09:  ES64L-G09RevD.01 24-Apr-2013

 --------------------
 #p B2PLYPD3/Def2QZVP
 --------------------

 ---------
 butadiene
 ---------
 Symbolic Z-matrix:
 Charge =  0 Multiplicity = 1

                         Standard orientation:
 ---------------------------------------------------------------------
 Center     Atomic      Atomic             Coordinates (Angstroms)
 Number     Number       Type             X           Y           Z
 ---------------------------------------------------------------------
      1          6           0       -1.843942    0.095200   -0.020335
      2          6           0       -0.601987   -0.388785    0.021731
      3          6           0        0.604325    0.410697    0.013786
      4          6           0        1.827433   -0.115179   -0.011010
      5          1           0       -2.712872   -0.507492   -0.039779
      6          1           0       -1.992293    1.156739   -0.044431
      7          1           0       -0.433441   -1.452063    0.113582
      8          1           0        0.500418    1.505444    0.068480
      9          1           0        1.968728   -1.190077   -0.103392
     10          1           0        2.754485    0.475851   -0.019486
 ---------------------------------------------------------------------

 SCF Done:  E(RB2PLYPD3) =  -155.699988811     A.U. after   11 cycles
 E2(B2PLYPD3) =    -0.2256149540D+00 E(B2PLYPD3) =    -0.15592560376546D+03

 The electronic state is 1-A.
 Alpha  occ. eigenvalues --  -10.62640 -10.62420 -10.61744 -10.61131  -0.93150
 Alpha  occ. eigenvalues --   -0.84978  -0.70312  -0.64055  -0.54972  -0.53803
 Alpha  occ. eigenvalues --   -0.47053  -0.45293  -0.41119  -0.38159  -0.27729
 Alpha virt. eigenvalues --    0.01725   0.07049   0.07416   0.08052   0.09621
 Alpha virt. eigenvalues --    0.11641   0.12605   0.14623   0.15813   0.16255
 Alpha virt. eigenvalues --    0.18795   0.20468   0.21770   0.22828   0.23567

 Mulliken charges:
               1
     1  C   -0.177036
     2  C   -0.029270
     3  C   -0.027743
     4  C   -0.171570
     5  H    0.089734
     6  H    0.063266
     7  H    0.054955
     8  H    0.052835
     9  H    0.061220
    10  H    0.083609
 Sum of Mulliken charges =   0.00000

 Dipole moment (field-independent basis, Debye):
    X=              0.0176    Y=             -0.0035    Z=             -0.0043  Tot=              0.0184
 Quadrupole moment (field-independent basis, Debye-Ang):
   XX=            -23.2412   YY=            -23.2784   ZZ=            -29.2086
   XY=             -0.1174   XZ=             -0.0668   YZ=              0.0399

 1\1\GINC-NODE02\SP\RB2PLYPD3-FC\def2QZVP\C4H6\BOITTIER\26-Aug-2020\0\\
 #p B2PLYPD3/Def2QZVP\\butadiene\\0,1\C,0,-3.847213,0.210581,-0.00022\C
 ,0,-2.71284,-0.488343,0.056061\C,0,-1.382099,0.079808,0.028557\C,0,-0.
 274061,-0.658646,0.019077\H,0,-4.810699,-0.225686,-0.004862\H,0,-3.801
 657,1.280467,-0.052398\H,0,-2.738606,-1.561816,0.176041\H,0,-1.286557,
 1.176379,0.054322\H,0,-0.329382,-1.743431,-0.044839\H,0,0.744388,-0.24
 5064,-0.003814\\Version=ES64L-G09RevD.01\State=1-A\HF=-155.6999888\MP2
 =-155.9256038\RMSD=3.386e-09\PG=C01 [X(C4H6)]\\@

 Normal termination of Gaussian 09 at Wed Aug 26 19:18:52 2020.
