 Gaussian 09, Revision D.01,
 Gaussian 09:  ES64L-G09RevD.01 24-Apr-2013

 --------------------
 #p B2PLYPD3/Def2QZVP
 --------------------

 ---------
 butadiene
 ---------
 Symbolic Z-matrix:
 Charge =  0 Multiplicity = 1

                         Standard orientation:
 ---------------------------------------------------------------------
 Center     Atomic      Atomic             Coordinates (Angstroms)
 Number     Number       Type             X           Y           Z
 ---------------------------------------------------------------------
      1          6           0       -1.868946    0.097023   -0.018953
      2          6           0       -0.614858   -0.387492    0.026121
      3          6           0        0.616359    0.420030    0.024458
      4          6           0        1.846728   -0.111807   -0.047520
      5          1           0       -2.636168   -0.592801   -0.037831
      6          1           0       -2.081361    1.158006   -0.132660
      7          1           0       -0.403393   -1.407185    0.160717
      8          1           0        0.479603    1.477175    0.151789
      9          1           0        1.968551   -1.194934   -0.080410
     10          1           0        2.797068    0.453217    0.033750
 ---------------------------------------------------------------------

 SCF Done:  E(RB2PLYPD3) =  -155.694884812     A.U. after   11 cycles
 E2(B2PLYPD3) =    -0.2259040553D+00 E(B2PLYPD3) =    -0.15592078886760D+03

 The electronic state is 1-A.
 Alpha  occ. eigenvalues --  -10.62642 -10.62435 -10.62092 -10.61286  -0.92676
 Alpha  occ. eigenvalues --   -0.84812  -0.70443  -0.64471  -0.54813  -0.53585
 Alpha  occ. eigenvalues --   -0.47237  -0.46027  -0.41003  -0.37464  -0.27759
 Alpha virt. eigenvalues --    0.01543   0.07051   0.07499   0.08179   0.09376
 Alpha virt. eigenvalues --    0.11624   0.12448   0.14671   0.15693   0.16136
 Alpha virt. eigenvalues --    0.18865   0.20234   0.21566   0.22746   0.23848

 Mulliken charges:
               1
     1  C   -0.182607
     2  C   -0.038703
     3  C   -0.035778
     4  C   -0.169969
     5  H    0.090350
     6  H    0.073906
     7  H    0.061279
     8  H    0.059878
     9  H    0.058110
    10  H    0.083534
 Sum of Mulliken charges =   0.00000

 Dipole moment (field-independent basis, Debye):
    X=              0.0242    Y=             -0.0228    Z=              0.1139  Tot=              0.1186
 Quadrupole moment (field-independent basis, Debye-Ang):
   XX=            -23.3786   YY=            -23.2086   ZZ=            -29.2466
   XY=             -0.3032   XZ=              0.3776   YZ=             -0.0312

 1\1\GINC-NODE08\SP\RB2PLYPD3-FC\def2QZVP\C4H6\BOITTIER\26-Aug-2020\0\\
 #p B2PLYPD3/Def2QZVP\\butadiene\\0,1\C,0,-3.87038,0.217113,-0.003474\C
 ,0,-2.725092,-0.485429,0.061884\C,0,-1.367721,0.084813,0.042919\C,0,-0
 .254393,-0.663385,-0.007469\H,0,-4.750106,-0.322256,-0.006146\H,0,-3.8
 86669,1.295212,-0.148978\H,0,-2.702233,-1.522154,0.227064\H,0,-1.31021
 5,1.152504,0.138837\H,0,-0.331266,-1.751124,-0.008308\H,0,0.782771,-0.
 278087,0.062101\\Version=ES64L-G09RevD.01\State=1-A\HF=-155.6948848\MP
 2=-155.9207889\RMSD=6.214e-09\PG=C01 [X(C4H6)]\\@

 Normal termination of Gaussian 09 at Wed Aug 26 11:17:27 2020.
