 Gaussian 09, Revision D.01,
 Gaussian 09:  ES64L-G09RevD.01 24-Apr-2013

 --------------------
 #p B2PLYPD3/Def2QZVP
 --------------------

 ---------
 butadiene
 ---------
 Symbolic Z-matrix:
 Charge =  0 Multiplicity = 1

                         Standard orientation:
 ---------------------------------------------------------------------
 Center     Atomic      Atomic             Coordinates (Angstroms)
 Number     Number       Type             X           Y           Z
 ---------------------------------------------------------------------
      1          6           0        1.831154    0.080648   -0.043732
      2          6           0        0.611798   -0.323846   -0.002639
      3          6           0       -0.598605    0.406283    0.035174
      4          6           0       -1.825147   -0.132085   -0.022820
      5          1           0        2.665969   -0.574740    0.148730
      6          1           0        2.002753    1.037872   -0.217354
      7          1           0        0.512069   -1.387050    0.218416
      8          1           0       -0.513137    1.536019    0.244853
      9          1           0       -1.994228   -1.205991   -0.141180
     10          1           0       -2.788630    0.407891   -0.049365
 ---------------------------------------------------------------------

 SCF Done:  E(RB2PLYPD3) =  -155.680662142     A.U. after   11 cycles
 E2(B2PLYPD3) =    -0.2252108432D+00 E(B2PLYPD3) =    -0.15590587298499D+03

 The electronic state is 1-A.
 Alpha  occ. eigenvalues --  -10.63275 -10.62234 -10.61253 -10.59591  -0.93989
 Alpha  occ. eigenvalues --   -0.85712  -0.70978  -0.63750  -0.55460  -0.54299
 Alpha  occ. eigenvalues --   -0.47785  -0.44748  -0.40647  -0.38013  -0.28086
 Alpha virt. eigenvalues --    0.01595   0.07105   0.07367   0.07828   0.10077
 Alpha virt. eigenvalues --    0.11607   0.12546   0.14842   0.15523   0.16515
 Alpha virt. eigenvalues --    0.18739   0.19544   0.22070   0.22508   0.23661

 Mulliken charges:
               1
     1  C   -0.183739
     2  C    0.006619
     3  C   -0.056070
     4  C   -0.162618
     5  H    0.086996
     6  H    0.067183
     7  H    0.046710
     8  H    0.051090
     9  H    0.060901
    10  H    0.082926
 Sum of Mulliken charges =   0.00000

 Dipole moment (field-independent basis, Debye):
    X=             -0.0410    Y=             -0.0099    Z=              0.1649  Tot=              0.1702
 Quadrupole moment (field-independent basis, Debye-Ang):
   XX=            -22.9360   YY=            -23.6999   ZZ=            -28.8069
   XY=              0.1690   XZ=              0.4453   YZ=             -0.1508

 1\1\GINC-NODE03\SP\RB2PLYPD3-FC\def2QZVP\C4H6\BOITTIER\26-Aug-2020\0\\
 #p B2PLYPD3/Def2QZVP\\butadiene\\0,1\C,0,-3.838607,0.187359,0.051517\C
 ,0,-2.710358,-0.428017,0.029177\C,0,-1.389662,0.074369,-0.025261\C,0,-
 0.27803,-0.670842,0.055642\H,0,-4.776544,-0.315365,-0.124643\H,0,-3.83
 7596,1.164834,0.194381\H,0,-2.800924,-1.498493,-0.158159\H,0,-1.273504
 ,1.194175,-0.270444\H,0,-0.30205,-1.753436,0.208235\H,0,0.765969,-0.30
 9689,0.070209\\Version=ES64L-G09RevD.01\State=1-A\HF=-155.6806621\MP2=
 -155.905873\RMSD=8.642e-09\PG=C01 [X(C4H6)]\\@

 Normal termination of Gaussian 09 at Wed Aug 26 14:11:18 2020.
