 Gaussian 09, Revision D.01,
 Gaussian 09:  ES64L-G09RevD.01 24-Apr-2013

 --------------------
 #p B2PLYPD3/Def2QZVP
 --------------------

 ---------
 butadiene
 ---------
 Symbolic Z-matrix:
 Charge =  0 Multiplicity = 1

                         Standard orientation:
 ---------------------------------------------------------------------
 Center     Atomic      Atomic             Coordinates (Angstroms)
 Number     Number       Type             X           Y           Z
 ---------------------------------------------------------------------
      1          6           0        1.837193    0.102749   -0.026867
      2          6           0        0.602368   -0.392231    0.009951
      3          6           0       -0.601789    0.411611    0.015073
      4          6           0       -1.820052   -0.124508   -0.009381
      5          1           0        2.679521   -0.544933    0.054180
      6          1           0        1.975552    1.171117   -0.063003
      7          1           0        0.424441   -1.459058    0.076050
      8          1           0       -0.506905    1.526975    0.094814
      9          1           0       -1.967655   -1.199233   -0.066581
     10          1           0       -2.711279    0.519413   -0.028117
 ---------------------------------------------------------------------

 SCF Done:  E(RB2PLYPD3) =  -155.699306296     A.U. after   11 cycles
 E2(B2PLYPD3) =    -0.2257803983D+00 E(B2PLYPD3) =    -0.15592508669460D+03

 The electronic state is 1-A.
 Alpha  occ. eigenvalues --  -10.62710 -10.62315 -10.61659 -10.61163  -0.93160
 Alpha  occ. eigenvalues --   -0.84998  -0.69979  -0.63727  -0.54560  -0.53925
 Alpha  occ. eigenvalues --   -0.46458  -0.45642  -0.41115  -0.38194  -0.27725
 Alpha virt. eigenvalues --    0.01856   0.07050   0.07271   0.08009   0.09613
 Alpha virt. eigenvalues --    0.11756   0.12368   0.14735   0.15789   0.16050
 Alpha virt. eigenvalues --    0.18675   0.20286   0.21555   0.22885   0.23983

 Mulliken charges:
               1
     1  C   -0.179693
     2  C   -0.028155
     3  C   -0.024415
     4  C   -0.177537
     5  H    0.089754
     6  H    0.068013
     7  H    0.052828
     8  H    0.049371
     9  H    0.065991
    10  H    0.083845
 Sum of Mulliken charges =   0.00000

 Dipole moment (field-independent basis, Debye):
    X=             -0.0331    Y=             -0.0157    Z=              0.0737  Tot=              0.0823
 Quadrupole moment (field-independent basis, Debye-Ang):
   XX=            -23.7200   YY=            -23.0316   ZZ=            -29.2523
   XY=              0.0864   XZ=              0.2567   YZ=             -0.0277

 1\1\GINC-NODE04\SP\RB2PLYPD3-FC\def2QZVP\C4H6\BOITTIER\26-Aug-2020\0\\
 #p B2PLYPD3/Def2QZVP\\butadiene\\0,1\C,0,-3.838782,0.217548,0.040037\C
 ,0,-2.713286,-0.492458,0.022574\C,0,-1.384121,0.081027,-0.00228\C,0,-0
 .28221,-0.664599,0.042674\H,0,-4.784077,-0.270114,-0.024606\H,0,-3.782
 516,1.293969,0.043606\H,0,-2.730407,-1.575388,-0.010846\H,0,-1.276843,
 1.192335,-0.115788\H,0,-0.330356,-1.746118,0.132624\H,0,0.710395,-0.19
 1314,0.045326\\Version=ES64L-G09RevD.01\State=1-A\HF=-155.6993063\MP2=
 -155.9250867\RMSD=3.007e-09\PG=C01 [X(C4H6)]\\@

 Normal termination of Gaussian 09 at Wed Aug 26 16:29:00 2020.
