 Gaussian 09, Revision D.01,
 Gaussian 09:  ES64L-G09RevD.01 24-Apr-2013

 --------------------
 #p B2PLYPD3/Def2QZVP
 --------------------

 ---------
 butadiene
 ---------
 Symbolic Z-matrix:
 Charge =  0 Multiplicity = 1

                         Standard orientation:
 ---------------------------------------------------------------------
 Center     Atomic      Atomic             Coordinates (Angstroms)
 Number     Number       Type             X           Y           Z
 ---------------------------------------------------------------------
      1          6           0       -1.840687    0.087486   -0.024575
      2          6           0       -0.589922   -0.386491    0.062309
      3          6           0        0.610567    0.425991    0.034983
      4          6           0        1.827847   -0.126116   -0.044106
      5          1           0       -2.767526   -0.506083   -0.091841
      6          1           0       -1.922950    1.185482   -0.043178
      7          1           0       -0.463940   -1.433222   -0.029200
      8          1           0        0.463755    1.481331    0.009844
      9          1           0        1.941216   -1.219021    0.005110
     10          1           0        2.702611    0.486291   -0.022402
 ---------------------------------------------------------------------

 SCF Done:  E(RB2PLYPD3) =  -155.696371651     A.U. after   11 cycles
 E2(B2PLYPD3) =    -0.2261314787D+00 E(B2PLYPD3) =    -0.15592250312979D+03

 The electronic state is 1-A.
 Alpha  occ. eigenvalues --  -10.62494 -10.62121 -10.61904 -10.61685  -0.93182
 Alpha  occ. eigenvalues --   -0.84743  -0.69921  -0.64566  -0.54618  -0.53789
 Alpha  occ. eigenvalues --   -0.46908  -0.45079  -0.41449  -0.38113  -0.27578
 Alpha virt. eigenvalues --    0.01620   0.07040   0.07437   0.08116   0.09390
 Alpha virt. eigenvalues --    0.11706   0.12605   0.14473   0.15708   0.16202
 Alpha virt. eigenvalues --    0.18712   0.20083   0.21534   0.23341   0.23893

 Mulliken charges:
               1
     1  C   -0.177085
     2  C   -0.022225
     3  C   -0.038978
     4  C   -0.172115
     5  H    0.090023
     6  H    0.052804
     7  H    0.056286
     8  H    0.057937
     9  H    0.067126
    10  H    0.086228
 Sum of Mulliken charges =   0.00000

 Dipole moment (field-independent basis, Debye):
    X=              0.0358    Y=             -0.0018    Z=             -0.0877  Tot=              0.0948
 Quadrupole moment (field-independent basis, Debye-Ang):
   XX=            -23.5070   YY=            -23.1917   ZZ=            -29.2841
   XY=              0.1131   XZ=              0.3703   YZ=              0.0492

 1\1\GINC-NODE19\SP\RB2PLYPD3-FC\def2QZVP\C4H6\BOITTIER\26-Aug-2020\0\\
 #p B2PLYPD3/Def2QZVP\\butadiene\\0,1\C,0,-3.848404,0.200869,-0.013908\
 C,0,-2.703072,-0.48761,0.090141\C,0,-1.376226,0.095359,0.04921\C,0,-0.
 277794,-0.667971,-0.010969\H,0,-4.866711,-0.218202,-0.071445\H,0,-3.73
 2227,1.295026,-0.058982\H,0,-2.766994,-1.541862,0.024124\H,0,-1.331204
 ,1.15899,-0.001691\H,0,-0.362469,-1.761961,0.064736\H,0,0.692683,-0.22
 2132,0.000325\\Version=ES64L-G09RevD.01\State=1-A\HF=-155.6963717\MP2=
 -155.9225031\RMSD=6.665e-09\PG=C01 [X(C4H6)]\\@

 Normal termination of Gaussian 09 at Wed Aug 26 09:34:16 2020.
