 Gaussian 09, Revision D.01,
 Gaussian 09:  ES64L-G09RevD.01 24-Apr-2013

 --------------------
 #p B2PLYPD3/Def2QZVP
 --------------------

 ---------
 butadiene
 ---------
 Symbolic Z-matrix:
 Charge =  0 Multiplicity = 1

                         Standard orientation:
 ---------------------------------------------------------------------
 Center     Atomic      Atomic             Coordinates (Angstroms)
 Number     Number       Type             X           Y           Z
 ---------------------------------------------------------------------
      1          6           0       -1.818155    0.099964    0.041194
      2          6           0       -0.593128   -0.397683   -0.015248
      3          6           0        0.596969    0.413606   -0.046168
      4          6           0        1.824950   -0.110939    0.019326
      5          1           0       -2.651194   -0.554511    0.051587
      6          1           0       -2.062953    1.175454   -0.082363
      7          1           0       -0.522310   -1.476220   -0.073482
      8          1           0        0.420872    1.511567    0.012716
      9          1           0        2.021458   -1.169552   -0.010405
     10          1           0        2.730313    0.483571    0.107326
 ---------------------------------------------------------------------

 SCF Done:  E(RB2PLYPD3) =  -155.696738921     A.U. after   11 cycles
 E2(B2PLYPD3) =    -0.2257800117D+00 E(B2PLYPD3) =    -0.15592251893291D+03

 The electronic state is 1-A.
 Alpha  occ. eigenvalues --  -10.62882 -10.62143 -10.61609 -10.61165  -0.93261
 Alpha  occ. eigenvalues --   -0.84958  -0.70252  -0.63836  -0.54989  -0.53716
 Alpha  occ. eigenvalues --   -0.46656  -0.45135  -0.41132  -0.38293  -0.27632
 Alpha virt. eigenvalues --    0.01778   0.07062   0.07304   0.08034   0.09484
 Alpha virt. eigenvalues --    0.11616   0.12496   0.14822   0.15671   0.16450
 Alpha virt. eigenvalues --    0.18776   0.20216   0.21898   0.22833   0.23834

 Mulliken charges:
               1
     1  C   -0.173087
     2  C   -0.025306
     3  C   -0.032947
     4  C   -0.169597
     5  H    0.079308
     6  H    0.061236
     7  H    0.055605
     8  H    0.057486
     9  H    0.066736
    10  H    0.080566
 Sum of Mulliken charges =   0.00000

 Dipole moment (field-independent basis, Debye):
    X=              0.0187    Y=             -0.0611    Z=             -0.0503  Tot=              0.0813
 Quadrupole moment (field-independent basis, Debye-Ang):
   XX=            -23.4586   YY=            -23.1168   ZZ=            -29.2060
   XY=             -0.2954   XZ=              0.4149   YZ=              0.0661

 1\1\GINC-NODE25\SP\RB2PLYPD3-FC\def2QZVP\C4H6\BOITTIER\26-Aug-2020\0\\
 #p B2PLYPD3/Def2QZVP\\butadiene\\0,1\C,0,-3.82173,0.220144,0.053961\C,
 0,-2.709835,-0.496669,0.016546\C,0,-1.390219,0.079567,-0.02863\C,0,-0.
 280455,-0.66107,0.056546\H,0,-4.761437,-0.268568,0.076526\H,0,-3.86335
 5,1.318796,-0.09803\H,0,-2.839666,-1.570847,-0.014029\H,0,-1.36026,1.1
 92305,0.001552\H,0,-0.283092,-1.738173,0.05462\H,0,0.719193,-0.242098,
 0.134237\\Version=ES64L-G09RevD.01\State=1-A\HF=-155.6967389\MP2=-155.
 9225189\RMSD=5.832e-09\PG=C01 [X(C4H6)]\\@

 Normal termination of Gaussian 09 at Wed Aug 26 08:40:41 2020.
