 Gaussian 09, Revision D.01,
 Gaussian 09:  ES64L-G09RevD.01 24-Apr-2013

 --------------------
 #p B2PLYPD3/Def2QZVP
 --------------------

 ---------
 butadiene
 ---------
 Symbolic Z-matrix:
 Charge =  0 Multiplicity = 1

                         Standard orientation:
 ---------------------------------------------------------------------
 Center     Atomic      Atomic             Coordinates (Angstroms)
 Number     Number       Type             X           Y           Z
 ---------------------------------------------------------------------
      1          6           0        1.860062    0.126845    0.032245
      2          6           0        0.595394   -0.454832   -0.058706
      3          6           0       -0.600981    0.344543   -0.069893
      4          6           0       -1.847254   -0.077144   -0.013681
      5          1           0        2.777997   -0.377617    0.084552
      6          1           0        2.061208    1.191930    0.035549
      7          1           0        0.457451   -1.513192    0.159056
      8          1           0       -0.507982    1.450380    0.017414
      9          1           0       -2.234213   -1.073097    0.051614
     10          1           0       -2.597780    0.685123    0.312024
 ---------------------------------------------------------------------

 SCF Done:  E(RB2PLYPD3) =  -155.681523472     A.U. after   11 cycles
 E2(B2PLYPD3) =    -0.2274995875D+00 E(B2PLYPD3) =    -0.15590902305914D+03

 The electronic state is 1-A.
 Alpha  occ. eigenvalues --  -10.63826 -10.62576 -10.62488 -10.61340  -0.92835
 Alpha  occ. eigenvalues --   -0.84460  -0.71180  -0.63851  -0.54728  -0.53794
 Alpha  occ. eigenvalues --   -0.46505  -0.45285  -0.40743  -0.37860  -0.27278
 Alpha virt. eigenvalues --    0.00655   0.06899   0.07402   0.07911   0.09290
 Alpha virt. eigenvalues --    0.11330   0.12663   0.14915   0.15541   0.16654
 Alpha virt. eigenvalues --    0.19044   0.19295   0.21677   0.22875   0.24078

 Mulliken charges:
               1
     1  C   -0.167971
     2  C   -0.055999
     3  C   -0.008594
     4  C   -0.163441
     5  H    0.081979
     6  H    0.063057
     7  H    0.071144
     8  H    0.054003
     9  H    0.062995
    10  H    0.062827
 Sum of Mulliken charges =   0.00000

 Dipole moment (field-independent basis, Debye):
    X=              0.1707    Y=             -0.0062    Z=              0.4906  Tot=              0.5195
 Quadrupole moment (field-independent basis, Debye-Ang):
   XX=            -23.3514   YY=            -23.3738   ZZ=            -29.2354
   XY=              0.7150   XZ=             -0.5419   YZ=              0.0073

 1\1\GINC-NODE35\SP\RB2PLYPD3-FC\def2QZVP\C4H6\BOITTIER\26-Aug-2020\0\\
 #p B2PLYPD3/Def2QZVP\\butadiene\\0,1\C,0,-3.853978,0.261,-0.020743\C,0
 ,-2.719286,-0.54301,0.089016\C,0,-1.394678,0.018546,0.066525\C,0,-0.24
 9624,-0.630413,0.02317\H,0,-4.850406,-0.064605,-0.051334\H,0,-3.852808
 ,1.344046,-0.064177\H,0,-2.78344,-1.615825,-0.088544\H,0,-1.280476,1.1
 18277,-0.062691\H,0,-0.05602,-1.682859,-0.005074\H,0,0.62679,-0.03443,
 -0.333375\\Version=ES64L-G09RevD.01\State=1-A\HF=-155.6815235\MP2=-155
 .9090231\RMSD=9.457e-09\PG=C01 [X(C4H6)]\\@

 Normal termination of Gaussian 09 at Wed Aug 26 11:02:50 2020.
