 Gaussian 09, Revision D.01,
 Gaussian 09:  ES64L-G09RevD.01 24-Apr-2013

 --------------------
 #p B2PLYPD3/Def2QZVP
 --------------------

 ---------
 butadiene
 ---------
 Symbolic Z-matrix:
 Charge =  0 Multiplicity = 1

                         Standard orientation:
 ---------------------------------------------------------------------
 Center     Atomic      Atomic             Coordinates (Angstroms)
 Number     Number       Type             X           Y           Z
 ---------------------------------------------------------------------
      1          6           0       -1.830209    0.104184   -0.040066
      2          6           0       -0.607142   -0.400746    0.040631
      3          6           0        0.587308    0.423345    0.018329
      4          6           0        1.820027   -0.126727   -0.023487
      5          1           0       -2.663850   -0.542106   -0.053944
      6          1           0       -2.026890    1.136886   -0.052393
      7          1           0       -0.382648   -1.470311    0.191687
      8          1           0        0.518329    1.505626    0.109860
      9          1           0        2.018245   -1.154119   -0.174562
     10          1           0        2.716913    0.523686    0.006901
 ---------------------------------------------------------------------

 SCF Done:  E(RB2PLYPD3) =  -155.695858516     A.U. after   11 cycles
 E2(B2PLYPD3) =    -0.2257808650D+00 E(B2PLYPD3) =    -0.15592163938120D+03

 The electronic state is 1-A.
 Alpha  occ. eigenvalues --  -10.62637 -10.62561 -10.61574 -10.60744  -0.93043
 Alpha  occ. eigenvalues --   -0.84837  -0.70352  -0.64248  -0.54614  -0.54191
 Alpha  occ. eigenvalues --   -0.46446  -0.46109  -0.41237  -0.37818  -0.27530
 Alpha virt. eigenvalues --    0.01748   0.07091   0.07408   0.08008   0.09344
 Alpha virt. eigenvalues --    0.11718   0.12458   0.14926   0.15707   0.16159
 Alpha virt. eigenvalues --    0.18706   0.20350   0.21835   0.22775   0.23704

 Mulliken charges:
               1
     1  C   -0.177198
     2  C   -0.033548
     3  C   -0.030390
     4  C   -0.182427
     5  H    0.084157
     6  H    0.072927
     7  H    0.059865
     8  H    0.060519
     9  H    0.071292
    10  H    0.074803
 Sum of Mulliken charges =   0.00000

 Dipole moment (field-independent basis, Debye):
    X=             -0.0206    Y=              0.0133    Z=              0.0500  Tot=              0.0557
 Quadrupole moment (field-independent basis, Debye-Ang):
   XX=            -23.6572   YY=            -23.0095   ZZ=            -29.1768
   XY=             -0.4200   XZ=             -0.0847   YZ=              0.1098

 1\1\GINC-NODE25\SP\RB2PLYPD3-FC\def2QZVP\C4H6\BOITTIER\26-Aug-2020\0\\
 #p B2PLYPD3/Def2QZVP\\butadiene\\0,1\C,0,-3.828825,0.222319,-0.01805\C
 ,0,-2.719,-0.496649,0.075384\C,0,-1.393631,0.093382,0.035461\C,0,-0.28
 2998,-0.674495,0.007455\H,0,-4.766993,-0.260052,-0.017998\H,0,-3.83260
 1,1.273029,-0.054159\H,0,-2.694207,-1.585552,0.251055\H,0,-1.262439,1.
 171717,0.102179\H,0,-0.277262,-1.723967,-0.119916\H,0,0.718149,-0.1993
 11,0.023877\\Version=ES64L-G09RevD.01\State=1-A\HF=-155.6958585\MP2=-1
 55.9216394\RMSD=6.769e-09\PG=C01 [X(C4H6)]\\@

 Normal termination of Gaussian 09 at Wed Aug 26 09:59:35 2020.
