 Gaussian 09, Revision D.01,
 Gaussian 09:  ES64L-G09RevD.01 24-Apr-2013

 --------------------
 #p B2PLYPD3/Def2QZVP
 --------------------

 ---------
 butadiene
 ---------
 Symbolic Z-matrix:
 Charge =  0 Multiplicity = 1

                         Standard orientation:
 ---------------------------------------------------------------------
 Center     Atomic      Atomic             Coordinates (Angstroms)
 Number     Number       Type             X           Y           Z
 ---------------------------------------------------------------------
      1          6           0        1.835410    0.099712    0.012164
      2          6           0        0.596912   -0.391894   -0.008924
      3          6           0       -0.597739    0.426263   -0.003573
      4          6           0       -1.828667   -0.123455    0.003424
      5          1           0        2.679683   -0.579886    0.006202
      6          1           0        2.004743    1.185571    0.033234
      7          1           0        0.444614   -1.471480   -0.095750
      8          1           0       -0.451071    1.482925   -0.039680
      9          1           0       -1.989352   -1.190632    0.102283
     10          1           0       -2.724120    0.509742   -0.024838
 ---------------------------------------------------------------------

 SCF Done:  E(RB2PLYPD3) =  -155.699465709     A.U. after   11 cycles
 E2(B2PLYPD3) =    -0.2261198327D+00 E(B2PLYPD3) =    -0.15592558554131D+03

 The electronic state is 1-A.
 Alpha  occ. eigenvalues --  -10.62532 -10.62353 -10.61903 -10.61563  -0.93047
 Alpha  occ. eigenvalues --   -0.84627  -0.69956  -0.64171  -0.54320  -0.53802
 Alpha  occ. eigenvalues --   -0.46616  -0.45534  -0.41310  -0.38069  -0.27498
 Alpha virt. eigenvalues --    0.01674   0.07021   0.07340   0.08050   0.09436
 Alpha virt. eigenvalues --    0.11748   0.12322   0.14737   0.15743   0.16079
 Alpha virt. eigenvalues --    0.18659   0.20406   0.21470   0.22953   0.23924

 Mulliken charges:
               1
     1  C   -0.182665
     2  C   -0.022048
     3  C   -0.038192
     4  C   -0.176092
     5  H    0.087298
     6  H    0.065537
     7  H    0.053536
     8  H    0.060717
     9  H    0.070583
    10  H    0.081326
 Sum of Mulliken charges =   0.00000

 Dipole moment (field-independent basis, Debye):
    X=             -0.0295    Y=             -0.0013    Z=             -0.0187  Tot=              0.0349
 Quadrupole moment (field-independent basis, Debye-Ang):
   XX=            -23.7857   YY=            -22.9651   ZZ=            -29.3224
   XY=              0.1902   XZ=             -0.0754   YZ=             -0.0483

 1\1\GINC-NODE29\SP\RB2PLYPD3-FC\def2QZVP\C4H6\BOITTIER\26-Aug-2020\0\\
 #p B2PLYPD3/Def2QZVP\\butadiene\\0,1\C,0,-3.838038,0.217259,0.008644\C
 ,0,-2.710214,-0.491775,0.044454\C,0,-1.386154,0.093702,0.01834\C,0,-0.
 276503,-0.671811,0.027639\H,0,-4.792294,-0.296097,0.032023\H,0,-3.8060
 85,1.314811,-0.041999\H,0,-2.757517,-1.578284,0.160639\H,0,-1.337037,1
 .15995,0.025669\H,0,-0.314,-1.752638,-0.042119\H,0,0.719719,-0.212498,
 0.039786\\Version=ES64L-G09RevD.01\State=1-A\HF=-155.6994657\MP2=-155.
 9255855\RMSD=5.952e-09\PG=C01 [X(C4H6)]\\@

 Normal termination of Gaussian 09 at Wed Aug 26 12:28:53 2020.
