 Gaussian 09, Revision D.01,
 Gaussian 09:  ES64L-G09RevD.01 24-Apr-2013

 --------------------
 #p B2PLYPD3/Def2QZVP
 --------------------

 ---------
 butadiene
 ---------
 Symbolic Z-matrix:
 Charge =  0 Multiplicity = 1

                         Standard orientation:
 ---------------------------------------------------------------------
 Center     Atomic      Atomic             Coordinates (Angstroms)
 Number     Number       Type             X           Y           Z
 ---------------------------------------------------------------------
      1          6           0        1.836513    0.115918    0.034587
      2          6           0        0.618382   -0.396230   -0.040539
      3          6           0       -0.598478    0.360029   -0.046676
      4          6           0       -1.842396   -0.102725    0.003554
      5          1           0        2.747755   -0.492701    0.040821
      6          1           0        1.937591    1.185530    0.069645
      7          1           0        0.515584   -1.467155   -0.000973
      8          1           0       -0.489852    1.461727   -0.069866
      9          1           0       -2.133573   -1.103819    0.072638
     10          1           0       -2.661631    0.554465    0.182175
 ---------------------------------------------------------------------

 SCF Done:  E(RB2PLYPD3) =  -155.696548148     A.U. after   11 cycles
 E2(B2PLYPD3) =    -0.2252545712D+00 E(B2PLYPD3) =    -0.15592180271945D+03

 The electronic state is 1-A.
 Alpha  occ. eigenvalues --  -10.62580 -10.62104 -10.61533 -10.60817  -0.93411
 Alpha  occ. eigenvalues --   -0.85381  -0.70822  -0.64118  -0.55265  -0.54061
 Alpha  occ. eigenvalues --   -0.47081  -0.45461  -0.40771  -0.38480  -0.27822
 Alpha virt. eigenvalues --    0.01560   0.06943   0.07579   0.07978   0.09990
 Alpha virt. eigenvalues --    0.11635   0.12591   0.14911   0.15705   0.16436
 Alpha virt. eigenvalues --    0.18900   0.19897   0.21831   0.22884   0.23926

 Mulliken charges:
               1
     1  C   -0.170104
     2  C   -0.030369
     3  C   -0.023927
     4  C   -0.168579
     5  H    0.088390
     6  H    0.062593
     7  H    0.054916
     8  H    0.047359
     9  H    0.063159
    10  H    0.076562
 Sum of Mulliken charges =   0.00000

 Dipole moment (field-independent basis, Debye):
    X=              0.0296    Y=             -0.0466    Z=              0.2100  Tot=              0.2171
 Quadrupole moment (field-independent basis, Debye-Ang):
   XX=            -23.1980   YY=            -23.3411   ZZ=            -29.0583
   XY=              0.1491   XZ=             -0.4176   YZ=              0.0180

 1\1\GINC-NODE31\SP\RB2PLYPD3-FC\def2QZVP\C4H6\BOITTIER\26-Aug-2020\0\\
 #p B2PLYPD3/Def2QZVP\\butadiene\\0,1\C,0,-3.836468,0.228067,-0.015969\
 C,0,-2.728857,-0.49096,0.073366\C,0,-1.396498,0.035483,0.053551\C,0,-0
 .255605,-0.64345,0.015985\H,0,-4.841766,-0.207804,-0.001427\H,0,-3.745
 173,1.296922,-0.084742\H,0,-2.819236,-1.563719,0.067592\H,0,-1.306477,
 1.13904,0.041992\H,0,-0.148383,-1.682113,-0.021812\H,0,0.666497,-0.149
 081,-0.184708\\Version=ES64L-G09RevD.01\State=1-A\HF=-155.6965481\MP2=
 -155.9218027\RMSD=3.919e-09\PG=C01 [X(C4H6)]\\@

 Normal termination of Gaussian 09 at Wed Aug 26 10:55:35 2020.
