 Gaussian 09, Revision D.01,
 Gaussian 09:  ES64L-G09RevD.01 24-Apr-2013

 --------------------
 #p B2PLYPD3/Def2QZVP
 --------------------

 ---------
 butadiene
 ---------
 Symbolic Z-matrix:
 Charge =  0 Multiplicity = 1

                         Standard orientation:
 ---------------------------------------------------------------------
 Center     Atomic      Atomic             Coordinates (Angstroms)
 Number     Number       Type             X           Y           Z
 ---------------------------------------------------------------------
      1          6           0        1.852919    0.097907    0.014217
      2          6           0        0.613517   -0.392721   -0.017624
      3          6           0       -0.608856    0.405754   -0.015179
      4          6           0       -1.844274   -0.110587    0.000473
      5          1           0        2.725721   -0.535362   -0.034190
      6          1           0        2.025776    1.182444    0.086344
      7          1           0        0.420492   -1.464318   -0.011276
      8          1           0       -0.490092    1.496073   -0.042341
      9          1           0       -2.022408   -1.167232    0.084510
     10          1           0       -2.739328    0.486278    0.025633
 ---------------------------------------------------------------------

 SCF Done:  E(RB2PLYPD3) =  -155.700039273     A.U. after   11 cycles
 E2(B2PLYPD3) =    -0.2258515954D+00 E(B2PLYPD3) =    -0.15592589086797D+03

 The electronic state is 1-A.
 Alpha  occ. eigenvalues --  -10.62819 -10.62680 -10.61784 -10.61507  -0.92809
 Alpha  occ. eigenvalues --   -0.84875  -0.70325  -0.63908  -0.54864  -0.53531
 Alpha  occ. eigenvalues --   -0.47129  -0.45428  -0.40809  -0.38024  -0.27763
 Alpha virt. eigenvalues --    0.01621   0.07000   0.07377   0.08094   0.09588
 Alpha virt. eigenvalues --    0.11616   0.12465   0.14671   0.15839   0.16193
 Alpha virt. eigenvalues --    0.18876   0.20417   0.21765   0.22885   0.23438

 Mulliken charges:
               1
     1  C   -0.173355
     2  C   -0.032625
     3  C   -0.027673
     4  C   -0.172856
     5  H    0.089425
     6  H    0.064947
     7  H    0.054054
     8  H    0.052454
     9  H    0.061396
    10  H    0.084235
 Sum of Mulliken charges =   0.00000

 Dipole moment (field-independent basis, Debye):
    X=             -0.0269    Y=             -0.0125    Z=              0.0816  Tot=              0.0869
 Quadrupole moment (field-independent basis, Debye-Ang):
   XX=            -23.2117   YY=            -23.2690   ZZ=            -29.2927
   XY=              0.2405   XZ=             -0.1701   YZ=              0.0035

 1\1\GINC-NODE13\SP\RB2PLYPD3-FC\def2QZVP\C4H6\BOITTIER\26-Aug-2020\0\\
 #p B2PLYPD3/Def2QZVP\\butadiene\\0,1\C,0,-3.855249,0.216109,0.005045\C
 ,0,-2.724972,-0.489716,0.051216\C,0,-1.378304,0.073908,0.027185\C,0,-0
 .256812,-0.65778,0.026595\H,0,-4.828017,-0.247121,0.070607\H,0,-3.8293
 04,1.311618,-0.097367\H,0,-2.729095,-1.578313,0.074834\H,0,-1.297664,1
 .16804,0.02389\H,0,-0.273225,-1.731119,-0.02787\H,0,0.731357,-0.233728
 ,-0.014702\\Version=ES64L-G09RevD.01\State=1-A\HF=-155.7000393\MP2=-15
 5.9258909\RMSD=3.992e-09\PG=C01 [X(C4H6)]\\@

 Normal termination of Gaussian 09 at Wed Aug 26 19:27:28 2020.
