 Gaussian 09, Revision D.01,
 Gaussian 09:  ES64L-G09RevD.01 24-Apr-2013

 --------------------
 #p B2PLYPD3/Def2QZVP
 --------------------

 ---------
 butadiene
 ---------
 Symbolic Z-matrix:
 Charge =  0 Multiplicity = 1

                         Standard orientation:
 ---------------------------------------------------------------------
 Center     Atomic      Atomic             Coordinates (Angstroms)
 Number     Number       Type             X           Y           Z
 ---------------------------------------------------------------------
      1          6           0        1.855044   -0.118972   -0.039738
      2          6           0        0.664894    0.418445    0.043289
      3          6           0       -0.626384   -0.370414    0.024281
      4          6           0       -1.869577    0.106660   -0.076093
      5          1           0        2.767636    0.411763   -0.092782
      6          1           0        1.853822   -1.287430   -0.113105
      7          1           0        0.529205    1.558351    0.276822
      8          1           0       -0.516467   -1.462348    0.225871
      9          1           0       -2.119455    1.167303   -0.139745
     10          1           0       -2.658604   -0.601951    0.132503
 ---------------------------------------------------------------------

 SCF Done:  E(RB2PLYPD3) =  -155.682458803     A.U. after   11 cycles
 E2(B2PLYPD3) =    -0.2265713002D+00 E(B2PLYPD3) =    -0.15590903010303D+03

 The electronic state is 1-A.
 Alpha  occ. eigenvalues --  -10.63629 -10.63386 -10.62093 -10.61632  -0.92188
 Alpha  occ. eigenvalues --   -0.85426  -0.69242  -0.62300  -0.54735  -0.53070
 Alpha  occ. eigenvalues --   -0.47420  -0.44546  -0.40060  -0.36907  -0.28641
 Alpha virt. eigenvalues --    0.02084   0.06856   0.07137   0.07795   0.09403
 Alpha virt. eigenvalues --    0.11385   0.12266   0.14272   0.15362   0.16206
 Alpha virt. eigenvalues --    0.18944   0.19498   0.21164   0.21935   0.23956

 Mulliken charges:
               1
     1  C   -0.162121
     2  C   -0.038930
     3  C   -0.029616
     4  C   -0.175045
     5  H    0.100265
     6  H    0.051695
     7  H    0.049683
     8  H    0.050432
     9  H    0.070145
    10  H    0.083491
 Sum of Mulliken charges =   0.00000

 Dipole moment (field-independent basis, Debye):
    X=              0.0821    Y=              0.0548    Z=              0.2869  Tot=              0.3034
 Quadrupole moment (field-independent basis, Debye-Ang):
   XX=            -23.4723   YY=            -23.4188   ZZ=            -29.2966
   XY=              0.0339   XZ=             -0.5628   YZ=             -0.1567

 1\1\GINC-NODE02\SP\RB2PLYPD3-FC\def2QZVP\C4H6\BOITTIER\26-Aug-2020\0\\
 #p B2PLYPD3/Def2QZVP\\butadiene\\0,1\C,0,-3.856485,0.219322,-0.021767\
 C,0,-2.77493,-0.509417,0.084746\C,0,-1.368403,0.047667,0.047402\C,0,-0
 .224357,-0.636591,-0.031037\H,0,-4.845991,-0.150168,-0.062673\H,0,-3.6
 56774,1.3676,-0.132457\H,0,-2.834841,-1.64763,0.355334\H,0,-1.291166,1
 .148361,0.213379\H,0,-0.158326,-1.725761,-0.059404\H,0,0.67363,-0.0658
 77,0.158993\\Version=ES64L-G09RevD.01\State=1-A\HF=-155.6824588\MP2=-1
 55.9090301\RMSD=8.874e-09\PG=C01 [X(C4H6)]\\@

 Normal termination of Gaussian 09 at Wed Aug 26 16:04:09 2020.
