 Gaussian 09, Revision D.01,
 Gaussian 09:  ES64L-G09RevD.01 24-Apr-2013

 --------------------
 #p B2PLYPD3/Def2QZVP
 --------------------

 ---------
 butadiene
 ---------
 Symbolic Z-matrix:
 Charge =  0 Multiplicity = 1

                         Standard orientation:
 ---------------------------------------------------------------------
 Center     Atomic      Atomic             Coordinates (Angstroms)
 Number     Number       Type             X           Y           Z
 ---------------------------------------------------------------------
      1          6           0        1.846066    0.108452    0.021913
      2          6           0        0.602861   -0.401316   -0.041929
      3          6           0       -0.616706    0.400710   -0.030834
      4          6           0       -1.834643   -0.107095    0.053961
      5          1           0        2.672383   -0.545064    0.031987
      6          1           0        2.112693    1.182928    0.103215
      7          1           0        0.453249   -1.492351   -0.091859
      8          1           0       -0.500647    1.482112   -0.048959
      9          1           0       -2.026729   -1.156383    0.100414
     10          1           0       -2.696422    0.524249   -0.113460
 ---------------------------------------------------------------------

 SCF Done:  E(RB2PLYPD3) =  -155.697364804     A.U. after   11 cycles
 E2(B2PLYPD3) =    -0.2257199923D+00 E(B2PLYPD3) =    -0.15592308479647D+03

 The electronic state is 1-A.
 Alpha  occ. eigenvalues --  -10.62993 -10.62355 -10.61723 -10.61070  -0.92845
 Alpha  occ. eigenvalues --   -0.84995  -0.70322  -0.63853  -0.54672  -0.53850
 Alpha  occ. eigenvalues --   -0.46811  -0.45660  -0.40889  -0.37926  -0.27760
 Alpha virt. eigenvalues --    0.01650   0.07015   0.07381   0.08052   0.09600
 Alpha virt. eigenvalues --    0.11581   0.12440   0.14884   0.15753   0.16228
 Alpha virt. eigenvalues --    0.18968   0.20023   0.21980   0.22528   0.23669

 Mulliken charges:
               1
     1  C   -0.173843
     2  C   -0.041589
     3  C   -0.025969
     4  C   -0.168875
     5  H    0.084642
     6  H    0.067979
     7  H    0.055740
     8  H    0.058819
     9  H    0.062622
    10  H    0.080475
 Sum of Mulliken charges =   0.00000

 Dipole moment (field-independent basis, Debye):
    X=              0.0301    Y=             -0.0118    Z=             -0.0615  Tot=              0.0695
 Quadrupole moment (field-independent basis, Debye-Ang):
   XX=            -23.4700   YY=            -23.0774   ZZ=            -29.2313
   XY=              0.3740   XZ=              0.4614   YZ=             -0.0383

 1\1\GINC-NODE13\SP\RB2PLYPD3-FC\def2QZVP\C4H6\BOITTIER\26-Aug-2020\0\\
 #p B2PLYPD3/Def2QZVP\\butadiene\\0,1\C,0,-3.847703,0.227388,-0.009612\
 C,0,-2.718349,-0.49837,0.076024\C,0,-1.372945,0.067163,0.04822\C,0,-0.
 26806,-0.656488,-0.014913\H,0,-4.779362,-0.264521,-0.005133\H,0,-3.913
 853,1.329559,-0.123813\H,0,-2.770267,-1.596415,0.158703\H,0,-1.289801,
 1.151651,0.034034\H,0,-0.270591,-1.724121,-0.029561\H,0,0.694404,-0.18
 8146,0.138731\\Version=ES64L-G09RevD.01\State=1-A\HF=-155.6973648\MP2=
 -155.9230848\RMSD=5.831e-09\PG=C01 [X(C4H6)]\\@

 Normal termination of Gaussian 09 at Wed Aug 26 09:52:43 2020.
