 Gaussian 09, Revision D.01,
 Gaussian 09:  ES64L-G09RevD.01 24-Apr-2013

 --------------------
 #p B2PLYPD3/Def2QZVP
 --------------------

 ---------
 butadiene
 ---------
 Symbolic Z-matrix:
 Charge =  0 Multiplicity = 1

                         Standard orientation:
 ---------------------------------------------------------------------
 Center     Atomic      Atomic             Coordinates (Angstroms)
 Number     Number       Type             X           Y           Z
 ---------------------------------------------------------------------
      1          6           0       -1.826022   -0.130341   -0.002305
      2          6           0       -0.592760    0.408373   -0.005821
      3          6           0        0.599875   -0.370841   -0.053083
      4          6           0        1.835628    0.091272    0.027325
      5          1           0       -2.730035    0.480742    0.154417
      6          1           0       -1.973642   -1.179734    0.030350
      7          1           0       -0.549503    1.513267   -0.068971
      8          1           0        0.445337   -1.389733   -0.019546
      9          1           0        2.013920    1.157218   -0.011880
     10          1           0        2.693591   -0.572530    0.118927
 ---------------------------------------------------------------------

 SCF Done:  E(RB2PLYPD3) =  -155.695212147     A.U. after   11 cycles
 E2(B2PLYPD3) =    -0.2256973431D+00 E(B2PLYPD3) =    -0.15592090949046D+03

 The electronic state is 1-A.
 Alpha  occ. eigenvalues --  -10.62670 -10.61590 -10.61528 -10.61352  -0.93595
 Alpha  occ. eigenvalues --   -0.84997  -0.70431  -0.64561  -0.54816  -0.54138
 Alpha  occ. eigenvalues --   -0.46474  -0.45549  -0.41508  -0.38400  -0.27541
 Alpha virt. eigenvalues --    0.01495   0.06991   0.07575   0.07986   0.09741
 Alpha virt. eigenvalues --    0.11712   0.12485   0.14768   0.15617   0.16411
 Alpha virt. eigenvalues --    0.18750   0.19978   0.21768   0.23081   0.23870

 Mulliken charges:
               1
     1  C   -0.174943
     2  C   -0.026727
     3  C   -0.031131
     4  C   -0.174826
     5  H    0.078965
     6  H    0.062852
     7  H    0.052880
     8  H    0.061257
     9  H    0.066908
    10  H    0.084764
 Sum of Mulliken charges =   0.00000

 Dipole moment (field-independent basis, Debye):
    X=              0.0001    Y=             -0.0460    Z=              0.1442  Tot=              0.1513
 Quadrupole moment (field-independent basis, Debye-Ang):
   XX=            -23.5206   YY=            -23.1763   ZZ=            -29.1251
   XY=              0.0388   XZ=             -0.1386   YZ=             -0.1349

 1\1\GINC-NODE22\SP\RB2PLYPD3-FC\def2QZVP\C4H6\BOITTIER\26-Aug-2020\0\\
 #p B2PLYPD3/Def2QZVP\\butadiene\\0,1\C,0,-3.826999,0.240555,0.011702\C
 ,0,-2.710475,-0.510159,0.042751\C,0,-1.397126,0.043566,0.05976\C,0,-0.
 264793,-0.635971,0.003625\H,0,-4.826747,-0.204526,-0.121078\H,0,-3.783
 99,1.296962,-0.067273\H,0,-2.865971,-1.601045,0.15428\H,0,-1.366403,1.
 071201,-0.018785\H,0,-0.28057,-1.713868,0.089967\H,0,0.697957,-0.14163
 4,-0.114133\\Version=ES64L-G09RevD.01\State=1-A\HF=-155.6952121\MP2=-1
 55.9209095\RMSD=5.552e-09\PG=C01 [X(C4H6)]\\@

 Normal termination of Gaussian 09 at Wed Aug 26 08:43:53 2020.
