 Gaussian 09, Revision D.01,
 Gaussian 09:  ES64L-G09RevD.01 24-Apr-2013

 --------------------
 #p B2PLYPD3/Def2QZVP
 --------------------

 ---------
 butadiene
 ---------
 Symbolic Z-matrix:
 Charge =  0 Multiplicity = 1

                         Standard orientation:
 ---------------------------------------------------------------------
 Center     Atomic      Atomic             Coordinates (Angstroms)
 Number     Number       Type             X           Y           Z
 ---------------------------------------------------------------------
      1          6           0       -1.857707   -0.095553   -0.042449
      2          6           0       -0.587572    0.352450    0.006496
      3          6           0        0.636014   -0.439350    0.045599
      4          6           0        1.835633    0.134291   -0.069419
      5          1           0       -2.662019    0.595111    0.091347
      6          1           0       -2.022971   -1.091907   -0.161153
      7          1           0       -0.501987    1.374874    0.179641
      8          1           0        0.462329   -1.479348    0.232057
      9          1           0        1.752898    1.301373    0.006385
     10          1           0        2.813542   -0.411132    0.010367
 ---------------------------------------------------------------------

 SCF Done:  E(RB2PLYPD3) =  -155.681484529     A.U. after   12 cycles
 E2(B2PLYPD3) =    -0.2265787809D+00 E(B2PLYPD3) =    -0.15590806331040D+03

 The electronic state is 1-A.
 Alpha  occ. eigenvalues --  -10.63116 -10.62647 -10.61897 -10.60668  -0.93132
 Alpha  occ. eigenvalues --   -0.84959  -0.69923  -0.64672  -0.54519  -0.53882
 Alpha  occ. eigenvalues --   -0.46918  -0.45209  -0.41588  -0.37314  -0.27770
 Alpha virt. eigenvalues --    0.01454   0.06977   0.07462   0.07954   0.09420
 Alpha virt. eigenvalues --    0.11648   0.12545   0.14390   0.15577   0.16070
 Alpha virt. eigenvalues --    0.18476   0.20045   0.21242   0.22222   0.24904

 Mulliken charges:
               1
     1  C   -0.197563
     2  C   -0.008722
     3  C   -0.054790
     4  C   -0.154726
     5  H    0.088036
     6  H    0.071240
     7  H    0.053500
     8  H    0.059301
     9  H    0.054302
    10  H    0.089422
 Sum of Mulliken charges =   0.00000

 Dipole moment (field-independent basis, Debye):
    X=              0.0185    Y=             -0.0883    Z=              0.3641  Tot=              0.3751
 Quadrupole moment (field-independent basis, Debye-Ang):
   XX=            -23.6451   YY=            -23.3512   ZZ=            -29.1967
   XY=             -0.3186   XZ=              0.1089   YZ=              0.2376

 1\1\GINC-NODE19\SP\RB2PLYPD3-FC\def2QZVP\C4H6\BOITTIER\26-Aug-2020\0\\
 #p B2PLYPD3/Def2QZVP\\butadiene\\0,1\C,0,-3.869376,0.1976,0.056794\C,0
 ,-2.696318,-0.464857,0.018945\C,0,-1.354195,0.101657,-0.039396\C,0,-0.
 27168,-0.668322,0.089735\H,0,-4.781763,-0.346193,-0.060146\H,0,-3.8589
 67,1.210086,0.151074\H,0,-2.789944,-1.49051,-0.129131\H,0,-1.34578,1.1
 51216,-0.251255\H,0,-0.555744,-1.804873,0.042494\H,0,0.785618,-0.30277
 1,-0.003274\\Version=ES64L-G09RevD.01\State=1-A\HF=-155.6814845\MP2=-1
 55.9080633\RMSD=4.613e-09\PG=C01 [X(C4H6)]\\@

 Normal termination of Gaussian 09 at Wed Aug 26 15:51:18 2020.
