 Gaussian 09, Revision D.01,
 Gaussian 09:  ES64L-G09RevD.01 24-Apr-2013

 --------------------
 #p B2PLYPD3/Def2QZVP
 --------------------

 ---------
 butadiene
 ---------
 Symbolic Z-matrix:
 Charge =  0 Multiplicity = 1

                         Standard orientation:
 ---------------------------------------------------------------------
 Center     Atomic      Atomic             Coordinates (Angstroms)
 Number     Number       Type             X           Y           Z
 ---------------------------------------------------------------------
      1          6           0       -1.837617    0.118805   -0.003443
      2          6           0       -0.605104   -0.405999   -0.006497
      3          6           0        0.600647    0.388454   -0.019659
      4          6           0        1.834719   -0.101280    0.008442
      5          1           0       -2.685486   -0.547359    0.063615
      6          1           0       -1.970117    1.203100   -0.002470
      7          1           0       -0.475403   -1.459529    0.002459
      8          1           0        0.489328    1.467785    0.040895
      9          1           0        1.992023   -1.179071   -0.004351
     10          1           0        2.693789    0.515193    0.026790
 ---------------------------------------------------------------------

 SCF Done:  E(RB2PLYPD3) =  -155.700265567     A.U. after   11 cycles
 E2(B2PLYPD3) =    -0.2254951979D+00 E(B2PLYPD3) =    -0.15592576076453D+03

 The electronic state is 1-A.
 Alpha  occ. eigenvalues --  -10.62237 -10.62175 -10.61662 -10.61139  -0.93217
 Alpha  occ. eigenvalues --   -0.85048  -0.70241  -0.64233  -0.54697  -0.54174
 Alpha  occ. eigenvalues --   -0.46660  -0.45649  -0.41375  -0.38231  -0.27652
 Alpha virt. eigenvalues --    0.01736   0.07039   0.07443   0.08095   0.09706
 Alpha virt. eigenvalues --    0.11743   0.12407   0.14729   0.15777   0.16204
 Alpha virt. eigenvalues --    0.18734   0.20287   0.21658   0.22903   0.24096

 Mulliken charges:
               1
     1  C   -0.177519
     2  C   -0.035127
     3  C   -0.021212
     4  C   -0.178545
     5  H    0.087458
     6  H    0.069840
     7  H    0.056929
     8  H    0.049764
     9  H    0.059861
    10  H    0.088550
 Sum of Mulliken charges =   0.00000

 Dipole moment (field-independent basis, Debye):
    X=              0.0211    Y=             -0.0151    Z=              0.0979  Tot=              0.1013
 Quadrupole moment (field-independent basis, Debye-Ang):
   XX=            -23.6113   YY=            -23.0400   ZZ=            -29.2127
   XY=              0.0262   XZ=             -0.0877   YZ=              0.0288

 1\1\GINC-NODE21\SP\RB2PLYPD3-FC\def2QZVP\C4H6\BOITTIER\26-Aug-2020\0\\
 #p B2PLYPD3/Def2QZVP\\butadiene\\0,1\C,0,-3.837423,0.232101,0.018939\C
 ,0,-2.719399,-0.505732,0.030823\C,0,-1.390494,0.058283,-0.001804\C,0,-
 0.264515,-0.644539,0.040312\H,0,-4.791014,-0.26874,0.102467\H,0,-3.772
 769,1.322202,-0.00848\H,0,-2.781237,-1.56482,0.067363\H,0,-1.305678,1.
 141231,0.030488\H,0,-0.303643,-1.733012,0.055771\H,0,0.691473,-0.19237
 2,0.043468\\Version=ES64L-G09RevD.01\State=1-A\HF=-155.7002656\MP2=-15
 5.9257608\RMSD=5.572e-09\PG=C01 [X(C4H6)]\\@

 Normal termination of Gaussian 09 at Wed Aug 26 16:32:48 2020.
