 Gaussian 09, Revision D.01,
 Gaussian 09:  ES64L-G09RevD.01 24-Apr-2013

 --------------------
 #p B2PLYPD3/Def2QZVP
 --------------------

 ---------
 butadiene
 ---------
 Symbolic Z-matrix:
 Charge =  0 Multiplicity = 1

                         Standard orientation:
 ---------------------------------------------------------------------
 Center     Atomic      Atomic             Coordinates (Angstroms)
 Number     Number       Type             X           Y           Z
 ---------------------------------------------------------------------
      1          6           0       -1.838998    0.083690   -0.012478
      2          6           0       -0.574902   -0.380778   -0.005450
      3          6           0        0.589829    0.449839   -0.049446
      4          6           0        1.815050   -0.124485    0.024096
      5          1           0       -2.707786   -0.567601    0.116439
      6          1           0       -2.132251    1.128993    0.104700
      7          1           0       -0.350324   -1.491522    0.021654
      8          1           0        0.489084    1.531063   -0.060304
      9          1           0        1.886863   -1.205075   -0.112369
     10          1           0        2.868544    0.434547    0.189550
 ---------------------------------------------------------------------

 SCF Done:  E(RB2PLYPD3) =  -155.682436314     A.U. after   11 cycles
 E2(B2PLYPD3) =    -0.2281306635D+00 E(B2PLYPD3) =    -0.15591056697715D+03

 The electronic state is 1-A.
 Alpha  occ. eigenvalues --  -10.63397 -10.63333 -10.62939 -10.61859  -0.93175
 Alpha  occ. eigenvalues --   -0.84030  -0.69626  -0.63979  -0.54110  -0.53029
 Alpha  occ. eigenvalues --   -0.46200  -0.44453  -0.41162  -0.38177  -0.27191
 Alpha virt. eigenvalues --    0.01126   0.06850   0.07222   0.07734   0.09076
 Alpha virt. eigenvalues --    0.11440   0.12536   0.14412   0.15950   0.16070
 Alpha virt. eigenvalues --    0.18671   0.20342   0.21551   0.22385   0.23605

 Mulliken charges:
               1
     1  C   -0.171008
     2  C   -0.025940
     3  C   -0.028317
     4  C   -0.171054
     5  H    0.075062
     6  H    0.063591
     7  H    0.050217
     8  H    0.066442
     9  H    0.065252
    10  H    0.075754
 Sum of Mulliken charges =   0.00000

 Dipole moment (field-independent basis, Debye):
    X=              0.0658    Y=              0.0286    Z=              0.1929  Tot=              0.2059
 Quadrupole moment (field-independent basis, Debye-Ang):
   XX=            -23.5635   YY=            -23.3392   ZZ=            -29.4706
   XY=             -0.4327   XZ=             -0.2303   YZ=              0.2009

 1\1\GINC-NODE02\SP\RB2PLYPD3-FC\def2QZVP\C4H6\BOITTIER\26-Aug-2020\0\\
 #p B2PLYPD3/Def2QZVP\\butadiene\\0,1\C,0,-3.843144,0.206673,0.015842\C
 ,0,-2.687598,-0.484808,0.032752\C,0,-1.388787,0.113266,-0.029348\C,0,-
 0.291612,-0.677474,0.056442\H,0,-4.81745,-0.268559,0.158926\H,0,-3.936
 178,1.290548,0.110422\H,0,-2.673621,-1.617114,0.083844\H,0,-1.286525,1
 .19386,-0.063575\H,0,-0.422793,-1.755185,-0.056629\H,0,0.848217,-0.321
 012,0.209631\\Version=ES64L-G09RevD.01\State=1-A\HF=-155.6824363\MP2=-
 155.910567\RMSD=7.331e-09\PG=C01 [X(C4H6)]\\@

 Normal termination of Gaussian 09 at Wed Aug 26 15:49:52 2020.
