 Gaussian 09, Revision D.01,
 Gaussian 09:  ES64L-G09RevD.01 24-Apr-2013

 --------------------
 #p B2PLYPD3/Def2QZVP
 --------------------

 ---------
 butadiene
 ---------
 Symbolic Z-matrix:
 Charge =  0 Multiplicity = 1

                         Standard orientation:
 ---------------------------------------------------------------------
 Center     Atomic      Atomic             Coordinates (Angstroms)
 Number     Number       Type             X           Y           Z
 ---------------------------------------------------------------------
      1          6           0       -1.845963    0.106290    0.019243
      2          6           0       -0.605005   -0.390013   -0.020580
      3          6           0        0.615555    0.396082   -0.027127
      4          6           0        1.837205   -0.116101    0.028362
      5          1           0       -2.733358   -0.525353    0.038798
      6          1           0       -2.002476    1.164078    0.013180
      7          1           0       -0.455782   -1.450698   -0.007998
      8          1           0        0.512001    1.494153   -0.060092
      9          1           0        1.986163   -1.173161   -0.058358
     10          1           0        2.682694    0.513432    0.075091
 ---------------------------------------------------------------------

 SCF Done:  E(RB2PLYPD3) =  -155.700114394     A.U. after   11 cycles
 E2(B2PLYPD3) =    -0.2253300138D+00 E(B2PLYPD3) =    -0.15592544440737D+03

 The electronic state is 1-A.
 Alpha  occ. eigenvalues --  -10.62497 -10.62377 -10.61506 -10.60974  -0.93094
 Alpha  occ. eigenvalues --   -0.85178  -0.70409  -0.64081  -0.54823  -0.54154
 Alpha  occ. eigenvalues --   -0.46916  -0.45786  -0.41145  -0.38106  -0.27758
 Alpha virt. eigenvalues --    0.01742   0.07020   0.07484   0.08078   0.09716
 Alpha virt. eigenvalues --    0.11704   0.12500   0.14756   0.15838   0.16215
 Alpha virt. eigenvalues --    0.18822   0.20445   0.21648   0.22959   0.23890

 Mulliken charges:
               1
     1  C   -0.175732
     2  C   -0.031844
     3  C   -0.024266
     4  C   -0.178269
     5  H    0.086688
     6  H    0.066540
     7  H    0.054548
     8  H    0.047861
     9  H    0.066403
    10  H    0.088071
 Sum of Mulliken charges =   0.00000

 Dipole moment (field-independent basis, Debye):
    X=              0.0280    Y=              0.0023    Z=             -0.0365  Tot=              0.0461
 Quadrupole moment (field-independent basis, Debye-Ang):
   XX=            -23.3634   YY=            -23.1662   ZZ=            -29.1839
   XY=             -0.0652   XZ=             -0.0659   YZ=              0.0535

 1\1\GINC-NODE15\SP\RB2PLYPD3-FC\def2QZVP\C4H6\BOITTIER\26-Aug-2020\0\\
 #p B2PLYPD3/Def2QZVP\\butadiene\\0,1\C,0,-3.849699,0.219484,0.039114\C
 ,0,-2.717199,-0.49095,0.014473\C,0,-1.376142,0.06454,-0.012949\C,0,-0.
 265086,-0.655421,0.058111\H,0,-4.835352,-0.243103,0.075529\H,0,-3.8152
 57,1.287646,0.003185\H,0,-2.759304,-1.560482,0.056993\H,0,-1.28252,1.1
 62138,-0.076849\H,0,-0.307207,-1.724102,0.001266\H,0,0.679224,-0.18559
 7,0.087972\\Version=ES64L-G09RevD.01\State=1-A\HF=-155.7001144\MP2=-15
 5.9254444\RMSD=3.900e-09\PG=C01 [X(C4H6)]\\@

 Normal termination of Gaussian 09 at Wed Aug 26 18:43:18 2020.
