 Gaussian 09, Revision D.01,
 Gaussian 09:  ES64L-G09RevD.01 24-Apr-2013

 --------------------
 #p B2PLYPD3/Def2QZVP
 --------------------

 ---------
 butadiene
 ---------
 Symbolic Z-matrix:
 Charge =  0 Multiplicity = 1

                         Standard orientation:
 ---------------------------------------------------------------------
 Center     Atomic      Atomic             Coordinates (Angstroms)
 Number     Number       Type             X           Y           Z
 ---------------------------------------------------------------------
      1          6           0       -1.797843   -0.141177   -0.090761
      2          6           0       -0.597000    0.427845    0.038136
      3          6           0        0.612503   -0.372846    0.101917
      4          6           0        1.812938    0.093172   -0.051723
      5          1           0       -2.675858    0.471295   -0.061658
      6          1           0       -1.934819   -1.256266    0.100702
      7          1           0       -0.601314    1.573391    0.154495
      8          1           0        0.404906   -1.398388    0.040003
      9          1           0        1.977859    1.188354   -0.047146
     10          1           0        2.645638   -0.620351   -0.171814
 ---------------------------------------------------------------------

 SCF Done:  E(RB2PLYPD3) =  -155.685461111     A.U. after   11 cycles
 E2(B2PLYPD3) =    -0.2260954111D+00 E(B2PLYPD3) =    -0.15591155652197D+03

 The electronic state is 1-A.
 Alpha  occ. eigenvalues --  -10.63084 -10.61670 -10.61556 -10.61397  -0.93570
 Alpha  occ. eigenvalues --   -0.85288  -0.69421  -0.63411  -0.54333  -0.53729
 Alpha  occ. eigenvalues --   -0.46514  -0.44772  -0.40913  -0.38252  -0.28022
 Alpha virt. eigenvalues --    0.02093   0.07038   0.07084   0.07921   0.09382
 Alpha virt. eigenvalues --    0.11765   0.12273   0.14575   0.15382   0.16380
 Alpha virt. eigenvalues --    0.18794   0.19624   0.20871   0.23502   0.24342

 Mulliken charges:
               1
     1  C   -0.172279
     2  C   -0.029269
     3  C   -0.030414
     4  C   -0.164681
     5  H    0.078807
     6  H    0.055426
     7  H    0.046378
     8  H    0.061961
     9  H    0.070841
    10  H    0.083228
 Sum of Mulliken charges =   0.00000

 Dipole moment (field-independent basis, Debye):
    X=              0.0297    Y=              0.0140    Z=              0.1292  Tot=              0.1333
 Quadrupole moment (field-independent basis, Debye-Ang):
   XX=            -24.0926   YY=            -23.0276   ZZ=            -29.1674
   XY=             -0.1638   XZ=             -0.7599   YZ=              0.0823

 1\1\GINC-NODE39\SP\RB2PLYPD3-FC\def2QZVP\C4H6\BOITTIER\26-Aug-2020\0\\
 #p B2PLYPD3/Def2QZVP\\butadiene\\0,1\C,0,-3.79996,0.245468,0.098731\C,
 0,-2.71884,-0.52979,-0.013423\C,0,-1.385822,0.042054,-0.077694\C,0,-0.
 288349,-0.62787,0.091353\H,0,-4.772774,-0.201419,0.070387\H,0,-3.73525
 2,1.364382,-0.107878\H,0,-2.926285,-1.657803,-0.115339\H,0,-1.407954,1
 .088925,-0.030386\H,0,-0.320924,-1.73488,0.101916\H,0,0.657349,-0.0722
 34,0.20904\\Version=ES64L-G09RevD.01\State=1-A\HF=-155.6854611\MP2=-15
 5.9115565\RMSD=7.183e-09\PG=C01 [X(C4H6)]\\@

 Normal termination of Gaussian 09 at Wed Aug 26 13:01:20 2020.
