 Gaussian 09, Revision D.01,
 Gaussian 09:  ES64L-G09RevD.01 24-Apr-2013

 --------------------
 #p B2PLYPD3/Def2QZVP
 --------------------

 ---------
 butadiene
 ---------
 Symbolic Z-matrix:
 Charge =  0 Multiplicity = 1

                         Standard orientation:
 ---------------------------------------------------------------------
 Center     Atomic      Atomic             Coordinates (Angstroms)
 Number     Number       Type             X           Y           Z
 ---------------------------------------------------------------------
      1          6           0       -1.835152    0.115768    0.031962
      2          6           0       -0.632947   -0.351316   -0.061822
      3          6           0        0.606223    0.386826    0.002685
      4          6           0        1.840897   -0.121990   -0.008215
      5          1           0       -2.573987   -0.636621    0.198408
      6          1           0       -2.139528    1.123426   -0.035764
      7          1           0       -0.548555   -1.422979   -0.091493
      8          1           0        0.613738    1.485052   -0.105586
      9          1           0        1.977366   -1.196478    0.052812
     10          1           0        2.796839    0.471871    0.193963
 ---------------------------------------------------------------------

 SCF Done:  E(RB2PLYPD3) =  -155.686728610     A.U. after   11 cycles
 E2(B2PLYPD3) =    -0.2254194480D+00 E(B2PLYPD3) =    -0.15591214805779D+03

 The electronic state is 1-A.
 Alpha  occ. eigenvalues --  -10.62620 -10.62086 -10.61861 -10.60547  -0.93529
 Alpha  occ. eigenvalues --   -0.85758  -0.70067  -0.63873  -0.55109  -0.54134
 Alpha  occ. eigenvalues --   -0.46665  -0.45105  -0.40999  -0.37851  -0.28118
 Alpha virt. eigenvalues --    0.01763   0.06896   0.07606   0.07779   0.09888
 Alpha virt. eigenvalues --    0.11542   0.12420   0.14705   0.15589   0.16222
 Alpha virt. eigenvalues --    0.18943   0.20069   0.21558   0.22283   0.23940

 Mulliken charges:
               1
     1  C   -0.168336
     2  C   -0.029869
     3  C   -0.035946
     4  C   -0.163020
     5  H    0.075714
     6  H    0.079303
     7  H    0.054311
     8  H    0.056275
     9  H    0.054847
    10  H    0.076719
 Sum of Mulliken charges =   0.00000

 Dipole moment (field-independent basis, Debye):
    X=             -0.0893    Y=             -0.0119    Z=              0.1397  Tot=              0.1662
 Quadrupole moment (field-independent basis, Debye-Ang):
   XX=            -23.5013   YY=            -23.2805   ZZ=            -28.9889
   XY=             -0.0324   XZ=              0.1858   YZ=             -0.2098

 1\1\GINC-NODE29\SP\RB2PLYPD3-FC\def2QZVP\C4H6\BOITTIER\26-Aug-2020\0\\
 #p B2PLYPD3/Def2QZVP\\butadiene\\0,1\C,0,-3.837627,0.21418,0.047461\C,
 0,-2.734455,-0.457404,-0.017701\C,0,-1.386257,0.058256,0.014131\C,0,-0
 .257896,-0.655776,0.033995\H,0,-4.694327,-0.390074,0.248991\H,0,-3.963
 994,1.254481,-0.072584\H,0,-2.836285,-1.527666,0.007454\H,0,-1.189988,
 1.131798,-0.149772\H,0,-0.308476,-1.733198,0.150079\H,0,0.787109,-0.22
 6212,0.209526\\Version=ES64L-G09RevD.01\State=1-A\HF=-155.6867286\MP2=
 -155.9121481\RMSD=8.798e-09\PG=C01 [X(C4H6)]\\@

 Normal termination of Gaussian 09 at Wed Aug 26 12:41:53 2020.
