 Gaussian 09, Revision D.01,
 Gaussian 09:  ES64L-G09RevD.01 24-Apr-2013

 --------------------
 #p B2PLYPD3/Def2QZVP
 --------------------

 ---------
 butadiene
 ---------
 Symbolic Z-matrix:
 Charge =  0 Multiplicity = 1

                         Standard orientation:
 ---------------------------------------------------------------------
 Center     Atomic      Atomic             Coordinates (Angstroms)
 Number     Number       Type             X           Y           Z
 ---------------------------------------------------------------------
      1          6           0       -1.836862    0.094456    0.006353
      2          6           0       -0.599394   -0.371923   -0.014545
      3          6           0        0.604796    0.410159   -0.022727
      4          6           0        1.836020   -0.124099    0.014123
      5          1           0       -2.737449   -0.545848    0.026884
      6          1           0       -2.015495    1.161535    0.050691
      7          1           0       -0.472282   -1.457813    0.004021
      8          1           0        0.500700    1.476974   -0.029901
      9          1           0        1.992458   -1.203948   -0.006277
     10          1           0        2.704710    0.517540    0.055357
 ---------------------------------------------------------------------

 SCF Done:  E(RB2PLYPD3) =  -155.700109140     A.U. after   11 cycles
 E2(B2PLYPD3) =    -0.2257260516D+00 E(B2PLYPD3) =    -0.15592583519174D+03

 The electronic state is 1-A.
 Alpha  occ. eigenvalues --  -10.62428 -10.62216 -10.61790 -10.61524  -0.93280
 Alpha  occ. eigenvalues --   -0.84951  -0.70196  -0.64076  -0.54613  -0.53973
 Alpha  occ. eigenvalues --   -0.46687  -0.45403  -0.41062  -0.38383  -0.27662
 Alpha virt. eigenvalues --    0.01634   0.06972   0.07446   0.07984   0.09823
 Alpha virt. eigenvalues --    0.11670   0.12407   0.14696   0.15882   0.16162
 Alpha virt. eigenvalues --    0.18787   0.20553   0.21541   0.22602   0.23798

 Mulliken charges:
               1
     1  C   -0.174198
     2  C   -0.018766
     3  C   -0.036748
     4  C   -0.175486
     5  H    0.084840
     6  H    0.060216
     7  H    0.049010
     8  H    0.056536
     9  H    0.068793
    10  H    0.085802
 Sum of Mulliken charges =   0.00000

 Dipole moment (field-independent basis, Debye):
    X=              0.0287    Y=              0.0205    Z=              0.0657  Tot=              0.0745
 Quadrupole moment (field-independent basis, Debye-Ang):
   XX=            -23.4286   YY=            -23.1688   ZZ=            -29.2464
   XY=             -0.0470   XZ=             -0.0437   YZ=              0.0494

 1\1\GINC-NODE29\SP\RB2PLYPD3-FC\def2QZVP\C4H6\BOITTIER\26-Aug-2020\0\\
 #p B2PLYPD3/Def2QZVP\\butadiene\\0,1\C,0,-3.843059,0.207134,0.028107\C
 ,0,-2.709454,-0.474168,0.021819\C,0,-1.384512,0.078555,-0.006812\C,0,-
 0.269008,-0.66677,0.046521\H,0,-4.84384,-0.260315,0.06548\H,0,-3.82714
 4,1.28976,0.042282\H,0,-2.779188,-1.564296,0.070988\H,0,-1.295514,1.14
 6111,-0.04403\H,0,-0.308957,-1.757304,0.056605\H,0,0.70087,-0.190566,0
 .070812\\Version=ES64L-G09RevD.01\State=1-A\HF=-155.7001091\MP2=-155.9
 258352\RMSD=5.319e-09\PG=C01 [X(C4H6)]\\@

 Normal termination of Gaussian 09 at Wed Aug 26 21:07:19 2020.
