 Gaussian 09, Revision D.01,
 Gaussian 09:  ES64L-G09RevD.01 24-Apr-2013

 --------------------
 #p B2PLYPD3/Def2QZVP
 --------------------

 ---------
 butadiene
 ---------
 Symbolic Z-matrix:
 Charge =  0 Multiplicity = 1

                         Standard orientation:
 ---------------------------------------------------------------------
 Center     Atomic      Atomic             Coordinates (Angstroms)
 Number     Number       Type             X           Y           Z
 ---------------------------------------------------------------------
      1          6           0        1.844129    0.094411    0.027452
      2          6           0        0.601417   -0.378854   -0.044412
      3          6           0       -0.598197    0.421549   -0.016639
      4          6           0       -1.849715   -0.120214    0.018862
      5          1           0        2.648898   -0.605183    0.034488
      6          1           0        2.129332    1.142630   -0.028086
      7          1           0        0.503561   -1.459100    0.068999
      8          1           0       -0.472599    1.516140    0.003621
      9          1           0       -2.068636   -1.177536   -0.049906
     10          1           0       -2.726361    0.481696    0.059307
 ---------------------------------------------------------------------

 SCF Done:  E(RB2PLYPD3) =  -155.696678472     A.U. after   11 cycles
 E2(B2PLYPD3) =    -0.2263498627D+00 E(B2PLYPD3) =    -0.15592302833437D+03

 The electronic state is 1-A.
 Alpha  occ. eigenvalues --  -10.63243 -10.62414 -10.61838 -10.61302  -0.92824
 Alpha  occ. eigenvalues --   -0.84658  -0.70708  -0.63860  -0.54701  -0.53932
 Alpha  occ. eigenvalues --   -0.46389  -0.45607  -0.41261  -0.38047  -0.27391
 Alpha virt. eigenvalues --    0.01290   0.07032   0.07434   0.08008   0.09463
 Alpha virt. eigenvalues --    0.11517   0.12454   0.14917   0.15656   0.16357
 Alpha virt. eigenvalues --    0.18896   0.20036   0.22067   0.22774   0.23758

 Mulliken charges:
               1
     1  C   -0.173761
     2  C   -0.024536
     3  C   -0.042793
     4  C   -0.173188
     5  H    0.079545
     6  H    0.066848
     7  H    0.058200
     8  H    0.058959
     9  H    0.068103
    10  H    0.082621
 Sum of Mulliken charges =   0.00000

 Dipole moment (field-independent basis, Debye):
    X=             -0.0102    Y=             -0.0052    Z=              0.0267  Tot=              0.0290
 Quadrupole moment (field-independent basis, Debye-Ang):
   XX=            -23.3158   YY=            -23.0856   ZZ=            -29.3288
   XY=              0.3587   XZ=              0.0145   YZ=             -0.0563

 1\1\GINC-NODE39\SP\RB2PLYPD3-FC\def2QZVP\C4H6\BOITTIER\26-Aug-2020\0\\
 #p B2PLYPD3/Def2QZVP\\butadiene\\0,1\C,0,-3.848139,0.21488,-0.010039\C
 ,0,-2.713496,-0.477156,0.074508\C,0,-1.387213,0.08818,0.031363\C,0,-0.
 25675,-0.675145,0.010092\H,0,-4.76785,-0.324767,-0.003181\H,0,-3.93558
 9,1.298633,0.021916\H,0,-2.816215,-1.559198,-0.014948\H,0,-1.309422,1.
 186487,-0.013186\H,0,-0.235849,-1.752926,0.102491\H,0,0.715542,-0.2457
 52,-0.041954\\Version=ES64L-G09RevD.01\State=1-A\HF=-155.6966785\MP2=-
 155.9230283\RMSD=6.527e-09\PG=C01 [X(C4H6)]\\@

 Normal termination of Gaussian 09 at Wed Aug 26 09:38:22 2020.
