 Gaussian 09, Revision D.01,
 Gaussian 09:  ES64L-G09RevD.01 24-Apr-2013

 --------------------
 #p B2PLYPD3/Def2QZVP
 --------------------

 ---------
 butadiene
 ---------
 Symbolic Z-matrix:
 Charge =  0 Multiplicity = 1

                         Standard orientation:
 ---------------------------------------------------------------------
 Center     Atomic      Atomic             Coordinates (Angstroms)
 Number     Number       Type             X           Y           Z
 ---------------------------------------------------------------------
      1          6           0       -1.846533    0.100986    0.030298
      2          6           0       -0.602396   -0.384290   -0.040839
      3          6           0        0.609897    0.402780   -0.014210
      4          6           0        1.838121   -0.117681    0.015937
      5          1           0       -2.747198   -0.551623    0.056839
      6          1           0       -2.028140    1.174289   -0.018375
      7          1           0       -0.451217   -1.453864   -0.018967
      8          1           0        0.504263    1.484313   -0.041673
      9          1           0        2.020716   -1.184149    0.011013
     10          1           0        2.707042    0.520261    0.064050
 ---------------------------------------------------------------------

 SCF Done:  E(RB2PLYPD3) =  -155.700039819     A.U. after   11 cycles
 E2(B2PLYPD3) =    -0.2258928821D+00 E(B2PLYPD3) =    -0.15592593270106D+03

 The electronic state is 1-A.
 Alpha  occ. eigenvalues --  -10.62534 -10.62457 -10.61984 -10.61534  -0.93060
 Alpha  occ. eigenvalues --   -0.84842  -0.70173  -0.64061  -0.54467  -0.53883
 Alpha  occ. eigenvalues --   -0.46727  -0.45447  -0.41020  -0.38203  -0.27678
 Alpha virt. eigenvalues --    0.01601   0.06963   0.07441   0.07997   0.09687
 Alpha virt. eigenvalues --    0.11650   0.12383   0.14711   0.15773   0.16222
 Alpha virt. eigenvalues --    0.18835   0.20303   0.21634   0.22801   0.23707

 Mulliken charges:
               1
     1  C   -0.172912
     2  C   -0.031354
     3  C   -0.028032
     4  C   -0.175697
     5  H    0.083625
     6  H    0.064812
     7  H    0.054989
     8  H    0.053636
     9  H    0.066274
    10  H    0.084658
 Sum of Mulliken charges =   0.00000

 Dipole moment (field-independent basis, Debye):
    X=              0.0398    Y=              0.0016    Z=              0.0061  Tot=              0.0403
 Quadrupole moment (field-independent basis, Debye-Ang):
   XX=            -23.3913   YY=            -23.1746   ZZ=            -29.2914
   XY=             -0.1525   XZ=              0.0535   YZ=             -0.0776

 1\1\GINC-NODE30\SP\RB2PLYPD3-FC\def2QZVP\C4H6\BOITTIER\26-Aug-2020\0\\
 #p B2PLYPD3/Def2QZVP\\butadiene\\0,1\C,0,-3.850319,0.217129,0.047949\C
 ,0,-2.713946,-0.486106,-0.002518\C,0,-1.379855,0.070707,-0.001787\C,0,
 -0.265027,-0.660578,0.050208\H,0,-4.853471,-0.26158,0.096177\H,0,-3.83
 6314,1.303107,-0.040282\H,0,-2.757328,-1.563923,0.058723\H,0,-1.289544
 ,1.151892,-0.068945\H,0,-0.27706,-1.741961,0.084632\H,0,0.70458,-0.187
 871,0.077046\\Version=ES64L-G09RevD.01\State=1-A\HF=-155.7000398\MP2=-
 155.9259327\RMSD=3.836e-09\PG=C01 [X(C4H6)]\\@

 Normal termination of Gaussian 09 at Wed Aug 26 19:59:51 2020.
