 Gaussian 09, Revision D.01,
 Gaussian 09:  ES64L-G09RevD.01 24-Apr-2013

 --------------------
 #p B2PLYPD3/Def2QZVP
 --------------------

 ---------
 butadiene
 ---------
 Symbolic Z-matrix:
 Charge =  0 Multiplicity = 1

                         Standard orientation:
 ---------------------------------------------------------------------
 Center     Atomic      Atomic             Coordinates (Angstroms)
 Number     Number       Type             X           Y           Z
 ---------------------------------------------------------------------
      1          6           0       -1.862155    0.089851   -0.040356
      2          6           0       -0.621425   -0.355259    0.065453
      3          6           0        0.615482    0.422064    0.038370
      4          6           0        1.848568   -0.143686   -0.034802
      5          1           0       -2.697166   -0.585918   -0.081468
      6          1           0       -1.969251    1.180616   -0.003411
      7          1           0       -0.474278   -1.455681    0.015719
      8          1           0        0.515898    1.493868   -0.027030
      9          1           0        1.977069   -1.222200   -0.053314
     10          1           0        2.764911    0.511499   -0.022489
 ---------------------------------------------------------------------

 SCF Done:  E(RB2PLYPD3) =  -155.694657585     A.U. after   11 cycles
 E2(B2PLYPD3) =    -0.2265830006D+00 E(B2PLYPD3) =    -0.15592124058605D+03

 The electronic state is 1-A.
 Alpha  occ. eigenvalues --  -10.63063 -10.62596 -10.62510 -10.61440  -0.92750
 Alpha  occ. eigenvalues --   -0.84859  -0.69825  -0.63620  -0.54529  -0.53472
 Alpha  occ. eigenvalues --   -0.46992  -0.45041  -0.40819  -0.37951  -0.27757
 Alpha virt. eigenvalues --    0.01482   0.06947   0.07387   0.07907   0.09597
 Alpha virt. eigenvalues --    0.11691   0.12273   0.14505   0.15782   0.15895
 Alpha virt. eigenvalues --    0.18783   0.20079   0.21175   0.22961   0.24036

 Mulliken charges:
               1
     1  C   -0.181179
     2  C   -0.012274
     3  C   -0.043478
     4  C   -0.173742
     5  H    0.095916
     6  H    0.062242
     7  H    0.040240
     8  H    0.055876
     9  H    0.072441
    10  H    0.083958
 Sum of Mulliken charges =   0.00000

 Dipole moment (field-independent basis, Debye):
    X=              0.0360    Y=             -0.0134    Z=             -0.0851  Tot=              0.0934
 Quadrupole moment (field-independent basis, Debye-Ang):
   XX=            -23.6097   YY=            -23.1543   ZZ=            -29.4075
   XY=              0.1499   XZ=              0.0779   YZ=              0.0874

 1\1\GINC-NODE38\SP\RB2PLYPD3-FC\def2QZVP\C4H6\BOITTIER\26-Aug-2020\0\\
 #p B2PLYPD3/Def2QZVP\\butadiene\\0,1\C,0,-3.868775,0.19458,-0.024261\C
 ,0,-2.723971,-0.456901,0.092897\C,0,-1.370963,0.093241,0.05266\C,0,-0.
 254903,-0.679294,-0.006721\H,0,-4.808465,-0.326695,-0.053453\H,0,-3.78
 4868,1.287897,-0.009415\H,0,-2.77013,-1.566934,0.065537\H,0,-1.283108,
 1.164528,-0.034422\H,0,-0.315574,-1.763893,-0.003342\H,0,0.761268,-0.1
 92982,-0.00575\\Version=ES64L-G09RevD.01\State=1-A\HF=-155.6946576\MP2
 =-155.9212406\RMSD=7.372e-09\PG=C01 [X(C4H6)]\\@

 Normal termination of Gaussian 09 at Wed Aug 26 09:23:23 2020.
