 Gaussian 09, Revision D.01,
 Gaussian 09:  ES64L-G09RevD.01 24-Apr-2013

 --------------------
 #p B2PLYPD3/Def2QZVP
 --------------------

 ---------
 butadiene
 ---------
 Symbolic Z-matrix:
 Charge =  0 Multiplicity = 1

                         Standard orientation:
 ---------------------------------------------------------------------
 Center     Atomic      Atomic             Coordinates (Angstroms)
 Number     Number       Type             X           Y           Z
 ---------------------------------------------------------------------
      1          6           0        1.790124   -0.127241   -0.055414
      2          6           0        0.589209    0.435657    0.000011
      3          6           0       -0.581304   -0.381338    0.078254
      4          6           0       -1.833592    0.079007   -0.077857
      5          1           0        2.662929    0.474975    0.047091
      6          1           0        2.032449   -1.168086   -0.140410
      7          1           0        0.536222    1.544498    0.249914
      8          1           0       -0.302508   -1.438380    0.227726
      9          1           0       -2.045093    1.089834   -0.061668
     10          1           0       -2.670613   -0.539354    0.007385
 ---------------------------------------------------------------------

 SCF Done:  E(RB2PLYPD3) =  -155.687175297     A.U. after   11 cycles
 E2(B2PLYPD3) =    -0.2260160466D+00 E(B2PLYPD3) =    -0.15591319134330D+03

 The electronic state is 1-A.
 Alpha  occ. eigenvalues --  -10.62675 -10.62606 -10.61099 -10.60563  -0.93467
 Alpha  occ. eigenvalues --   -0.84962  -0.71110  -0.63776  -0.55176  -0.54007
 Alpha  occ. eigenvalues --   -0.46962  -0.45778  -0.41204  -0.37591  -0.27599
 Alpha virt. eigenvalues --    0.01554   0.07136   0.07216   0.07933   0.09478
 Alpha virt. eigenvalues --    0.11622   0.12643   0.15106   0.15502   0.16381
 Alpha virt. eigenvalues --    0.18805   0.19712   0.22452   0.22551   0.23531

 Mulliken charges:
               1
     1  C   -0.180060
     2  C   -0.015309
     3  C   -0.042000
     4  C   -0.165929
     5  H    0.075052
     6  H    0.066372
     7  H    0.059216
     8  H    0.054355
     9  H    0.068418
    10  H    0.079885
 Sum of Mulliken charges =   0.00000

 Dipole moment (field-independent basis, Debye):
    X=              0.1272    Y=             -0.0175    Z=              0.3431  Tot=              0.3664
 Quadrupole moment (field-independent basis, Debye-Ang):
   XX=            -23.3767   YY=            -23.2741   ZZ=            -29.0291
   XY=             -0.6511   XZ=              0.0633   YZ=              0.2046

 1\1\GINC-NODE01\SP\RB2PLYPD3-FC\def2QZVP\C4H6\BOITTIER\26-Aug-2020\0\\
 #p B2PLYPD3/Def2QZVP\\butadiene\\0,1\C,0,-3.789392,0.248913,-0.031583\
 C,0,-2.716985,-0.528739,0.053996\C,0,-1.411857,0.053427,0.091772\C,0,-
 0.271326,-0.644124,-0.03909\H,0,-4.759871,-0.170226,0.100529\H,0,-3.83
 0108,1.311219,-0.169978\H,0,-2.873665,-1.613357,0.360331\H,0,-1.483293
 ,1.150377,0.186666\H,0,-0.255752,-1.674602,0.029016\H,0,0.668698,-0.19
 2878,0.015431\\Version=ES64L-G09RevD.01\State=1-A\HF=-155.6871753\MP2=
 -155.9131913\RMSD=8.704e-09\PG=C01 [X(C4H6)]\\@

 Normal termination of Gaussian 09 at Wed Aug 26 14:00:32 2020.
