 Gaussian 09, Revision D.01,
 Gaussian 09:  ES64L-G09RevD.01 24-Apr-2013

 --------------------
 #p B2PLYPD3/Def2QZVP
 --------------------

 ---------
 butadiene
 ---------
 Symbolic Z-matrix:
 Charge =  0 Multiplicity = 1

                         Standard orientation:
 ---------------------------------------------------------------------
 Center     Atomic      Atomic             Coordinates (Angstroms)
 Number     Number       Type             X           Y           Z
 ---------------------------------------------------------------------
      1          6           0       -1.819362   -0.131391    0.007485
      2          6           0       -0.601900    0.434113   -0.032585
      3          6           0        0.600057   -0.378475   -0.036924
      4          6           0        1.830241    0.095709    0.023727
      5          1           0       -2.758780    0.442273    0.051366
      6          1           0       -1.960920   -1.219730    0.132698
      7          1           0       -0.496169    1.511726    0.015677
      8          1           0        0.508416   -1.439431   -0.085492
      9          1           0        1.964755    1.131053    0.029055
     10          1           0        2.688483   -0.545628    0.086477
 ---------------------------------------------------------------------

 SCF Done:  E(RB2PLYPD3) =  -155.697352499     A.U. after   11 cycles
 E2(B2PLYPD3) =    -0.2254880640D+00 E(B2PLYPD3) =    -0.15592284056312D+03

 The electronic state is 1-A.
 Alpha  occ. eigenvalues --  -10.62821 -10.62104 -10.61848 -10.60520  -0.93243
 Alpha  occ. eigenvalues --   -0.85028  -0.69913  -0.64528  -0.54783  -0.54108
 Alpha  occ. eigenvalues --   -0.46781  -0.45168  -0.41459  -0.38196  -0.27662
 Alpha virt. eigenvalues --    0.01856   0.07022   0.07475   0.08039   0.09513
 Alpha virt. eigenvalues --    0.11700   0.12588   0.14612   0.15793   0.16434
 Alpha virt. eigenvalues --    0.18748   0.20323   0.21823   0.22845   0.23908

 Mulliken charges:
               1
     1  C   -0.165791
     2  C   -0.046822
     3  C   -0.015576
     4  C   -0.181309
     5  H    0.078591
     6  H    0.063998
     7  H    0.060964
     8  H    0.056476
     9  H    0.063244
    10  H    0.086225
 Sum of Mulliken charges =   0.00000

 Dipole moment (field-independent basis, Debye):
    X=             -0.0243    Y=             -0.0005    Z=              0.1646  Tot=              0.1664
 Quadrupole moment (field-independent basis, Debye-Ang):
   XX=            -23.5243   YY=            -23.0890   ZZ=            -29.1725
   XY=              0.0138   XZ=             -0.1599   YZ=             -0.0444

 1\1\GINC-NODE36\SP\RB2PLYPD3-FC\def2QZVP\C4H6\BOITTIER\26-Aug-2020\0\\
 #p B2PLYPD3/Def2QZVP\\butadiene\\0,1\C,0,-3.819508,0.239395,0.002651\C
 ,0,-2.721994,-0.532027,0.065774\C,0,-1.39462,0.053407,0.046673\C,0,-0.
 268615,-0.633869,0.006095\H,0,-4.846129,-0.159114,-0.024957\H,0,-3.765
 495,1.330697,-0.15965\H,0,-2.809832,-1.612263,0.05422\H,0,-1.295879,1.
 114765,0.05914\H,0,-0.320491,-1.676206,0.03612\H,0,0.689872,-0.157962,
 -0.075415\\Version=ES64L-G09RevD.01\State=1-A\HF=-155.6973525\MP2=-155
 .9228406\RMSD=6.241e-09\PG=C01 [X(C4H6)]\\@

 Normal termination of Gaussian 09 at Wed Aug 26 09:29:58 2020.
