 Gaussian 09, Revision D.01,
 Gaussian 09:  ES64L-G09RevD.01 24-Apr-2013

 --------------------
 #p B2PLYPD3/Def2QZVP
 --------------------

 ---------
 butadiene
 ---------
 Symbolic Z-matrix:
 Charge =  0 Multiplicity = 1

                         Standard orientation:
 ---------------------------------------------------------------------
 Center     Atomic      Atomic             Coordinates (Angstroms)
 Number     Number       Type             X           Y           Z
 ---------------------------------------------------------------------
      1          6           0       -1.839895    0.110267    0.015486
      2          6           0       -0.614321   -0.390429   -0.008101
      3          6           0        0.606671    0.406733   -0.029550
      4          6           0        1.845659   -0.121655    0.005544
      5          1           0       -2.656562   -0.566443   -0.004176
      6          1           0       -2.032116    1.161007    0.062303
      7          1           0       -0.484808   -1.470994   -0.066228
      8          1           0        0.470339    1.486067   -0.020527
      9          1           0        2.006469   -1.166074    0.095873
     10          1           0        2.707995    0.526945    0.032482
 ---------------------------------------------------------------------

 SCF Done:  E(RB2PLYPD3) =  -155.700285161     A.U. after   11 cycles
 E2(B2PLYPD3) =    -0.2254372890D+00 E(B2PLYPD3) =    -0.15592572245036D+03

 The electronic state is 1-A.
 Alpha  occ. eigenvalues --  -10.62710 -10.62308 -10.61438 -10.60938  -0.92905
 Alpha  occ. eigenvalues --   -0.85080  -0.70365  -0.64086  -0.54577  -0.54267
 Alpha  occ. eigenvalues --   -0.46544  -0.46249  -0.41125  -0.38014  -0.27694
 Alpha virt. eigenvalues --    0.01741   0.07021   0.07467   0.08090   0.09603
 Alpha virt. eigenvalues --    0.11738   0.12384   0.14913   0.15773   0.16134
 Alpha virt. eigenvalues --    0.18782   0.20482   0.21676   0.22858   0.23963

 Mulliken charges:
               1
     1  C   -0.180338
     2  C   -0.024099
     3  C   -0.036195
     4  C   -0.177893
     5  H    0.086310
     6  H    0.069705
     7  H    0.052075
     8  H    0.054714
     9  H    0.070603
    10  H    0.085117
 Sum of Mulliken charges =   0.00000

 Dipole moment (field-independent basis, Debye):
    X=             -0.0155    Y=             -0.0018    Z=              0.0760  Tot=              0.0776
 Quadrupole moment (field-independent basis, Debye-Ang):
   XX=            -23.6062   YY=            -22.9779   ZZ=            -29.2215
   XY=             -0.1910   XZ=              0.2284   YZ=              0.0464

 1\1\GINC-NODE17\SP\RB2PLYPD3-FC\def2QZVP\C4H6\BOITTIER\26-Aug-2020\0\\
 #p B2PLYPD3/Def2QZVP\\butadiene\\0,1\C,0,-3.842282,0.223257,0.032653\C
 ,0,-2.726348,-0.489438,0.026238\C,0,-1.38226,0.075138,-0.011595\C,0,-0
 .25802,-0.665668,0.041412\H,0,-4.767053,-0.296398,0.02767\H,0,-3.84297
 1,1.292292,0.051638\H,0,-2.792711,-1.576859,-0.003499\H,0,-1.322887,1.
 161292,-0.030937\H,0,-0.28693,-1.719284,0.159255\H,0,0.70665,-0.181654
 ,0.054553\\Version=ES64L-G09RevD.01\State=1-A\HF=-155.7002852\MP2=-155
 .9257225\RMSD=5.596e-09\PG=C01 [X(C4H6)]\\@

 Normal termination of Gaussian 09 at Wed Aug 26 21:58:24 2020.
