 Gaussian 09, Revision D.01,
 Gaussian 09:  ES64L-G09RevD.01 24-Apr-2013

 --------------------
 #p B2PLYPD3/Def2QZVP
 --------------------

 ---------
 butadiene
 ---------
 Symbolic Z-matrix:
 Charge =  0 Multiplicity = 1

                         Standard orientation:
 ---------------------------------------------------------------------
 Center     Atomic      Atomic             Coordinates (Angstroms)
 Number     Number       Type             X           Y           Z
 ---------------------------------------------------------------------
      1          6           0        1.855585    0.106213    0.024817
      2          6           0        0.617979   -0.391215   -0.034949
      3          6           0       -0.617634    0.411827   -0.016008
      4          6           0       -1.840335   -0.120569    0.013255
      5          1           0        2.683097   -0.534942    0.054139
      6          1           0        2.005029    1.174398   -0.032892
      7          1           0        0.460000   -1.472506   -0.000678
      8          1           0       -0.533767    1.492566    0.004299
      9          1           0       -1.985829   -1.195105    0.008652
     10          1           0       -2.722096    0.498056    0.043787
 ---------------------------------------------------------------------

 SCF Done:  E(RB2PLYPD3) =  -155.700233559     A.U. after   11 cycles
 E2(B2PLYPD3) =    -0.2254881961D+00 E(B2PLYPD3) =    -0.15592572175532D+03

 The electronic state is 1-A.
 Alpha  occ. eigenvalues --  -10.62744 -10.62615 -10.61467 -10.61123  -0.92687
 Alpha  occ. eigenvalues --   -0.85140  -0.70095  -0.63965  -0.54740  -0.54049
 Alpha  occ. eigenvalues --   -0.46787  -0.45755  -0.41099  -0.37891  -0.27842
 Alpha virt. eigenvalues --    0.01862   0.07045   0.07440   0.08104   0.09505
 Alpha virt. eigenvalues --    0.11685   0.12443   0.14654   0.15882   0.16148
 Alpha virt. eigenvalues --    0.18835   0.20403   0.21520   0.23070   0.23931

 Mulliken charges:
               1
     1  C   -0.178455
     2  C   -0.032245
     3  C   -0.031329
     4  C   -0.174286
     5  H    0.090916
     6  H    0.068814
     7  H    0.052089
     8  H    0.054250
     9  H    0.064357
    10  H    0.085889
 Sum of Mulliken charges =   0.00000

 Dipole moment (field-independent basis, Debye):
    X=             -0.0262    Y=              0.0028    Z=              0.0326  Tot=              0.0419
 Quadrupole moment (field-independent basis, Debye-Ang):
   XX=            -23.4516   YY=            -23.0562   ZZ=            -29.2687
   XY=              0.0342   XZ=             -0.0449   YZ=             -0.0670

 1\1\GINC-NODE35\SP\RB2PLYPD3-FC\def2QZVP\C4H6\BOITTIER\26-Aug-2020\0\\
 #p B2PLYPD3/Def2QZVP\\butadiene\\0,1\C,0,-3.858349,0.21555,-0.006281\C
 ,0,-2.727753,-0.490893,0.066973\C,0,-1.369895,0.080799,0.030026\C,0,-0
 .260418,-0.659565,0.015107\H,0,-4.786097,-0.270024,-0.021027\H,0,-3.81
 6785,1.294418,0.02535\H,0,-2.763156,-1.583599,0.059101\H,0,-1.261811,1
 .15857,-0.016563\H,0,-0.306797,-1.742485,0.04592\H,0,0.716565,-0.20717
 4,-0.029373\\Version=ES64L-G09RevD.01\State=1-A\HF=-155.7002336\MP2=-1
 55.9257218\RMSD=3.228e-09\PG=C01 [X(C4H6)]\\@

 Normal termination of Gaussian 09 at Wed Aug 26 21:11:04 2020.
