 Gaussian 09, Revision D.01,
 Gaussian 09:  ES64L-G09RevD.01 24-Apr-2013

 --------------------
 #p B2PLYPD3/Def2QZVP
 --------------------

 ---------
 butadiene
 ---------
 Symbolic Z-matrix:
 Charge =  0 Multiplicity = 1

                         Standard orientation:
 ---------------------------------------------------------------------
 Center     Atomic      Atomic             Coordinates (Angstroms)
 Number     Number       Type             X           Y           Z
 ---------------------------------------------------------------------
      1          6           0        1.862217   -0.111523   -0.023238
      2          6           0        0.600916    0.410427    0.009288
      3          6           0       -0.625253   -0.368460    0.011588
      4          6           0       -1.862720    0.065316   -0.068936
      5          1           0        2.764229    0.514047   -0.005972
      6          1           0        2.140142   -1.211020   -0.085175
      7          1           0        0.445990    1.543311    0.229628
      8          1           0       -0.385631   -1.425331    0.183251
      9          1           0       -2.102482    1.124577   -0.075328
     10          1           0       -2.713203   -0.520143    0.181385
 ---------------------------------------------------------------------

 SCF Done:  E(RB2PLYPD3) =  -155.684323231     A.U. after   12 cycles
 E2(B2PLYPD3) =    -0.2272207720D+00 E(B2PLYPD3) =    -0.15591154400297D+03

 The electronic state is 1-A.
 Alpha  occ. eigenvalues --  -10.64120 -10.63178 -10.62620 -10.61180  -0.92750
 Alpha  occ. eigenvalues --   -0.84649  -0.70736  -0.62927  -0.55146  -0.52738
 Alpha  occ. eigenvalues --   -0.47680  -0.44659  -0.40165  -0.37399  -0.27971
 Alpha virt. eigenvalues --    0.01049   0.07020   0.07053   0.07865   0.09614
 Alpha virt. eigenvalues --    0.11283   0.12483   0.14671   0.15446   0.16330
 Alpha virt. eigenvalues --    0.19101   0.19501   0.21932   0.22535   0.22928

 Mulliken charges:
               1
     1  C   -0.173459
     2  C   -0.038287
     3  C   -0.023966
     4  C   -0.155331
     5  H    0.085498
     6  H    0.063360
     7  H    0.052560
     8  H    0.053835
     9  H    0.053968
    10  H    0.081823
 Sum of Mulliken charges =   0.00000

 Dipole moment (field-independent basis, Debye):
    X=              0.0898    Y=             -0.0180    Z=              0.3880  Tot=              0.3987
 Quadrupole moment (field-independent basis, Debye-Ang):
   XX=            -22.9308   YY=            -23.7208   ZZ=            -29.2951
   XY=             -0.6718   XZ=             -0.5940   YZ=             -0.0109

 1\1\GINC-NODE17\SP\RB2PLYPD3-FC\def2QZVP\C4H6\BOITTIER\26-Aug-2020\0\\
 #p B2PLYPD3/Def2QZVP\\butadiene\\0,1\C,0,-3.863337,0.241595,-0.005215\
 C,0,-2.721968,-0.505418,0.05494\C,0,-1.371704,0.029922,0.035983\C,0,-0
 .237325,-0.630372,-0.020284\H,0,-4.866467,-0.203127,0.029644\H,0,-3.93
 0645,1.370512,-0.110043\H,0,-2.781627,-1.63809,0.318516\H,0,-1.409203,
 1.118702,0.166427\H,0,-0.200023,-1.715249,0.014514\H,0,0.707862,-0.205
 227,0.213421\\Version=ES64L-G09RevD.01\State=1-A\HF=-155.6843232\MP2=-
 155.911544\RMSD=2.536e-09\PG=C01 [X(C4H6)]\\@

 Normal termination of Gaussian 09 at Wed Aug 26 13:19:27 2020.
