 Gaussian 09, Revision D.01,
 Gaussian 09:  ES64L-G09RevD.01 24-Apr-2013

 --------------------
 #p B2PLYPD3/Def2QZVP
 --------------------

 ---------
 butadiene
 ---------
 Symbolic Z-matrix:
 Charge =  0 Multiplicity = 1

                         Standard orientation:
 ---------------------------------------------------------------------
 Center     Atomic      Atomic             Coordinates (Angstroms)
 Number     Number       Type             X           Y           Z
 ---------------------------------------------------------------------
      1          6           0       -1.820789   -0.129769   -0.005795
      2          6           0       -0.600889    0.415791    0.030903
      3          6           0        0.587335   -0.373544   -0.000191
      4          6           0        1.821582    0.090195   -0.022033
      5          1           0       -2.664081    0.507094   -0.054838
      6          1           0       -1.966995   -1.183865   -0.146413
      7          1           0       -0.491905    1.492749    0.101654
      8          1           0        0.439891   -1.418623    0.171468
      9          1           0        2.018892    1.129231   -0.103191
     10          1           0        2.740769   -0.542628    0.014018
 ---------------------------------------------------------------------

 SCF Done:  E(RB2PLYPD3) =  -155.697141498     A.U. after   11 cycles
 E2(B2PLYPD3) =    -0.2253173330D+00 E(B2PLYPD3) =    -0.15592245883069D+03

 The electronic state is 1-A.
 Alpha  occ. eigenvalues --  -10.62292 -10.61747 -10.61297 -10.61145  -0.93645
 Alpha  occ. eigenvalues --   -0.85117  -0.70483  -0.64414  -0.54998  -0.54079
 Alpha  occ. eigenvalues --   -0.46710  -0.45710  -0.41263  -0.38327  -0.27681
 Alpha virt. eigenvalues --    0.01716   0.07076   0.07525   0.08018   0.09643
 Alpha virt. eigenvalues --    0.11751   0.12525   0.14913   0.15563   0.16251
 Alpha virt. eigenvalues --    0.18753   0.20109   0.21860   0.22974   0.23733

 Mulliken charges:
               1
     1  C   -0.174759
     2  C   -0.037457
     3  C   -0.021634
     4  C   -0.177611
     5  H    0.083756
     6  H    0.069076
     7  H    0.055882
     8  H    0.060607
     9  H    0.062663
    10  H    0.079477
 Sum of Mulliken charges =   0.00000

 Dipole moment (field-independent basis, Debye):
    X=             -0.0108    Y=              0.0455    Z=             -0.0119  Tot=              0.0482
 Quadrupole moment (field-independent basis, Debye-Ang):
   XX=            -23.5098   YY=            -23.1952   ZZ=            -29.0436
   XY=              0.1798   XZ=              0.3561   YZ=             -0.0690

 1\1\GINC-NODE09\SP\RB2PLYPD3-FC\def2QZVP\C4H6\BOITTIER\26-Aug-2020\0\\
 #p B2PLYPD3/Def2QZVP\\butadiene\\0,1\C,0,-3.816922,0.244689,0.027115\C
 ,0,-2.717222,-0.51519,0.007526\C,0,-1.404811,0.044678,0.011756\C,0,-0.
 275693,-0.635526,0.047971\H,0,-4.761852,-0.225698,0.09771\H,0,-3.76752
 8,1.311744,0.133048\H,0,-2.806912,-1.595666,-0.027798\H,0,-1.360376,1.
 093028,-0.194121\H,0,-0.270605,-1.689954,0.16316\H,0,0.743209,-0.18253
 7,-0.009561\\Version=ES64L-G09RevD.01\State=1-A\HF=-155.6971415\MP2=-1
 55.9224588\RMSD=6.302e-09\PG=C01 [X(C4H6)]\\@

 Normal termination of Gaussian 09 at Wed Aug 26 10:16:32 2020.
