 Gaussian 09, Revision D.01,
 Gaussian 09:  ES64L-G09RevD.01 24-Apr-2013

 --------------------
 #p B2PLYPD3/Def2QZVP
 --------------------

 ---------
 butadiene
 ---------
 Symbolic Z-matrix:
 Charge =  0 Multiplicity = 1

                         Standard orientation:
 ---------------------------------------------------------------------
 Center     Atomic      Atomic             Coordinates (Angstroms)
 Number     Number       Type             X           Y           Z
 ---------------------------------------------------------------------
      1          6           0        1.824678   -0.122947    0.012498
      2          6           0        0.603843    0.406473   -0.011449
      3          6           0       -0.603114   -0.383973   -0.024003
      4          6           0       -1.832026    0.097946    0.001630
      5          1           0        2.704924    0.512220    0.061431
      6          1           0        1.972482   -1.191281   -0.016827
      7          1           0        0.473839    1.509211   -0.040624
      8          1           0       -0.444982   -1.450222    0.012164
      9          1           0       -1.959542    1.182009    0.040178
     10          1           0       -2.707010   -0.546925    0.071618
 ---------------------------------------------------------------------

 SCF Done:  E(RB2PLYPD3) =  -155.700159591     A.U. after   11 cycles
 E2(B2PLYPD3) =    -0.2255339049D+00 E(B2PLYPD3) =    -0.15592569349581D+03

 The electronic state is 1-A.
 Alpha  occ. eigenvalues --  -10.62607 -10.62013 -10.61510 -10.61413  -0.93350
 Alpha  occ. eigenvalues --   -0.85121  -0.70015  -0.63854  -0.54614  -0.53931
 Alpha  occ. eigenvalues --   -0.46767  -0.45443  -0.40937  -0.38417  -0.27820
 Alpha virt. eigenvalues --    0.01888   0.07017   0.07324   0.08035   0.09759
 Alpha virt. eigenvalues --    0.11751   0.12420   0.14700   0.15725   0.16130
 Alpha virt. eigenvalues --    0.18691   0.20430   0.21543   0.22889   0.23935

 Mulliken charges:
               1
     1  C   -0.178224
     2  C   -0.026516
     3  C   -0.021283
     4  C   -0.175937
     5  H    0.086287
     6  H    0.067646
     7  H    0.047741
     8  H    0.049914
     9  H    0.061659
    10  H    0.088712
 Sum of Mulliken charges =   0.00000

 Dipole moment (field-independent basis, Debye):
    X=              0.0366    Y=             -0.0286    Z=              0.0932  Tot=              0.1042
 Quadrupole moment (field-independent basis, Debye-Ang):
   XX=            -23.5997   YY=            -23.1355   ZZ=            -29.2082
   XY=             -0.0402   XZ=             -0.1891   YZ=             -0.0090

 1\1\GINC-NODE16\SP\RB2PLYPD3-FC\def2QZVP\C4H6\BOITTIER\26-Aug-2020\0\\
 #p B2PLYPD3/Def2QZVP\\butadiene\\0,1\C,0,-3.825579,0.234271,0.030395\C
 ,0,-2.720013,-0.506667,0.024725\C,0,-1.390517,0.053026,-0.005168\C,0,-
 0.268375,-0.641314,0.03747\H,0,-4.805692,-0.230548,0.09354\H,0,-3.7787
 28,1.310568,-0.028191\H,0,-2.790661,-1.615175,0.025701\H,0,-1.354094,1
 .130906,0.001736\H,0,-0.337999,-1.729177,0.105633\H,0,0.708502,-0.1627
 85,0.092923\\Version=ES64L-G09RevD.01\State=1-A\HF=-155.7001596\MP2=-1
 55.9256935\RMSD=5.060e-09\PG=C01 [X(C4H6)]\\@

 Normal termination of Gaussian 09 at Wed Aug 26 19:53:17 2020.
