 Gaussian 09, Revision D.01,
 Gaussian 09:  ES64L-G09RevD.01 24-Apr-2013

 --------------------
 #p B2PLYPD3/Def2QZVP
 --------------------

 ---------
 butadiene
 ---------
 Symbolic Z-matrix:
 Charge =  0 Multiplicity = 1

                         Standard orientation:
 ---------------------------------------------------------------------
 Center     Atomic      Atomic             Coordinates (Angstroms)
 Number     Number       Type             X           Y           Z
 ---------------------------------------------------------------------
      1          6           0        1.830904    0.117620   -0.006500
      2          6           0        0.603821   -0.415115   -0.003665
      3          6           0       -0.596139    0.388150   -0.013170
      4          6           0       -1.829634   -0.101590    0.008447
      5          1           0        2.723609   -0.498461    0.076890
      6          1           0        1.958802    1.219244    0.008285
      7          1           0        0.476676   -1.514966   -0.008389
      8          1           0       -0.506677    1.483666   -0.016904
      9          1           0       -2.033823   -1.157455   -0.033212
     10          1           0       -2.672296    0.533580    0.062660
 ---------------------------------------------------------------------

 SCF Done:  E(RB2PLYPD3) =  -155.699289178     A.U. after   11 cycles
 E2(B2PLYPD3) =    -0.2258213535D+00 E(B2PLYPD3) =    -0.15592511053177D+03

 The electronic state is 1-A.
 Alpha  occ. eigenvalues --  -10.62798 -10.62404 -10.61906 -10.60930  -0.93120
 Alpha  occ. eigenvalues --   -0.84978  -0.70091  -0.63698  -0.54681  -0.53979
 Alpha  occ. eigenvalues --   -0.46495  -0.45243  -0.41263  -0.38262  -0.27654
 Alpha virt. eigenvalues --    0.01774   0.07042   0.07292   0.08000   0.09642
 Alpha virt. eigenvalues --    0.11665   0.12436   0.14683   0.15914   0.16149
 Alpha virt. eigenvalues --    0.18710   0.20522   0.21588   0.22672   0.23957

 Mulliken charges:
               1
     1  C   -0.170537
     2  C   -0.034931
     3  C   -0.020365
     4  C   -0.177665
     5  H    0.086497
     6  H    0.064052
     7  H    0.054373
     8  H    0.050272
     9  H    0.063195
    10  H    0.085107
 Sum of Mulliken charges =   0.00000

 Dipole moment (field-independent basis, Debye):
    X=             -0.0198    Y=             -0.0112    Z=              0.0699  Tot=              0.0735
 Quadrupole moment (field-independent basis, Debye-Ang):
   XX=            -23.5343   YY=            -23.0658   ZZ=            -29.2677
   XY=              0.0541   XZ=              0.1388   YZ=              0.0392

 1\1\GINC-NODE33\SP\RB2PLYPD3-FC\def2QZVP\C4H6\BOITTIER\26-Aug-2020\0\\
 #p B2PLYPD3/Def2QZVP\\butadiene\\0,1\C,0,-3.830415,0.231759,0.020122\C
 ,0,-2.719522,-0.513317,0.038191\C,0,-1.394365,0.060291,0.025487\C,0,-0
 .269465,-0.644279,0.023418\H,0,-4.819809,-0.215617,-0.04611\H,0,-3.757
 612,1.33733,-0.030522\H,0,-2.792774,-1.617333,0.078719\H,0,-1.284806,1
 .153523,-0.006334\H,0,-0.258901,-1.717755,0.099682\H,0,0.673762,-0.173
 548,-0.048648\\Version=ES64L-G09RevD.01\State=1-A\HF=-155.6992892\MP2=
 -155.9251105\RMSD=4.656e-09\PG=C01 [X(C4H6)]\\@

 Normal termination of Gaussian 09 at Wed Aug 26 21:55:26 2020.
