 Gaussian 09, Revision D.01,
 Gaussian 09:  ES64L-G09RevD.01 24-Apr-2013

 --------------------
 #p B2PLYPD3/Def2QZVP
 --------------------

 ---------
 butadiene
 ---------
 Symbolic Z-matrix:
 Charge =  0 Multiplicity = 1

                         Standard orientation:
 ---------------------------------------------------------------------
 Center     Atomic      Atomic             Coordinates (Angstroms)
 Number     Number       Type             X           Y           Z
 ---------------------------------------------------------------------
      1          6           0       -1.833555    0.118309    0.002655
      2          6           0       -0.618420   -0.431125   -0.072065
      3          6           0        0.575503    0.360582   -0.062403
      4          6           0        1.835144   -0.095114    0.057340
      5          1           0       -2.832505   -0.349755    0.220540
      6          1           0       -1.792439    1.213805    0.227132
      7          1           0       -0.448263   -1.438951   -0.118395
      8          1           0        0.547084    1.458487   -0.078350
      9          1           0        1.991305   -1.155299    0.224480
     10          1           0        2.782786    0.555796   -0.028564
 ---------------------------------------------------------------------

 SCF Done:  E(RB2PLYPD3) =  -155.681588279     A.U. after   11 cycles
 E2(B2PLYPD3) =    -0.2272497341D+00 E(B2PLYPD3) =    -0.15590883801263D+03

 The electronic state is 1-A.
 Alpha  occ. eigenvalues --  -10.62606 -10.62564 -10.62343 -10.62327  -0.93567
 Alpha  occ. eigenvalues --   -0.84608  -0.69802  -0.64619  -0.54547  -0.53543
 Alpha  occ. eigenvalues --   -0.46887  -0.43905  -0.41155  -0.38360  -0.27563
 Alpha virt. eigenvalues --    0.01118   0.06847   0.07471   0.07865   0.09462
 Alpha virt. eigenvalues --    0.11505   0.12764   0.14180   0.15713   0.16631
 Alpha virt. eigenvalues --    0.18780   0.19583   0.21511   0.22229   0.23330

 Mulliken charges:
               1
     1  C   -0.149170
     2  C   -0.042924
     3  C   -0.014777
     4  C   -0.180676
     5  H    0.081366
     6  H    0.048711
     7  H    0.067405
     8  H    0.050530
     9  H    0.056261
    10  H    0.083275
 Sum of Mulliken charges =   0.00000

 Dipole moment (field-independent basis, Debye):
    X=              0.0100    Y=             -0.0817    Z=              0.3057  Tot=              0.3166
 Quadrupole moment (field-independent basis, Debye-Ang):
   XX=            -23.4169   YY=            -23.6353   ZZ=            -29.1968
   XY=              0.2911   XZ=             -0.7348   YZ=             -0.0349

 1\1\GINC-NODE30\SP\RB2PLYPD3-FC\def2QZVP\C4H6\BOITTIER\26-Aug-2020\0\\
 #p B2PLYPD3/Def2QZVP\\butadiene\\0,1\C,0,-3.830701,0.226872,0.039762\C
 ,0,-2.731047,-0.528233,-0.028015\C,0,-1.416979,0.04223,-0.039881\C,0,-
 0.255631,-0.624458,0.08459\H,0,-4.894456,-0.054543,0.271472\H,0,-3.596
 838,1.302565,0.240718\H,0,-2.740211,-1.551012,-0.053559\H,0,-1.252979,
 1.127598,-0.079071\H,0,-0.286117,-1.692,0.273635\H,0,0.790603,-0.15140
 2,-0.018858\\Version=ES64L-G09RevD.01\State=1-A\HF=-155.6815883\MP2=-1
 55.908838\RMSD=5.740e-09\PG=C01 [X(C4H6)]\\@

 Normal termination of Gaussian 09 at Wed Aug 26 14:28:44 2020.
