 Gaussian 09, Revision D.01,
 Gaussian 09:  ES64L-G09RevD.01 24-Apr-2013

 --------------------
 #p B2PLYPD3/Def2QZVP
 --------------------

 ---------
 butadiene
 ---------
 Symbolic Z-matrix:
 Charge =  0 Multiplicity = 1

                         Standard orientation:
 ---------------------------------------------------------------------
 Center     Atomic      Atomic             Coordinates (Angstroms)
 Number     Number       Type             X           Y           Z
 ---------------------------------------------------------------------
      1          6           0       -1.873965    0.116364   -0.079423
      2          6           0       -0.606879   -0.366826    0.055105
      3          6           0        0.649049    0.415737    0.035640
      4          6           0        1.835913   -0.145031   -0.072266
      5          1           0       -2.583130   -0.613046    0.003665
      6          1           0       -2.186276    1.087735   -0.056622
      7          1           0       -0.484411   -1.428941    0.352847
      8          1           0        0.602094    1.516679    0.165438
      9          1           0        1.890601   -1.196242   -0.230093
     10          1           0        2.736417    0.512347    0.130423
 ---------------------------------------------------------------------

 SCF Done:  E(RB2PLYPD3) =  -155.681782417     A.U. after   12 cycles
 E2(B2PLYPD3) =    -0.2261934474D+00 E(B2PLYPD3) =    -0.15590797586461D+03

 The electronic state is 1-A.
 Alpha  occ. eigenvalues --  -10.63426 -10.62500 -10.61550 -10.60589  -0.92524
 Alpha  occ. eigenvalues --   -0.85336  -0.70292  -0.63623  -0.55123  -0.53442
 Alpha  occ. eigenvalues --   -0.47031  -0.46214  -0.40953  -0.36803  -0.27904
 Alpha virt. eigenvalues --    0.01520   0.07050   0.07329   0.07889   0.09343
 Alpha virt. eigenvalues --    0.11657   0.12405   0.14796   0.15447   0.16214
 Alpha virt. eigenvalues --    0.18945   0.19519   0.21538   0.22155   0.24481

 Mulliken charges:
               1
     1  C   -0.177944
     2  C   -0.053312
     3  C   -0.023734
     4  C   -0.175780
     5  H    0.079744
     6  H    0.078386
     7  H    0.060059
     8  H    0.055785
     9  H    0.072062
    10  H    0.084735
 Sum of Mulliken charges =   0.00000

 Dipole moment (field-independent basis, Debye):
    X=             -0.0260    Y=              0.0410    Z=              0.3677  Tot=              0.3709
 Quadrupole moment (field-independent basis, Debye-Ang):
   XX=            -23.8115   YY=            -23.0753   ZZ=            -29.0980
   XY=             -0.1861   XZ=              0.0192   YZ=              0.0717

 1\1\GINC-NODE11\SP\RB2PLYPD3-FC\def2QZVP\C4H6\BOITTIER\26-Aug-2020\0\\
 #p B2PLYPD3/Def2QZVP\\butadiene\\0,1\C,0,-3.879537,0.21771,-0.052585\C
 ,0,-2.71398,-0.472864,0.094587\C,0,-1.34243,0.082052,0.06207\C,0,-0.26
 9521,-0.676113,-0.031747\H,0,-4.703233,-0.377364,0.043696\H,0,-4.02052
 ,1.22852,-0.050219\H,0,-2.775191,-1.533946,0.41411\H,0,-1.199625,1.177
 14,0.169379\H,0,-0.39621,-1.724116,-0.168072\H,0,0.730677,-0.178988,0.
 159583\\Version=ES64L-G09RevD.01\State=1-A\HF=-155.6817824\MP2=-155.90
 79759\RMSD=4.234e-09\PG=C01 [X(C4H6)]\\@

 Normal termination of Gaussian 09 at Wed Aug 26 12:57:59 2020.
