 Gaussian 09, Revision D.01,
 Gaussian 09:  ES64L-G09RevD.01 24-Apr-2013

 --------------------
 #p B2PLYPD3/Def2QZVP
 --------------------

 ---------
 butadiene
 ---------
 Symbolic Z-matrix:
 Charge =  0 Multiplicity = 1

                         Standard orientation:
 ---------------------------------------------------------------------
 Center     Atomic      Atomic             Coordinates (Angstroms)
 Number     Number       Type             X           Y           Z
 ---------------------------------------------------------------------
      1          6           0       -1.830352   -0.118486    0.018068
      2          6           0       -0.594733    0.419241   -0.019762
      3          6           0        0.603252   -0.390096   -0.012066
      4          6           0        1.838405    0.094852    0.015518
      5          1           0       -2.698080    0.511772    0.045469
      6          1           0       -1.995762   -1.203430   -0.029414
      7          1           0       -0.475489    1.493808   -0.007369
      8          1           0        0.396076   -1.428943   -0.038066
      9          1           0        2.003570    1.154383   -0.038490
     10          1           0        2.670258   -0.560655    0.057326
 ---------------------------------------------------------------------

 SCF Done:  E(RB2PLYPD3) =  -155.699715611     A.U. after   11 cycles
 E2(B2PLYPD3) =    -0.2255741923D+00 E(B2PLYPD3) =    -0.15592528980291D+03

 The electronic state is 1-A.
 Alpha  occ. eigenvalues --  -10.62493 -10.61947 -10.61760 -10.61026  -0.93196
 Alpha  occ. eigenvalues --   -0.84859  -0.70429  -0.64412  -0.54785  -0.53962
 Alpha  occ. eigenvalues --   -0.46707  -0.46012  -0.41392  -0.38118  -0.27531
 Alpha virt. eigenvalues --    0.01679   0.07042   0.07413   0.08200   0.09580
 Alpha virt. eigenvalues --    0.11767   0.12413   0.14832   0.15838   0.16104
 Alpha virt. eigenvalues --    0.18715   0.20472   0.21623   0.23173   0.23922

 Mulliken charges:
               1
     1  C   -0.180286
     2  C   -0.031148
     3  C   -0.025294
     4  C   -0.181215
     5  H    0.085387
     6  H    0.064868
     7  H    0.054478
     8  H    0.056191
     9  H    0.068565
    10  H    0.088453
 Sum of Mulliken charges =   0.00000

 Dipole moment (field-independent basis, Debye):
    X=             -0.0215    Y=              0.0013    Z=             -0.0353  Tot=              0.0413
 Quadrupole moment (field-independent basis, Debye-Ang):
   XX=            -23.6132   YY=            -23.0230   ZZ=            -29.2194
   XY=              0.2020   XZ=             -0.0035   YZ=              0.0171

 1\1\GINC-NODE25\SP\RB2PLYPD3-FC\def2QZVP\C4H6\BOITTIER\26-Aug-2020\0\\
 #p B2PLYPD3/Def2QZVP\\butadiene\\0,1\C,0,-3.830985,0.238992,0.000179\C
 ,0,-2.715583,-0.516093,0.055502\C,0,-1.388939,0.057898,0.027128\C,0,-0
 .264485,-0.64709,0.015569\H,0,-4.800135,-0.220955,-0.010985\H,0,-3.793
 344,1.336731,0.016632\H,0,-2.796565,-1.594136,0.073745\H,0,-1.400921,1
 .117447,0.023334\H,0,-0.297336,-1.716959,0.099845\H,0,0.673826,-0.1576
 7,-0.04323\\Version=ES64L-G09RevD.01\State=1-A\HF=-155.6997156\MP2=-15
 5.9252898\RMSD=5.385e-09\PG=C01 [X(C4H6)]\\@

 Normal termination of Gaussian 09 at Wed Aug 26 11:15:21 2020.
