 Gaussian 09, Revision D.01,
 Gaussian 09:  ES64L-G09RevD.01 24-Apr-2013

 --------------------
 #p B2PLYPD3/Def2QZVP
 --------------------

 ---------
 butadiene
 ---------
 Symbolic Z-matrix:
 Charge =  0 Multiplicity = 1

                         Standard orientation:
 ---------------------------------------------------------------------
 Center     Atomic      Atomic             Coordinates (Angstroms)
 Number     Number       Type             X           Y           Z
 ---------------------------------------------------------------------
      1          6           0       -1.835383    0.101804    0.009230
      2          6           0       -0.605457   -0.376856   -0.044965
      3          6           0        0.610912    0.425326   -0.034706
      4          6           0        1.834765   -0.120804    0.027903
      5          1           0       -2.688839   -0.607747    0.101660
      6          1           0       -1.991178    1.160060    0.105596
      7          1           0       -0.477184   -1.429548   -0.076530
      8          1           0        0.434868    1.493230    0.008241
      9          1           0        1.909017   -1.227728    0.139240
     10          1           0        2.784293    0.434916   -0.022977
 ---------------------------------------------------------------------

 SCF Done:  E(RB2PLYPD3) =  -155.696235514     A.U. after   11 cycles
 E2(B2PLYPD3) =    -0.2259641354D+00 E(B2PLYPD3) =    -0.15592219964937D+03

 The electronic state is 1-A.
 Alpha  occ. eigenvalues --  -10.62762 -10.62330 -10.61903 -10.61432  -0.93149
 Alpha  occ. eigenvalues --   -0.84877  -0.69672  -0.64330  -0.54257  -0.53746
 Alpha  occ. eigenvalues --   -0.46804  -0.45358  -0.41019  -0.38103  -0.27780
 Alpha virt. eigenvalues --    0.01754   0.06941   0.07376   0.08034   0.09549
 Alpha virt. eigenvalues --    0.11723   0.12428   0.14563   0.15614   0.16247
 Alpha virt. eigenvalues --    0.18683   0.20023   0.21689   0.22576   0.24141

 Mulliken charges:
               1
     1  C   -0.177894
     2  C   -0.016423
     3  C   -0.041863
     4  C   -0.168781
     5  H    0.082724
     6  H    0.064636
     7  H    0.053948
     8  H    0.055491
     9  H    0.059803
    10  H    0.088360
 Sum of Mulliken charges =   0.00000

 Dipole moment (field-independent basis, Debye):
    X=              0.0499    Y=             -0.0090    Z=              0.1812  Tot=              0.1882
 Quadrupole moment (field-independent basis, Debye-Ang):
   XX=            -23.6599   YY=            -23.1840   ZZ=            -29.2562
   XY=             -0.0130   XZ=             -0.3064   YZ=             -0.0390

 1\1\GINC-NODE21\SP\RB2PLYPD3-FC\def2QZVP\C4H6\BOITTIER\26-Aug-2020\0\\
 #p B2PLYPD3/Def2QZVP\\butadiene\\0,1\C,0,-3.841,0.210239,0.036301\C,0,
 -2.716484,-0.48165,-0.002753\C,0,-1.376551,0.090581,-0.01963\C,0,-0.26
 9288,-0.662797,0.060286\H,0,-4.806668,-0.332313,0.152556\H,0,-3.805015
 ,1.281868,0.097793\H,0,-2.778141,-1.5408,0.000353\H,0,-1.359113,1.1735
 81,-0.011835\H,0,-0.39285,-1.761019,0.208034\H,0,0.763753,-0.28732,-0.
 009421\\Version=ES64L-G09RevD.01\State=1-A\HF=-155.6962355\MP2=-155.92
 21996\RMSD=5.665e-09\PG=C01 [X(C4H6)]\\@

 Normal termination of Gaussian 09 at Wed Aug 26 10:01:14 2020.
