 Gaussian 09, Revision D.01,
 Gaussian 09:  ES64L-G09RevD.01 24-Apr-2013

 --------------------
 #p B2PLYPD3/Def2QZVP
 --------------------

 ---------
 butadiene
 ---------
 Symbolic Z-matrix:
 Charge =  0 Multiplicity = 1

                         Standard orientation:
 ---------------------------------------------------------------------
 Center     Atomic      Atomic             Coordinates (Angstroms)
 Number     Number       Type             X           Y           Z
 ---------------------------------------------------------------------
      1          6           0       -1.817143    0.122135    0.032338
      2          6           0       -0.610731   -0.425011   -0.034334
      3          6           0        0.613371    0.396881   -0.073901
      4          6           0        1.837775   -0.104596    0.018190
      5          1           0       -2.702926   -0.491806    0.071642
      6          1           0       -1.949827    1.246696    0.066149
      7          1           0       -0.550343   -1.489395   -0.052915
      8          1           0        0.428490    1.471796    0.011573
      9          1           0        1.925321   -1.203280    0.114963
     10          1           0        2.709649    0.529532    0.134836
 ---------------------------------------------------------------------

 SCF Done:  E(RB2PLYPD3) =  -155.696181830     A.U. after   11 cycles
 E2(B2PLYPD3) =    -0.2258299851D+00 E(B2PLYPD3) =    -0.15592201181479D+03

 The electronic state is 1-A.
 Alpha  occ. eigenvalues --  -10.62608 -10.62304 -10.61768 -10.61624  -0.92945
 Alpha  occ. eigenvalues --   -0.85069  -0.69270  -0.63958  -0.54457  -0.53696
 Alpha  occ. eigenvalues --   -0.46686  -0.44987  -0.41014  -0.38068  -0.27966
 Alpha virt. eigenvalues --    0.02147   0.07041   0.07253   0.08057   0.09337
 Alpha virt. eigenvalues --    0.11728   0.12386   0.14413   0.15619   0.16300
 Alpha virt. eigenvalues --    0.18675   0.20167   0.21293   0.23064   0.24006

 Mulliken charges:
               1
     1  C   -0.170818
     2  C   -0.036111
     3  C   -0.028194
     4  C   -0.170895
     5  H    0.084418
     6  H    0.058677
     7  H    0.057216
     8  H    0.054637
     9  H    0.062329
    10  H    0.088740
 Sum of Mulliken charges =   0.00000

 Dipole moment (field-independent basis, Debye):
    X=             -0.0530    Y=             -0.0266    Z=              0.2436  Tot=              0.2507
 Quadrupole moment (field-independent basis, Debye-Ang):
   XX=            -23.8136   YY=            -23.0352   ZZ=            -29.2701
   XY=              0.1494   XZ=              0.3674   YZ=              0.0848

 1\1\GINC-NODE17\SP\RB2PLYPD3-FC\def2QZVP\C4H6\BOITTIER\26-Aug-2020\0\\
 #p B2PLYPD3/Def2QZVP\\butadiene\\0,1\C,0,-3.821455,0.228089,0.052863\C
 ,0,-2.730576,-0.524729,0.002944\C,0,-1.380544,0.067129,-0.048219\C,0,-
 0.264006,-0.640555,0.059722\H,0,-4.801762,-0.218862,0.100955\H,0,-3.75
 3491,1.358871,0.062729\H,0,-2.859084,-1.583207,0.006734\H,0,-1.372761,
 1.159367,0.014096\H,0,-0.371924,-1.735133,0.179672\H,0,0.706063,-0.167
 973,0.167064\\Version=ES64L-G09RevD.01\State=1-A\HF=-155.6961818\MP2=-
 155.9220118\RMSD=2.993e-09\PG=C01 [X(C4H6)]\\@

 Normal termination of Gaussian 09 at Wed Aug 26 10:35:26 2020.
