 Gaussian 09, Revision D.01,
 Gaussian 09:  ES64L-G09RevD.01 24-Apr-2013

 --------------------
 #p B2PLYPD3/Def2QZVP
 --------------------

 ---------
 butadiene
 ---------
 Symbolic Z-matrix:
 Charge =  0 Multiplicity = 1

                         Standard orientation:
 ---------------------------------------------------------------------
 Center     Atomic      Atomic             Coordinates (Angstroms)
 Number     Number       Type             X           Y           Z
 ---------------------------------------------------------------------
      1          6           0        1.858922   -0.105996   -0.028159
      2          6           0        0.601606    0.390038    0.015327
      3          6           0       -0.623853   -0.437973    0.047683
      4          6           0       -1.848556    0.122026   -0.019134
      5          1           0        2.663791    0.613924   -0.008772
      6          1           0        2.090459   -1.160994    0.027615
      7          1           0        0.474953    1.470164    0.019701
      8          1           0       -0.453403   -1.491520   -0.071642
      9          1           0       -1.951298    1.243945   -0.024576
     10          1           0       -2.753213   -0.484092   -0.036631
 ---------------------------------------------------------------------

 SCF Done:  E(RB2PLYPD3) =  -155.695837139     A.U. after   11 cycles
 E2(B2PLYPD3) =    -0.2267614956D+00 E(B2PLYPD3) =    -0.15592259863448D+03

 The electronic state is 1-A.
 Alpha  occ. eigenvalues --  -10.62942 -10.62881 -10.62461 -10.61615  -0.92345
 Alpha  occ. eigenvalues --   -0.84473  -0.69724  -0.64032  -0.54124  -0.53546
 Alpha  occ. eigenvalues --   -0.46376  -0.45773  -0.41122  -0.37577  -0.27560
 Alpha virt. eigenvalues --    0.01554   0.06968   0.07339   0.08078   0.09081
 Alpha virt. eigenvalues --    0.11681   0.12266   0.14595   0.15452   0.16218
 Alpha virt. eigenvalues --    0.18737   0.20126   0.21437   0.22847   0.24280

 Mulliken charges:
               1
     1  C   -0.183763
     2  C   -0.029408
     3  C   -0.043404
     4  C   -0.169343
     5  H    0.083273
     6  H    0.070883
     7  H    0.053836
     8  H    0.065293
     9  H    0.065081
    10  H    0.087554
 Sum of Mulliken charges =   0.00000

 Dipole moment (field-independent basis, Debye):
    X=             -0.0601    Y=             -0.0183    Z=             -0.0372  Tot=              0.0730
 Quadrupole moment (field-independent basis, Debye-Ang):
   XX=            -23.7465   YY=            -22.9353   ZZ=            -29.4838
   XY=             -0.1882   XZ=              0.2808   YZ=              0.0814

 1\1\GINC-NODE22\SP\RB2PLYPD3-FC\def2QZVP\C4H6\BOITTIER\26-Aug-2020\0\\
 #p B2PLYPD3/Def2QZVP\\butadiene\\0,1\C,0,-3.864148,0.219078,-0.008525\
 C,0,-2.716054,-0.493021,0.051295\C,0,-1.361697,0.102037,0.056081\C,0,-
 0.257833,-0.670692,0.007783\H,0,-4.785039,-0.343557,0.034787\H,0,-3.90
 221,1.299755,0.012245\H,0,-2.785319,-1.577604,0.091481\H,0,-1.340982,1
 .164605,-0.098108\H,0,-0.358181,-1.792392,0.039546\H,0,0.740807,-0.237
 808,-0.029874\\Version=ES64L-G09RevD.01\State=1-A\HF=-155.6958371\MP2=
 -155.9225986\RMSD=3.811e-09\PG=C01 [X(C4H6)]\\@

 Normal termination of Gaussian 09 at Wed Aug 26 08:57:33 2020.
