 Gaussian 09, Revision D.01,
 Gaussian 09:  ES64L-G09RevD.01 24-Apr-2013

 --------------------
 #p B2PLYPD3/Def2QZVP
 --------------------

 ---------
 butadiene
 ---------
 Symbolic Z-matrix:
 Charge =  0 Multiplicity = 1

                         Standard orientation:
 ---------------------------------------------------------------------
 Center     Atomic      Atomic             Coordinates (Angstroms)
 Number     Number       Type             X           Y           Z
 ---------------------------------------------------------------------
      1          6           0        1.810279   -0.121310   -0.033977
      2          6           0        0.558733    0.435107    0.037562
      3          6           0       -0.569377   -0.365730    0.033751
      4          6           0       -1.826053    0.050640   -0.020967
      5          1           0        2.695519    0.485883   -0.147100
      6          1           0        2.092319   -1.169186   -0.070288
      7          1           0        0.429753    1.489205    0.258436
      8          1           0       -0.345411   -1.409600    0.143659
      9          1           0       -2.016920    1.210670   -0.223746
     10          1           0       -2.696758   -0.599209   -0.059172
 ---------------------------------------------------------------------

 SCF Done:  E(RB2PLYPD3) =  -155.681395810     A.U. after   11 cycles
 E2(B2PLYPD3) =    -0.2274960174D+00 E(B2PLYPD3) =    -0.15590889182745D+03

 The electronic state is 1-A.
 Alpha  occ. eigenvalues --  -10.62745 -10.62442 -10.62265 -10.61593  -0.94073
 Alpha  occ. eigenvalues --   -0.84133  -0.70982  -0.63973  -0.55419  -0.52824
 Alpha  occ. eigenvalues --   -0.47093  -0.44445  -0.41368  -0.38253  -0.27015
 Alpha virt. eigenvalues --    0.00860   0.07062   0.07212   0.07935   0.09501
 Alpha virt. eigenvalues --    0.11540   0.12377   0.14653   0.15559   0.16161
 Alpha virt. eigenvalues --    0.18570   0.20171   0.21859   0.22720   0.23113

 Mulliken charges:
               1
     1  C   -0.181752
     2  C   -0.031567
     3  C   -0.018495
     4  C   -0.176233
     5  H    0.074978
     6  H    0.067840
     7  H    0.071571
     8  H    0.055401
     9  H    0.048227
    10  H    0.090029
 Sum of Mulliken charges =   0.00000

 Dipole moment (field-independent basis, Debye):
    X=              0.1523    Y=             -0.1139    Z=             -0.0241  Tot=              0.1917
 Quadrupole moment (field-independent basis, Debye-Ang):
   XX=            -23.5352   YY=            -23.4101   ZZ=            -29.1924
   XY=             -0.3060   XZ=              0.0739   YZ=             -0.0470

 1\1\GINC-NODE37\SP\RB2PLYPD3-FC\def2QZVP\C4H6\BOITTIER\26-Aug-2020\0\\
 #p B2PLYPD3/Def2QZVP\\butadiene\\0,1\C,0,-3.806166,0.258983,-0.015328\
 C,0,-2.68827,-0.530504,0.074694\C,0,-1.42463,0.032011,0.046806\C,0,-0.
 274807,-0.625146,0.006254\H,0,-4.794194,-0.165206,-0.110165\H,0,-3.876
 612,1.34025,-0.084673\H,0,-2.768133,-1.582032,0.328572\H,0,-1.438152,1
 .10243,0.123785\H,0,-0.317093,-1.805744,-0.159943\H,0,0.706565,-0.1609
 66,-0.051511\\Version=ES64L-G09RevD.01\State=1-A\HF=-155.6813958\MP2=-
 155.9088918\RMSD=9.027e-09\PG=C01 [X(C4H6)]\\@

 Normal termination of Gaussian 09 at Wed Aug 26 14:36:58 2020.
