 Gaussian 09, Revision D.01,
 Gaussian 09:  ES64L-G09RevD.01 24-Apr-2013

 --------------------
 #p B2PLYPD3/Def2QZVP
 --------------------

 ---------
 butadiene
 ---------
 Symbolic Z-matrix:
 Charge =  0 Multiplicity = 1

                         Standard orientation:
 ---------------------------------------------------------------------
 Center     Atomic      Atomic             Coordinates (Angstroms)
 Number     Number       Type             X           Y           Z
 ---------------------------------------------------------------------
      1          6           0       -1.815407    0.070286    0.039878
      2          6           0       -0.599819   -0.394126   -0.061086
      3          6           0        0.597086    0.496691   -0.052741
      4          6           0        1.823341   -0.137493    0.040083
      5          1           0       -2.654846   -0.569431   -0.098487
      6          1           0       -2.061536    1.160742    0.378861
      7          1           0       -0.446677   -1.498380   -0.108560
      8          1           0        0.385252    1.577509   -0.228008
      9          1           0        1.896327   -1.249201    0.225859
     10          1           0        2.850279    0.366614    0.033533
 ---------------------------------------------------------------------

 SCF Done:  E(RB2PLYPD3) =  -155.676940536     A.U. after   12 cycles
 E2(B2PLYPD3) =    -0.2280753740D+00 E(B2PLYPD3) =    -0.15590501590984D+03

 The electronic state is 1-A.
 Alpha  occ. eigenvalues --  -10.64275 -10.63614 -10.62615 -10.61453  -0.92392
 Alpha  occ. eigenvalues --   -0.84002  -0.68823  -0.63171  -0.54270  -0.52234
 Alpha  occ. eigenvalues --   -0.47020  -0.44137  -0.40638  -0.37215  -0.27539
 Alpha virt. eigenvalues --    0.01653   0.06820   0.07110   0.07737   0.08737
 Alpha virt. eigenvalues --    0.11444   0.12201   0.14347   0.15399   0.16488
 Alpha virt. eigenvalues --    0.18690   0.19530   0.21418   0.22048   0.23630

 Mulliken charges:
               1
     1  C   -0.178649
     2  C   -0.021197
     3  C   -0.055663
     4  C   -0.162110
     5  H    0.084157
     6  H    0.059162
     7  H    0.059020
     8  H    0.074820
     9  H    0.063705
    10  H    0.076755
 Sum of Mulliken charges =   0.00000

 Dipole moment (field-independent basis, Debye):
    X=              0.0164    Y=             -0.0695    Z=              0.0875  Tot=              0.1130
 Quadrupole moment (field-independent basis, Debye-Ang):
   XX=            -23.8815   YY=            -23.1719   ZZ=            -29.4083
   XY=             -0.3832   XZ=              0.0158   YZ=              0.0026

 1\1\GINC-NODE39\SP\RB2PLYPD3-FC\def2QZVP\C4H6\BOITTIER\26-Aug-2020\0\\
 #p B2PLYPD3/Def2QZVP\\butadiene\\0,1\C,0,-3.82406,0.190171,0.061991\C,
 0,-2.716518,-0.495514,-0.019936\C,0,-1.374885,0.15695,-0.042698\C,0,-0
 .287367,-0.69033,0.075316\H,0,-4.768496,-0.286953,-0.053915\H,0,-3.861
 417,1.319026,0.360109\H,0,-2.771518,-1.609972,-0.026373\H,0,-1.38311,1
 .251165,-0.258072\H,0,-0.421253,-1.788678,0.302124\H,0,0.815315,-0.386
 516,0.051694\\Version=ES64L-G09RevD.01\State=1-A\HF=-155.6769405\MP2=-
 155.9050159\RMSD=4.652e-09\PG=C01 [X(C4H6)]\\@

 Normal termination of Gaussian 09 at Wed Aug 26 12:14:20 2020.
