 Gaussian 09, Revision D.01,
 Gaussian 09:  ES64L-G09RevD.01 24-Apr-2013

 --------------------
 #p B2PLYPD3/Def2QZVP
 --------------------

 ---------
 butadiene
 ---------
 Symbolic Z-matrix:
 Charge =  0 Multiplicity = 1

                         Standard orientation:
 ---------------------------------------------------------------------
 Center     Atomic      Atomic             Coordinates (Angstroms)
 Number     Number       Type             X           Y           Z
 ---------------------------------------------------------------------
      1          6           0        1.858145    0.088932   -0.010333
      2          6           0        0.617621   -0.323055    0.004291
      3          6           0       -0.610144    0.425410    0.048566
      4          6           0       -1.861701   -0.134453   -0.062039
      5          1           0        2.627475   -0.655589    0.123969
      6          1           0        2.110030    1.038749   -0.176420
      7          1           0        0.533632   -1.414199    0.048133
      8          1           0       -0.481212    1.541147    0.010344
      9          1           0       -1.928162   -1.219812   -0.072726
     10          1           0       -2.885287    0.368697    0.183793
 ---------------------------------------------------------------------

 SCF Done:  E(RB2PLYPD3) =  -155.677841598     A.U. after   12 cycles
 E2(B2PLYPD3) =    -0.2269976170D+00 E(B2PLYPD3) =    -0.15590483921532D+03

 The electronic state is 1-A.
 Alpha  occ. eigenvalues --  -10.63881 -10.63342 -10.62035 -10.60229  -0.93179
 Alpha  occ. eigenvalues --   -0.84990  -0.70546  -0.64016  -0.54702  -0.53826
 Alpha  occ. eigenvalues --   -0.46835  -0.45120  -0.40801  -0.37883  -0.27663
 Alpha virt. eigenvalues --    0.00748   0.06828   0.07555   0.07754   0.09782
 Alpha virt. eigenvalues --    0.11552   0.12488   0.14645   0.15564   0.16181
 Alpha virt. eigenvalues --    0.18843   0.19923   0.21880   0.22055   0.24180

 Mulliken charges:
               1
     1  C   -0.182896
     2  C    0.000545
     3  C   -0.053207
     4  C   -0.156146
     5  H    0.083538
     6  H    0.071793
     7  H    0.041160
     8  H    0.055068
     9  H    0.060921
    10  H    0.079224
 Sum of Mulliken charges =   0.00000

 Dipole moment (field-independent basis, Debye):
    X=              0.0620    Y=             -0.0312    Z=              0.1177  Tot=              0.1367
 Quadrupole moment (field-independent basis, Debye-Ang):
   XX=            -23.2481   YY=            -23.4975   ZZ=            -29.2080
   XY=              0.2202   XZ=             -0.4696   YZ=             -0.1948

 1\1\GINC-NODE22\SP\RB2PLYPD3-FC\def2QZVP\C4H6\BOITTIER\26-Aug-2020\0\\
 #p B2PLYPD3/Def2QZVP\\butadiene\\0,1\C,0,-3.866786,0.192602,0.035537\C
 ,0,-2.717572,-0.430334,0.025349\C,0,-1.378075,0.090796,-0.035782\C,0,-
 0.243153,-0.67743,0.081928\H,0,-4.755256,-0.408033,-0.083111\H,0,-3.94
 767,1.174625,0.184775\H,0,-2.826019,-1.519937,0.001357\H,0,-1.309606,1
 .212375,-0.017748\H,0,-0.367534,-1.757308,0.112394\H,0,0.851251,-0.365
 613,-0.1757\\Version=ES64L-G09RevD.01\State=1-A\HF=-155.6778416\MP2=-1
 55.9048392\RMSD=4.675e-09\PG=C01 [X(C4H6)]\\@

 Normal termination of Gaussian 09 at Wed Aug 26 12:37:22 2020.
