 Gaussian 09, Revision D.01,
 Gaussian 09:  ES64L-G09RevD.01 24-Apr-2013

 --------------------
 #p B2PLYPD3/Def2QZVP
 --------------------

 ---------
 butadiene
 ---------
 Symbolic Z-matrix:
 Charge =  0 Multiplicity = 1

                         Standard orientation:
 ---------------------------------------------------------------------
 Center     Atomic      Atomic             Coordinates (Angstroms)
 Number     Number       Type             X           Y           Z
 ---------------------------------------------------------------------
      1          6           0        1.826733   -0.111132   -0.022333
      2          6           0        0.597539    0.398365    0.024640
      3          6           0       -0.595961   -0.391306    0.033621
      4          6           0       -1.824562    0.109154   -0.042847
      5          1           0        2.735720    0.527213   -0.056314
      6          1           0        1.866868   -1.221646   -0.023923
      7          1           0        0.474292    1.476368    0.027767
      8          1           0       -0.444325   -1.464915    0.088255
      9          1           0       -1.992055    1.207785    0.070984
     10          1           0       -2.662991   -0.555294   -0.065252
 ---------------------------------------------------------------------

 SCF Done:  E(RB2PLYPD3) =  -155.695972420     A.U. after   11 cycles
 E2(B2PLYPD3) =    -0.2261769934D+00 E(B2PLYPD3) =    -0.15592214941338D+03

 The electronic state is 1-A.
 Alpha  occ. eigenvalues --  -10.62248 -10.62121 -10.61987 -10.61638  -0.93522
 Alpha  occ. eigenvalues --   -0.84934  -0.69801  -0.63835  -0.54382  -0.53756
 Alpha  occ. eigenvalues --   -0.46545  -0.45101  -0.41338  -0.38361  -0.27650
 Alpha virt. eigenvalues --    0.01731   0.07009   0.07242   0.07986   0.09714
 Alpha virt. eigenvalues --    0.11764   0.12369   0.14562   0.15746   0.16077
 Alpha virt. eigenvalues --    0.18539   0.20391   0.21108   0.22865   0.24266

 Mulliken charges:
               1
     1  C   -0.177759
     2  C   -0.018011
     3  C   -0.027996
     4  C   -0.177060
     5  H    0.092074
     6  H    0.059029
     7  H    0.048296
     8  H    0.048292
     9  H    0.066980
    10  H    0.086155
 Sum of Mulliken charges =   0.00000

 Dipole moment (field-independent basis, Debye):
    X=             -0.0143    Y=              0.0155    Z=              0.0824  Tot=              0.0850
 Quadrupole moment (field-independent basis, Debye-Ang):
   XX=            -23.8289   YY=            -23.1150   ZZ=            -29.2711
   XY=              0.2287   XZ=             -0.2016   YZ=              0.0611

 1\1\GINC-NODE28\SP\RB2PLYPD3-FC\def2QZVP\C4H6\BOITTIER\26-Aug-2020\0\\
 #p B2PLYPD3/Def2QZVP\\butadiene\\0,1\C,0,-3.828629,0.222608,-0.006753\
 C,0,-2.711064,-0.497891,0.061382\C,0,-1.394936,0.064022,0.048586\C,0,-
 0.276627,-0.651569,-0.006952\H,0,-4.837721,-0.242547,-0.022916\H,0,-3.
 668291,1.321551,-0.045097\H,0,-2.783793,-1.579774,0.100487\H,0,-1.3507
 83,1.148603,0.067254\H,0,-0.309276,-1.758031,0.143635\H,0,0.667619,-0.
 149921,-0.048256\\Version=ES64L-G09RevD.01\State=1-A\HF=-155.6959724\M
 P2=-155.9221494\RMSD=4.275e-09\PG=C01 [X(C4H6)]\\@

 Normal termination of Gaussian 09 at Wed Aug 26 22:14:06 2020.
