 Gaussian 09, Revision D.01,
 Gaussian 09:  ES64L-G09RevD.01 24-Apr-2013

 --------------------
 #p B2PLYPD3/Def2QZVP
 --------------------

 ---------
 butadiene
 ---------
 Symbolic Z-matrix:
 Charge =  0 Multiplicity = 1

                         Standard orientation:
 ---------------------------------------------------------------------
 Center     Atomic      Atomic             Coordinates (Angstroms)
 Number     Number       Type             X           Y           Z
 ---------------------------------------------------------------------
      1          6           0       -1.855819    0.087392    0.028850
      2          6           0       -0.588048   -0.364869   -0.046773
      3          6           0        0.614384    0.421890   -0.063189
      4          6           0        1.843844   -0.124764    0.031528
      5          1           0       -2.677050   -0.576412    0.101437
      6          1           0       -2.115780    1.118074    0.057659
      7          1           0       -0.488950   -1.428223   -0.035988
      8          1           0        0.431114    1.464867    0.011238
      9          1           0        1.989990   -1.191910    0.052563
     10          1           0        2.774506    0.495708    0.110598
 ---------------------------------------------------------------------

 SCF Done:  E(RB2PLYPD3) =  -155.696313496     A.U. after   11 cycles
 E2(B2PLYPD3) =    -0.2261332792D+00 E(B2PLYPD3) =    -0.15592244677527D+03

 The electronic state is 1-A.
 Alpha  occ. eigenvalues --  -10.62614 -10.62386 -10.62272 -10.61147  -0.93072
 Alpha  occ. eigenvalues --   -0.84623  -0.70788  -0.64657  -0.54634  -0.53988
 Alpha  occ. eigenvalues --   -0.47121  -0.45465  -0.41302  -0.38117  -0.27374
 Alpha virt. eigenvalues --    0.01207   0.06948   0.07570   0.08108   0.09627
 Alpha virt. eigenvalues --    0.11634   0.12470   0.14836   0.15761   0.16259
 Alpha virt. eigenvalues --    0.18886   0.20321   0.21711   0.22655   0.24016

 Mulliken charges:
               1
     1  C   -0.183163
     2  C   -0.019237
     3  C   -0.042862
     4  C   -0.168448
     5  H    0.083562
     6  H    0.061272
     7  H    0.052004
     8  H    0.064439
     9  H    0.071090
    10  H    0.081343
 Sum of Mulliken charges =   0.00000

 Dipole moment (field-independent basis, Debye):
    X=              0.0365    Y=             -0.0120    Z=              0.1940  Tot=              0.1978
 Quadrupole moment (field-independent basis, Debye-Ang):
   XX=            -23.2773   YY=            -23.2231   ZZ=            -29.2642
   XY=             -0.3054   XZ=              0.0470   YZ=              0.0534

 1\1\GINC-NODE33\SP\RB2PLYPD3-FC\def2QZVP\C4H6\BOITTIER\26-Aug-2020\0\\
 #p B2PLYPD3/Def2QZVP\\butadiene\\0,1\C,0,-3.862966,0.209188,0.052883\C
 ,0,-2.69937,-0.469044,-0.006681\C,0,-1.373546,0.084037,-0.044\C,0,-0.2
 64273,-0.674923,0.069426\H,0,-4.791357,-0.291021,0.143475\H,0,-3.93023
 6,1.270406,0.050535\H,0,-2.796089,-1.53182,0.035886\H,0,-1.363013,1.14
 4681,-0.000959\H,0,-0.315392,-1.749715,0.122447\H,0,0.764313,-0.232799
 ,0.131935\\Version=ES64L-G09RevD.01\State=1-A\HF=-155.6963135\MP2=-155
 .9224468\RMSD=6.532e-09\PG=C01 [X(C4H6)]\\@

 Normal termination of Gaussian 09 at Wed Aug 26 09:43:09 2020.
