 Gaussian 09, Revision D.01,
 Gaussian 09:  ES64L-G09RevD.01 24-Apr-2013

 --------------------
 #p B2PLYPD3/Def2QZVP
 --------------------

 ---------
 butadiene
 ---------
 Symbolic Z-matrix:
 Charge =  0 Multiplicity = 1

                         Standard orientation:
 ---------------------------------------------------------------------
 Center     Atomic      Atomic             Coordinates (Angstroms)
 Number     Number       Type             X           Y           Z
 ---------------------------------------------------------------------
      1          6           0        1.861985    0.089742    0.032842
      2          6           0        0.607296   -0.378465   -0.070104
      3          6           0       -0.622499    0.430571   -0.042649
      4          6           0       -1.845787   -0.135067    0.016511
      5          1           0        2.658569   -0.554042    0.145965
      6          1           0        2.046438    1.140008    0.030151
      7          1           0        0.472820   -1.434892   -0.039204
      8          1           0       -0.493273    1.521678    0.023381
      9          1           0       -1.982909   -1.205781    0.121906
     10          1           0       -2.707618    0.492348    0.098193
 ---------------------------------------------------------------------

 SCF Done:  E(RB2PLYPD3) =  -155.696556033     A.U. after   11 cycles
 E2(B2PLYPD3) =    -0.2258593961D+00 E(B2PLYPD3) =    -0.15592241542946D+03

 The electronic state is 1-A.
 Alpha  occ. eigenvalues --  -10.63172 -10.62420 -10.61724 -10.60824  -0.92552
 Alpha  occ. eigenvalues --   -0.84945  -0.70480  -0.64178  -0.54807  -0.54067
 Alpha  occ. eigenvalues --   -0.46955  -0.45890  -0.41392  -0.37669  -0.27570
 Alpha virt. eigenvalues --    0.01538   0.07046   0.07462   0.08170   0.09336
 Alpha virt. eigenvalues --    0.11697   0.12481   0.14754   0.15898   0.16182
 Alpha virt. eigenvalues --    0.18892   0.20384   0.21657   0.23115   0.23862

 Mulliken charges:
               1
     1  C   -0.182341
     2  C   -0.025290
     3  C   -0.042663
     4  C   -0.172151
     5  H    0.089708
     6  H    0.065818
     7  H    0.055045
     8  H    0.056566
     9  H    0.070320
    10  H    0.084987
 Sum of Mulliken charges =   0.00000

 Dipole moment (field-independent basis, Debye):
    X=             -0.0195    Y=             -0.0065    Z=              0.2805  Tot=              0.2813
 Quadrupole moment (field-independent basis, Debye-Ang):
   XX=            -23.5632   YY=            -23.0053   ZZ=            -29.2577
   XY=              0.1317   XZ=             -0.0539   YZ=             -0.1039

 1\1\GINC-NODE15\SP\RB2PLYPD3-FC\def2QZVP\C4H6\BOITTIER\26-Aug-2020\0\\
 #p B2PLYPD3/Def2QZVP\\butadiene\\0,1\C,0,-3.86846,0.204976,-0.018908\C
 ,0,-2.717426,-0.477893,0.094538\C,0,-1.362886,0.097552,0.052401\C,0,-0
 .260572,-0.67872,0.005661\H,0,-4.76758,-0.288113,-0.120134\H,0,-3.8621
 84,1.271146,-0.037114\H,0,-2.774046,-1.54174,0.084611\H,0,-1.295145,1.
 192678,-0.035261\H,0,-0.31733,-1.758554,-0.078462\H,0,0.699328,-0.2172
 13,-0.087489\\Version=ES64L-G09RevD.01\State=1-A\HF=-155.696556\MP2=-1
 55.9224154\RMSD=5.676e-09\PG=C01 [X(C4H6)]\\@

 Normal termination of Gaussian 09 at Wed Aug 26 09:06:19 2020.
