 Gaussian 09, Revision D.01,
 Gaussian 09:  ES64L-G09RevD.01 24-Apr-2013

 --------------------
 #p B2PLYPD3/Def2QZVP
 --------------------

 ---------
 butadiene
 ---------
 Symbolic Z-matrix:
 Charge =  0 Multiplicity = 1

                         Standard orientation:
 ---------------------------------------------------------------------
 Center     Atomic      Atomic             Coordinates (Angstroms)
 Number     Number       Type             X           Y           Z
 ---------------------------------------------------------------------
      1          6           0       -1.845913   -0.138736   -0.016868
      2          6           0       -0.630382    0.430611    0.014656
      3          6           0        0.604458   -0.366319   -0.004168
      4          6           0        1.865031    0.090095   -0.032770
      5          1           0       -2.723369    0.459593    0.059148
      6          1           0       -1.987063   -1.228424   -0.089659
      7          1           0       -0.560346    1.517880    0.057217
      8          1           0        0.552065   -1.458353    0.144172
      9          1           0        2.022901    1.128271   -0.014891
     10          1           0        2.736650   -0.512872    0.078911
 ---------------------------------------------------------------------

 SCF Done:  E(RB2PLYPD3) =  -155.695738818     A.U. after   11 cycles
 E2(B2PLYPD3) =    -0.2259985438D+00 E(B2PLYPD3) =    -0.15592173736156D+03

 The electronic state is 1-A.
 Alpha  occ. eigenvalues --  -10.63168 -10.62845 -10.61839 -10.60900  -0.92547
 Alpha  occ. eigenvalues --   -0.85059  -0.70204  -0.63923  -0.54683  -0.54197
 Alpha  occ. eigenvalues --   -0.46946  -0.45139  -0.41249  -0.37654  -0.27751
 Alpha virt. eigenvalues --    0.01571   0.07058   0.07498   0.07930   0.09464
 Alpha virt. eigenvalues --    0.11574   0.12540   0.14518   0.15801   0.16464
 Alpha virt. eigenvalues --    0.18955   0.20263   0.21694   0.22614   0.23810

 Mulliken charges:
               1
     1  C   -0.166061
     2  C   -0.050491
     3  C   -0.021895
     4  C   -0.174966
     5  H    0.086373
     6  H    0.070515
     7  H    0.060139
     8  H    0.052549
     9  H    0.058230
    10  H    0.085609
 Sum of Mulliken charges =   0.00000

 Dipole moment (field-independent basis, Debye):
    X=             -0.0811    Y=              0.0383    Z=              0.2214  Tot=              0.2389
 Quadrupole moment (field-independent basis, Debye-Ang):
   XX=            -23.2176   YY=            -23.1920   ZZ=            -29.2814
   XY=             -0.0593   XZ=              0.2976   YZ=             -0.0259

 1\1\GINC-NODE29\SP\RB2PLYPD3-FC\def2QZVP\C4H6\BOITTIER\26-Aug-2020\0\\
 #p B2PLYPD3/Def2QZVP\\butadiene\\0,1\C,0,-3.844741,0.242075,0.033142\C
 ,0,-2.745967,-0.529383,0.018518\C,0,-1.391991,0.042446,0.012201\C,0,-0
 .229005,-0.623795,0.05418\H,0,-4.81275,-0.197696,-0.023994\H,0,-3.7952
 08,1.341458,0.072467\H,0,-2.864952,-1.613186,0.009371\H,0,-1.255915,1.
 122128,-0.169618\H,0,-0.252856,-1.673694,0.068148\H,0,0.732965,-0.1841
 17,-0.076432\\Version=ES64L-G09RevD.01\State=1-A\HF=-155.6957388\MP2=-
 155.9217374\RMSD=6.375e-09\PG=C01 [X(C4H6)]\\@

 Normal termination of Gaussian 09 at Wed Aug 26 10:30:49 2020.
