 Gaussian 09, Revision D.01,
 Gaussian 09:  ES64L-G09RevD.01 24-Apr-2013

 --------------------
 #p B2PLYPD3/Def2QZVP
 --------------------

 ---------
 butadiene
 ---------
 Symbolic Z-matrix:
 Charge =  0 Multiplicity = 1

                         Standard orientation:
 ---------------------------------------------------------------------
 Center     Atomic      Atomic             Coordinates (Angstroms)
 Number     Number       Type             X           Y           Z
 ---------------------------------------------------------------------
      1          6           0       -1.829382    0.110400    0.017441
      2          6           0       -0.605776   -0.394386   -0.036530
      3          6           0        0.603153    0.412251   -0.027900
      4          6           0        1.824071   -0.119605    0.033130
      5          1           0       -2.653851   -0.557984    0.073728
      6          1           0       -2.010262    1.167356    0.012834
      7          1           0       -0.470462   -1.448966   -0.020271
      8          1           0        0.502803    1.496328    0.010790
      9          1           0        1.935993   -1.203278    0.016239
     10          1           0        2.743375    0.494578   -0.010165
 ---------------------------------------------------------------------

 SCF Done:  E(RB2PLYPD3) =  -155.699854073     A.U. after   11 cycles
 E2(B2PLYPD3) =    -0.2253725190D+00 E(B2PLYPD3) =    -0.15592522659220D+03

 The electronic state is 1-A.
 Alpha  occ. eigenvalues --  -10.62420 -10.62048 -10.61708 -10.60957  -0.93209
 Alpha  occ. eigenvalues --   -0.85096  -0.69878  -0.64314  -0.54499  -0.54189
 Alpha  occ. eigenvalues --   -0.46516  -0.45686  -0.41280  -0.38221  -0.27757
 Alpha virt. eigenvalues --    0.01955   0.07025   0.07438   0.08065   0.09582
 Alpha virt. eigenvalues --    0.11772   0.12432   0.14721   0.15795   0.16174
 Alpha virt. eigenvalues --    0.18714   0.20190   0.21647   0.22975   0.24180

 Mulliken charges:
               1
     1  C   -0.178411
     2  C   -0.030105
     3  C   -0.030651
     4  C   -0.172916
     5  H    0.084886
     6  H    0.070461
     7  H    0.056784
     8  H    0.055205
     9  H    0.061325
    10  H    0.083423
 Sum of Mulliken charges =   0.00000

 Dipole moment (field-independent basis, Debye):
    X=             -0.0163    Y=             -0.0035    Z=              0.0275  Tot=              0.0322
 Quadrupole moment (field-independent basis, Debye-Ang):
   XX=            -23.6922   YY=            -22.9878   ZZ=            -29.2052
   XY=             -0.0426   XZ=             -0.2451   YZ=             -0.0261

 1\1\GINC-NODE28\SP\RB2PLYPD3-FC\def2QZVP\C4H6\BOITTIER\26-Aug-2020\0\\
 #p B2PLYPD3/Def2QZVP\\butadiene\\0,1\C,0,-3.831478,0.220175,0.040576\C
 ,0,-2.718039,-0.496552,0.001988\C,0,-1.384438,0.080936,-0.014232\C,0,-
 0.277838,-0.658465,0.062957\H,0,-4.761751,-0.288101,0.117406\H,0,-3.82
 0673,1.291814,0.003585\H,0,-2.773188,-1.55736,0.050556\H,0,-1.289314,1
 .16616,-0.008784\H,0,-0.361384,-1.744703,0.079285\H,0,0.736133,-0.2200
 5,0.000766\\Version=ES64L-G09RevD.01\State=1-A\HF=-155.6998541\MP2=-15
 5.9252266\RMSD=3.944e-09\PG=C01 [X(C4H6)]\\@

 Normal termination of Gaussian 09 at Wed Aug 26 18:59:51 2020.
