 Gaussian 09, Revision D.01,
 Gaussian 09:  ES64L-G09RevD.01 24-Apr-2013

 --------------------
 #p B2PLYPD3/Def2QZVP
 --------------------

 ---------
 butadiene
 ---------
 Symbolic Z-matrix:
 Charge =  0 Multiplicity = 1

                         Standard orientation:
 ---------------------------------------------------------------------
 Center     Atomic      Atomic             Coordinates (Angstroms)
 Number     Number       Type             X           Y           Z
 ---------------------------------------------------------------------
      1          6           0        1.833176   -0.119555   -0.021824
      2          6           0        0.603458    0.415456    0.009600
      3          6           0       -0.603052   -0.385023    0.020818
      4          6           0       -1.839311    0.095661   -0.006418
      5          1           0        2.767079    0.477203    0.054968
      6          1           0        1.979795   -1.182134   -0.027220
      7          1           0        0.474030    1.481897   -0.001758
      8          1           0       -0.470643   -1.469222    0.012646
      9          1           0       -1.985364    1.184144   -0.030602
     10          1           0       -2.730518   -0.531122   -0.021096
 ---------------------------------------------------------------------

 SCF Done:  E(RB2PLYPD3) =  -155.699571800     A.U. after   11 cycles
 E2(B2PLYPD3) =    -0.2258910256D+00 E(B2PLYPD3) =    -0.15592546282602D+03

 The electronic state is 1-A.
 Alpha  occ. eigenvalues --  -10.62627 -10.62390 -10.61891 -10.61614  -0.93124
 Alpha  occ. eigenvalues --   -0.84832  -0.69996  -0.64166  -0.54601  -0.53732
 Alpha  occ. eigenvalues --   -0.46951  -0.45067  -0.41087  -0.38240  -0.27701
 Alpha virt. eigenvalues --    0.01678   0.06981   0.07411   0.08008   0.09630
 Alpha virt. eigenvalues --    0.11648   0.12524   0.14554   0.15884   0.16162
 Alpha virt. eigenvalues --    0.18801   0.20438   0.21648   0.22766   0.23678

 Mulliken charges:
               1
     1  C   -0.169786
     2  C   -0.035603
     3  C   -0.022713
     4  C   -0.175027
     5  H    0.081094
     6  H    0.065241
     7  H    0.058603
     8  H    0.050652
     9  H    0.058944
    10  H    0.088595
 Sum of Mulliken charges =   0.00000

 Dipole moment (field-independent basis, Debye):
    X=              0.0175    Y=             -0.0202    Z=              0.0094  Tot=              0.0284
 Quadrupole moment (field-independent basis, Debye-Ang):
   XX=            -23.3602   YY=            -23.2271   ZZ=            -29.2897
   XY=             -0.0987   XZ=              0.2489   YZ=              0.0316

 1\1\GINC-NODE21\SP\RB2PLYPD3-FC\def2QZVP\C4H6\BOITTIER\26-Aug-2020\0\\
 #p B2PLYPD3/Def2QZVP\\butadiene\\0,1\C,0,-3.834665,0.231469,-0.000594\
 C,0,-2.720713,-0.514362,0.04713\C,0,-1.390133,0.056538,0.033461\C,0,-0
 .260334,-0.638826,0.020876\H,0,-4.860019,-0.185373,0.094716\H,0,-3.788
 317,1.302448,-0.038747\H,0,-2.784762,-1.586562,0.068658\H,0,-1.325943,
 1.146142,-0.008136\H,0,-0.312055,-1.736072,0.030261\H,0,0.728756,-0.18
 2914,-0.01327\\Version=ES64L-G09RevD.01\State=1-A\HF=-155.6995718\MP2=
 -155.9254628\RMSD=5.201e-09\PG=C01 [X(C4H6)]\\@

 Normal termination of Gaussian 09 at Wed Aug 26 20:18:56 2020.
