 Gaussian 09, Revision D.01,
 Gaussian 09:  ES64L-G09RevD.01 24-Apr-2013

 --------------------
 #p B2PLYPD3/Def2QZVP
 --------------------

 ---------
 butadiene
 ---------
 Symbolic Z-matrix:
 Charge =  0 Multiplicity = 1

                         Standard orientation:
 ---------------------------------------------------------------------
 Center     Atomic      Atomic             Coordinates (Angstroms)
 Number     Number       Type             X           Y           Z
 ---------------------------------------------------------------------
      1          6           0        1.843718   -0.113630   -0.020988
      2          6           0        0.608900    0.406692    0.017525
      3          6           0       -0.601616   -0.381462    0.009240
      4          6           0       -1.836710    0.096606   -0.015351
      5          1           0        2.703563    0.516203   -0.005809
      6          1           0        2.003395   -1.185578   -0.028615
      7          1           0        0.438221    1.483252    0.096833
      8          1           0       -0.469203   -1.467627    0.048786
      9          1           0       -2.064827    1.155164   -0.093548
     10          1           0       -2.696900   -0.550654    0.039802
 ---------------------------------------------------------------------

 SCF Done:  E(RB2PLYPD3) =  -155.700558040     A.U. after   11 cycles
 E2(B2PLYPD3) =    -0.2255829799D+00 E(B2PLYPD3) =    -0.15592614102033D+03

 The electronic state is 1-A.
 Alpha  occ. eigenvalues --  -10.62650 -10.62313 -10.61563 -10.61336  -0.93102
 Alpha  occ. eigenvalues --   -0.85000  -0.70510  -0.63838  -0.54898  -0.53814
 Alpha  occ. eigenvalues --   -0.46978  -0.45667  -0.40852  -0.38189  -0.27723
 Alpha virt. eigenvalues --    0.01649   0.07026   0.07391   0.08075   0.09758
 Alpha virt. eigenvalues --    0.11659   0.12413   0.14833   0.15796   0.16147
 Alpha virt. eigenvalues --    0.18832   0.20484   0.21757   0.22580   0.23739

 Mulliken charges:
               1
     1  C   -0.176242
     2  C   -0.035529
     3  C   -0.019702
     4  C   -0.176932
     5  H    0.088734
     6  H    0.068500
     7  H    0.054392
     8  H    0.049448
     9  H    0.062866
    10  H    0.084465
 Sum of Mulliken charges =   0.00000

 Dipole moment (field-independent basis, Debye):
    X=              0.0013    Y=              0.0044    Z=              0.0645  Tot=              0.0647
 Quadrupole moment (field-independent basis, Debye-Ang):
   XX=            -23.3444   YY=            -23.1928   ZZ=            -29.2192
   XY=             -0.2609   XZ=              0.0186   YZ=             -0.0501

 1\1\GINC-NODE25\SP\RB2PLYPD3-FC\def2QZVP\C4H6\BOITTIER\26-Aug-2020\0\\
 #p B2PLYPD3/Def2QZVP\\butadiene\\0,1\C,0,-3.842175,0.23374,-0.000624\C
 ,0,-2.723175,-0.502342,0.05431\C,0,-1.388998,0.050618,0.02581\C,0,-0.2
 62231,-0.645743,0.016483\H,0,-4.802622,-0.227565,0.030869\H,0,-3.80319
 4,1.316179,-0.038489\H,0,-2.751923,-1.589333,0.163974\H,0,-1.320443,1.
 143354,0.034743\H,0,-0.231789,-1.729924,-0.031713\H,0,0.701997,-0.1654
 2,0.054807\\Version=ES64L-G09RevD.01\State=1-A\HF=-155.700558\MP2=-155
 .926141\RMSD=5.720e-09\PG=C01 [X(C4H6)]\\@

 Normal termination of Gaussian 09 at Wed Aug 26 11:57:36 2020.
