 Gaussian 09, Revision D.01,
 Gaussian 09:  ES64L-G09RevD.01 24-Apr-2013

 --------------------
 #p B2PLYPD3/Def2QZVP
 --------------------

 ---------
 butadiene
 ---------
 Symbolic Z-matrix:
 Charge =  0 Multiplicity = 1

                         Standard orientation:
 ---------------------------------------------------------------------
 Center     Atomic      Atomic             Coordinates (Angstroms)
 Number     Number       Type             X           Y           Z
 ---------------------------------------------------------------------
      1          6           0        1.840185    0.100957    0.019124
      2          6           0        0.602530   -0.397624   -0.018511
      3          6           0       -0.605172    0.419927   -0.032979
      4          6           0       -1.832393   -0.118521    0.029203
      5          1           0        2.693112   -0.548908    0.054073
      6          1           0        2.006045    1.176980    0.012770
      7          1           0        0.437251   -1.480382   -0.052891
      8          1           0       -0.463864    1.491117   -0.032330
      9          1           0       -2.013411   -1.173790   -0.008185
     10          1           0       -2.690036    0.506550    0.045537
 ---------------------------------------------------------------------

 SCF Done:  E(RB2PLYPD3) =  -155.700623454     A.U. after   11 cycles
 E2(B2PLYPD3) =    -0.2256883418D+00 E(B2PLYPD3) =    -0.15592631179575D+03

 The electronic state is 1-A.
 Alpha  occ. eigenvalues --  -10.62622 -10.62537 -10.61407 -10.61280  -0.92886
 Alpha  occ. eigenvalues --   -0.84861  -0.70277  -0.64105  -0.54662  -0.53926
 Alpha  occ. eigenvalues --   -0.46760  -0.45851  -0.41215  -0.37982  -0.27608
 Alpha virt. eigenvalues --    0.01767   0.07045   0.07365   0.08144   0.09466
 Alpha virt. eigenvalues --    0.11715   0.12432   0.14804   0.15856   0.16122
 Alpha virt. eigenvalues --    0.18752   0.20439   0.21724   0.23095   0.23799

 Mulliken charges:
               1
     1  C   -0.180261
     2  C   -0.025636
     3  C   -0.035066
     4  C   -0.175419
     5  H    0.088178
     6  H    0.065617
     7  H    0.052786
     8  H    0.057518
     9  H    0.068854
    10  H    0.083429
 Sum of Mulliken charges =   0.00000

 Dipole moment (field-independent basis, Debye):
    X=             -0.0406    Y=             -0.0017    Z=             -0.0204  Tot=              0.0454
 Quadrupole moment (field-independent basis, Debye-Ang):
   XX=            -23.5693   YY=            -22.9952   ZZ=            -29.2762
   XY=              0.2529   XZ=              0.0542   YZ=              0.0474

 1\1\GINC-NODE31\SP\RB2PLYPD3-FC\def2QZVP\C4H6\BOITTIER\26-Aug-2020\0\\
 #p B2PLYPD3/Def2QZVP\\butadiene\\0,1\C,0,-3.842559,0.219239,-0.002182\
 C,0,-2.716661,-0.495573,0.05427\C,0,-1.379914,0.087674,0.045724\C,0,-0
 .271895,-0.667566,0.003649\H,0,-4.799945,-0.264678,-0.018565\H,0,-3.80
 9083,1.307108,-0.030384\H,0,-2.751799,-1.588665,0.123398\H,0,-1.323205
 ,1.166088,0.010735\H,0,-0.286528,-1.736426,0.07495\H,0,0.685424,-0.210
 498,-0.030426\\Version=ES64L-G09RevD.01\State=1-A\HF=-155.7006235\MP2=
 -155.9263118\RMSD=5.698e-09\PG=C01 [X(C4H6)]\\@

 Normal termination of Gaussian 09 at Wed Aug 26 16:16:37 2020.
