 Gaussian 09, Revision D.01,
 Gaussian 09:  ES64L-G09RevD.01 24-Apr-2013

 --------------------
 #p B2PLYPD3/Def2QZVP
 --------------------

 ---------
 butadiene
 ---------
 Symbolic Z-matrix:
 Charge =  0 Multiplicity = 1

                         Standard orientation:
 ---------------------------------------------------------------------
 Center     Atomic      Atomic             Coordinates (Angstroms)
 Number     Number       Type             X           Y           Z
 ---------------------------------------------------------------------
      1          6           0       -1.827254    0.081552    0.026357
      2          6           0       -0.587674   -0.385595   -0.034478
      3          6           0        0.598023    0.431995   -0.006902
      4          6           0        1.818156   -0.125742    0.008300
      5          1           0       -2.677041   -0.536077    0.047062
      6          1           0       -2.106998    1.140742    0.078974
      7          1           0       -0.385342   -1.466585   -0.163803
      8          1           0        0.492889    1.534255   -0.111090
      9          1           0        1.984757   -1.205937    0.174717
     10          1           0        2.684235    0.520341    0.014477
 ---------------------------------------------------------------------

 SCF Done:  E(RB2PLYPD3) =  -155.695743388     A.U. after   11 cycles
 E2(B2PLYPD3) =    -0.2261122460D+00 E(B2PLYPD3) =    -0.15592185563437D+03

 The electronic state is 1-A.
 Alpha  occ. eigenvalues --  -10.62771 -10.62558 -10.61790 -10.61137  -0.93152
 Alpha  occ. eigenvalues --   -0.84787  -0.70337  -0.63546  -0.55060  -0.53443
 Alpha  occ. eigenvalues --   -0.46592  -0.45270  -0.41031  -0.38098  -0.27610
 Alpha virt. eigenvalues --    0.01710   0.07116   0.07211   0.07987   0.09418
 Alpha virt. eigenvalues --    0.11584   0.12449   0.14859   0.15764   0.16084
 Alpha virt. eigenvalues --    0.18717   0.20308   0.21887   0.22718   0.23435

 Mulliken charges:
               1
     1  C   -0.173510
     2  C   -0.027913
     3  C   -0.031853
     4  C   -0.176616
     5  H    0.082913
     6  H    0.061041
     7  H    0.056335
     8  H    0.059266
     9  H    0.068932
    10  H    0.081404
 Sum of Mulliken charges =   0.00000

 Dipole moment (field-independent basis, Debye):
    X=             -0.0131    Y=              0.0299    Z=              0.0201  Tot=              0.0384
 Quadrupole moment (field-independent basis, Debye-Ang):
   XX=            -23.5229   YY=            -23.1244   ZZ=            -29.2220
   XY=             -0.3737   XZ=              0.0865   YZ=             -0.1098

 1\1\GINC-NODE06\SP\RB2PLYPD3-FC\def2QZVP\C4H6\BOITTIER\26-Aug-2020\0\\
 #p B2PLYPD3/Def2QZVP\\butadiene\\0,1\C,0,-3.83197,0.208662,0.043085\C,
 0,-2.702202,-0.484534,0.003205\C,0,-1.384163,0.096725,0.003143\C,0,-0.
 29014,-0.678893,0.042606\H,0,-4.782362,-0.237489,0.084762\H,0,-3.90798
 8,1.302731,0.055024\H,0,-2.706649,-1.588365,-0.084772\H,0,-1.281289,1.
 194456,-0.142767\H,0,-0.328224,-1.764156,0.250033\H,0,0.681708,-0.2068
 6,0.026763\\Version=ES64L-G09RevD.01\State=1-A\HF=-155.6957434\MP2=-15
 5.9218556\RMSD=6.849e-09\PG=C01 [X(C4H6)]\\@

 Normal termination of Gaussian 09 at Wed Aug 26 09:46:36 2020.
