 Gaussian 09, Revision D.01,
 Gaussian 09:  ES64L-G09RevD.01 24-Apr-2013

 --------------------
 #p B2PLYPD3/Def2QZVP
 --------------------

 ---------
 butadiene
 ---------
 Symbolic Z-matrix:
 Charge =  0 Multiplicity = 1

                         Standard orientation:
 ---------------------------------------------------------------------
 Center     Atomic      Atomic             Coordinates (Angstroms)
 Number     Number       Type             X           Y           Z
 ---------------------------------------------------------------------
      1          6           0       -1.877064   -0.099036    0.072878
      2          6           0       -0.599036    0.368986   -0.094960
      3          6           0        0.647956   -0.465620   -0.026853
      4          6           0        1.857586    0.154112    0.054141
      5          1           0       -2.692633    0.627025    0.164796
      6          1           0       -2.093178   -1.111378   -0.091912
      7          1           0       -0.525052    1.444815   -0.053273
      8          1           0        0.465125   -1.534614   -0.119098
      9          1           0        1.903487    1.321958   -0.081744
     10          1           0        2.765599   -0.498455    0.149989
 ---------------------------------------------------------------------

 SCF Done:  E(RB2PLYPD3) =  -155.679469973     A.U. after   11 cycles
 E2(B2PLYPD3) =    -0.2284462264D+00 E(B2PLYPD3) =    -0.15590791619896D+03

 The electronic state is 1-A.
 Alpha  occ. eigenvalues --  -10.63827 -10.63632 -10.63128 -10.61605  -0.91761
 Alpha  occ. eigenvalues --   -0.84096  -0.69176  -0.63951  -0.53663  -0.52937
 Alpha  occ. eigenvalues --   -0.46459  -0.45032  -0.41340  -0.36905  -0.27338
 Alpha virt. eigenvalues --    0.01249   0.06740   0.07252   0.07906   0.08573
 Alpha virt. eigenvalues --    0.11659   0.12068   0.14387   0.15508   0.16126
 Alpha virt. eigenvalues --    0.18461   0.19638   0.21110   0.22999   0.24611

 Mulliken charges:
               1
     1  C   -0.181776
     2  C   -0.035126
     3  C   -0.050282
     4  C   -0.166427
     5  H    0.078223
     6  H    0.070855
     7  H    0.055016
     8  H    0.066817
     9  H    0.074751
    10  H    0.087949
 Sum of Mulliken charges =   0.00000

 Dipole moment (field-independent basis, Debye):
    X=              0.0567    Y=             -0.0498    Z=             -0.1304  Tot=              0.1507
 Quadrupole moment (field-independent basis, Debye-Ang):
   XX=            -24.0855   YY=            -22.8617   ZZ=            -29.6510
   XY=             -0.0636   XZ=             -0.0500   YZ=              0.1546

 1\1\GINC-NODE08\SP\RB2PLYPD3-FC\def2QZVP\C4H6\BOITTIER\26-Aug-2020\0\\
 #p B2PLYPD3/Def2QZVP\\butadiene\\0,1\C,0,-3.888641,0.202399,-0.051753\
 C,0,-2.710679,-0.477663,0.122864\C,0,-1.338277,0.128392,0.049349\C,0,-
 0.253819,-0.691649,-0.023571\H,0,-4.817316,-0.372766,-0.138448\H,0,-3.
 926731,1.238372,0.103185\H,0,-2.823579,-1.550454,0.091346\H,0,-1.33378
 2,1.213726,0.131281\H,0,-0.410316,-1.848533,0.123279\H,0,0.753268,-0.2
 0662,-0.123773\\Version=ES64L-G09RevD.01\State=1-A\HF=-155.67947\MP2=-
 155.9079162\RMSD=7.386e-09\PG=C01 [X(C4H6)]\\@

 Normal termination of Gaussian 09 at Wed Aug 26 11:27:47 2020.
