 Gaussian 09, Revision D.01,
 Gaussian 09:  ES64L-G09RevD.01 24-Apr-2013

 --------------------
 #p B2PLYPD3/Def2QZVP
 --------------------

 ---------
 butadiene
 ---------
 Symbolic Z-matrix:
 Charge =  0 Multiplicity = 1

                         Standard orientation:
 ---------------------------------------------------------------------
 Center     Atomic      Atomic             Coordinates (Angstroms)
 Number     Number       Type             X           Y           Z
 ---------------------------------------------------------------------
      1          6           0        1.845554    0.102924   -0.011579
      2          6           0        0.601206   -0.382686    0.004086
      3          6           0       -0.612610    0.407231    0.004637
      4          6           0       -1.830986   -0.123994    0.003533
      5          1           0        2.716762   -0.534155    0.030229
      6          1           0        2.027222    1.163575   -0.046971
      7          1           0        0.460020   -1.480260    0.032379
      8          1           0       -0.533513    1.499767    0.066516
      9          1           0       -1.983471   -1.195237   -0.041905
     10          1           0       -2.706002    0.525460   -0.044311
 ---------------------------------------------------------------------

 SCF Done:  E(RB2PLYPD3) =  -155.700431807     A.U. after   11 cycles
 E2(B2PLYPD3) =    -0.2257685710D+00 E(B2PLYPD3) =    -0.15592620037806D+03

 The electronic state is 1-A.
 Alpha  occ. eigenvalues --  -10.62731 -10.62524 -10.61539 -10.61428  -0.93034
 Alpha  occ. eigenvalues --   -0.85015  -0.70092  -0.63741  -0.54500  -0.54065
 Alpha  occ. eigenvalues --   -0.46552  -0.45450  -0.41057  -0.38216  -0.27740
 Alpha virt. eigenvalues --    0.01736   0.07010   0.07367   0.07958   0.09693
 Alpha virt. eigenvalues --    0.11675   0.12401   0.14720   0.15781   0.16193
 Alpha virt. eigenvalues --    0.18778   0.20288   0.21729   0.22694   0.23816

 Mulliken charges:
               1
     1  C   -0.176806
     2  C   -0.028654
     3  C   -0.027892
     4  C   -0.173340
     5  H    0.087342
     6  H    0.065579
     7  H    0.049435
     8  H    0.053759
     9  H    0.066756
    10  H    0.083821
 Sum of Mulliken charges =   0.00000

 Dipole moment (field-independent basis, Debye):
    X=             -0.0239    Y=              0.0179    Z=             -0.0032  Tot=              0.0300
 Quadrupole moment (field-independent basis, Debye-Ang):
   XX=            -23.4853   YY=            -23.1079   ZZ=            -29.2733
   XY=              0.0704   XZ=              0.1996   YZ=             -0.0106

 1\1\GINC-NODE01\SP\RB2PLYPD3-FC\def2QZVP\C4H6\BOITTIER\26-Aug-2020\0\\
 #p B2PLYPD3/Def2QZVP\\butadiene\\0,1\C,0,-3.849783,0.214482,0.027053\C
 ,0,-2.711696,-0.484956,0.030174\C,0,-1.376733,0.076084,0.009528\C,0,-0
 .272281,-0.66309,0.030712\H,0,-4.820511,-0.258458,0.00182\H,0,-3.83980
 8,1.291111,0.0296\H,0,-2.768059,-1.590485,0.035715\H,0,-1.260369,1.162
 865,-0.08579\H,0,-0.312677,-1.742482,0.109186\H,0,0.704409,-0.178472,0
 .061615\\Version=ES64L-G09RevD.01\State=1-A\HF=-155.7004318\MP2=-155.9
 262004\RMSD=2.357e-09\PG=C01 [X(C4H6)]\\@

 Normal termination of Gaussian 09 at Wed Aug 26 19:09:08 2020.
