 Gaussian 09, Revision D.01,
 Gaussian 09:  ES64L-G09RevD.01 24-Apr-2013

 --------------------
 #p B2PLYPD3/Def2QZVP
 --------------------

 ---------
 butadiene
 ---------
 Symbolic Z-matrix:
 Charge =  0 Multiplicity = 1

                         Standard orientation:
 ---------------------------------------------------------------------
 Center     Atomic      Atomic             Coordinates (Angstroms)
 Number     Number       Type             X           Y           Z
 ---------------------------------------------------------------------
      1          6           0        1.854474    0.107133    0.012504
      2          6           0        0.609751   -0.395335   -0.014132
      3          6           0       -0.605574    0.411783   -0.005050
      4          6           0       -1.846920   -0.114894    0.008645
      5          1           0        2.678537   -0.556129   -0.021833
      6          1           0        2.020252    1.154290    0.014037
      7          1           0        0.424548   -1.454069   -0.017219
      8          1           0       -0.468897    1.494570    0.008723
      9          1           0       -1.959277   -1.187365    0.054496
     10          1           0       -2.765551    0.496585   -0.050012
 ---------------------------------------------------------------------

 SCF Done:  E(RB2PLYPD3) =  -155.699169553     A.U. after   11 cycles
 E2(B2PLYPD3) =    -0.2260637395D+00 E(B2PLYPD3) =    -0.15592523329294D+03

 The electronic state is 1-A.
 Alpha  occ. eigenvalues --  -10.62789 -10.62563 -10.61985 -10.61203  -0.92784
 Alpha  occ. eigenvalues --   -0.84730  -0.70320  -0.64250  -0.54487  -0.53936
 Alpha  occ. eigenvalues --   -0.46652  -0.46100  -0.41267  -0.37863  -0.27527
 Alpha virt. eigenvalues --    0.01499   0.06997   0.07449   0.08117   0.09478
 Alpha virt. eigenvalues --    0.11699   0.12466   0.14703   0.15879   0.16006
 Alpha virt. eigenvalues --    0.18785   0.20601   0.21510   0.23033   0.23792

 Mulliken charges:
               1
     1  C   -0.181645
     2  C   -0.030935
     3  C   -0.028801
     4  C   -0.177968
     5  H    0.089381
     6  H    0.071921
     7  H    0.054078
     8  H    0.052810
     9  H    0.063719
    10  H    0.087439
 Sum of Mulliken charges =   0.00000

 Dipole moment (field-independent basis, Debye):
    X=             -0.0007    Y=             -0.0024    Z=             -0.0246  Tot=              0.0247
 Quadrupole moment (field-independent basis, Debye-Ang):
   XX=            -23.4855   YY=            -23.1024   ZZ=            -29.3352
   XY=              0.1717   XZ=              0.0048   YZ=             -0.0388

 1\1\GINC-NODE25\SP\RB2PLYPD3-FC\def2QZVP\C4H6\BOITTIER\26-Aug-2020\0\\
 #p B2PLYPD3/Def2QZVP\\butadiene\\0,1\C,0,-3.855843,0.223071,0.00648\C,
 0,-2.721891,-0.494471,0.048971\C,0,-1.38111,0.079994,0.020072\C,0,-0.2
 54968,-0.661836,0.0229\H,0,-4.785772,-0.279735,0.0574\H,0,-3.830319,1.
 282529,-0.023837\H,0,-2.730387,-1.568769,0.081192\H,0,-1.320584,1.1689
 13,-0.023399\H,0,-0.337748,-1.737845,0.006446\H,0,0.758951,-0.224462,0
 .066515\\Version=ES64L-G09RevD.01\State=1-A\HF=-155.6991696\MP2=-155.9
 252333\RMSD=3.927e-09\PG=C01 [X(C4H6)]\\@

 Normal termination of Gaussian 09 at Wed Aug 26 22:08:59 2020.
