 Gaussian 09, Revision D.01,
 Gaussian 09:  ES64L-G09RevD.01 24-Apr-2013

 --------------------
 #p B2PLYPD3/Def2QZVP
 --------------------

 ---------
 butadiene
 ---------
 Symbolic Z-matrix:
 Charge =  0 Multiplicity = 1

                         Standard orientation:
 ---------------------------------------------------------------------
 Center     Atomic      Atomic             Coordinates (Angstroms)
 Number     Number       Type             X           Y           Z
 ---------------------------------------------------------------------
      1          6           0       -1.831154    0.094117    0.014401
      2          6           0       -0.600898   -0.387673   -0.017601
      3          6           0        0.594891    0.416891   -0.011488
      4          6           0        1.832442   -0.120267    0.003223
      5          1           0       -2.696552   -0.554259    0.011805
      6          1           0       -2.035092    1.156714    0.035126
      7          1           0       -0.446239   -1.437489   -0.061540
      8          1           0        0.461605    1.497790   -0.010175
      9          1           0        2.005163   -1.175590    0.102747
     10          1           0        2.739429    0.494426   -0.009173
 ---------------------------------------------------------------------

 SCF Done:  E(RB2PLYPD3) =  -155.700204866     A.U. after   11 cycles
 E2(B2PLYPD3) =    -0.2256180509D+00 E(B2PLYPD3) =    -0.15592582291701D+03

 The electronic state is 1-A.
 Alpha  occ. eigenvalues --  -10.62710 -10.61925 -10.61800 -10.61248  -0.93242
 Alpha  occ. eigenvalues --   -0.84799  -0.70323  -0.64420  -0.54730  -0.53914
 Alpha  occ. eigenvalues --   -0.46769  -0.45604  -0.41205  -0.38262  -0.27569
 Alpha virt. eigenvalues --    0.01649   0.07000   0.07454   0.08093   0.09624
 Alpha virt. eigenvalues --    0.11689   0.12474   0.14800   0.15874   0.16188
 Alpha virt. eigenvalues --    0.18789   0.20546   0.21779   0.22793   0.23670

 Mulliken charges:
               1
     1  C   -0.175198
     2  C   -0.025264
     3  C   -0.034335
     4  C   -0.176368
     5  H    0.083314
     6  H    0.063981
     7  H    0.058266
     8  H    0.057033
     9  H    0.067283
    10  H    0.081289
 Sum of Mulliken charges =   0.00000

 Dipole moment (field-independent basis, Debye):
    X=             -0.0004    Y=             -0.0164    Z=              0.0479  Tot=              0.0507
 Quadrupole moment (field-independent basis, Debye-Ang):
   XX=            -23.4274   YY=            -23.1306   ZZ=            -29.2214
   XY=             -0.2791   XZ=              0.1036   YZ=             -0.0429

 1\1\GINC-NODE35\SP\RB2PLYPD3-FC\def2QZVP\C4H6\BOITTIER\26-Aug-2020\0\\
 #p B2PLYPD3/Def2QZVP\\butadiene\\0,1\C,0,-3.834475,0.213552,0.032098\C
 ,0,-2.713501,-0.486391,0.018919\C,0,-1.390466,0.085087,0.00267\C,0,-0.
 272326,-0.669104,0.037968\H,0,-4.804075,-0.264926,0.047795\H,0,-3.8400
 87,1.295638,0.018318\H,0,-2.754062,-1.547626,0.008952\H,0,-1.323329,1.
 171584,-0.0309\H,0,-0.295693,-1.734485,0.171616\H,0,0.731937,-0.231824
 ,0.008478\\Version=ES64L-G09RevD.01\State=1-A\HF=-155.7002049\MP2=-155
 .9258229\RMSD=5.281e-09\PG=C01 [X(C4H6)]\\@

 Normal termination of Gaussian 09 at Wed Aug 26 08:35:19 2020.
