 Gaussian 09, Revision D.01,
 Gaussian 09:  ES64L-G09RevD.01 24-Apr-2013

 --------------------
 #p B2PLYPD3/Def2QZVP
 --------------------

 ---------
 butadiene
 ---------
 Symbolic Z-matrix:
 Charge =  0 Multiplicity = 1

                         Standard orientation:
 ---------------------------------------------------------------------
 Center     Atomic      Atomic             Coordinates (Angstroms)
 Number     Number       Type             X           Y           Z
 ---------------------------------------------------------------------
      1          6           0       -1.834195   -0.117674    0.060314
      2          6           0       -0.601820    0.440739   -0.072808
      3          6           0        0.598700   -0.377490   -0.066003
      4          6           0        1.834245    0.099240    0.065947
      5          1           0       -2.831625    0.327853   -0.082332
      6          1           0       -1.771990   -1.229935    0.251907
      7          1           0       -0.414867    1.537207   -0.025247
      8          1           0        0.450629   -1.438787   -0.177827
      9          1           0        1.939191    1.158754    0.131274
     10          1           0        2.647079   -0.623984   -0.022471
 ---------------------------------------------------------------------

 SCF Done:  E(RB2PLYPD3) =  -155.687471752     A.U. after   11 cycles
 E2(B2PLYPD3) =    -0.2273266426D+00 E(B2PLYPD3) =    -0.15591479839448D+03

 The electronic state is 1-A.
 Alpha  occ. eigenvalues --  -10.63326 -10.62775 -10.62154 -10.61326  -0.93065
 Alpha  occ. eigenvalues --   -0.84565  -0.69590  -0.63968  -0.54330  -0.53537
 Alpha  occ. eigenvalues --   -0.46557  -0.45180  -0.41385  -0.37603  -0.27457
 Alpha virt. eigenvalues --    0.01250   0.06995   0.07290   0.07962   0.09330
 Alpha virt. eigenvalues --    0.11698   0.12539   0.14352   0.15267   0.16364
 Alpha virt. eigenvalues --    0.18771   0.19732   0.21316   0.22104   0.24445

 Mulliken charges:
               1
     1  C   -0.166599
     2  C   -0.039937
     3  C   -0.015453
     4  C   -0.185821
     5  H    0.095698
     6  H    0.050354
     7  H    0.051148
     8  H    0.050921
     9  H    0.069566
    10  H    0.090122
 Sum of Mulliken charges =   0.00000

 Dipole moment (field-independent basis, Debye):
    X=             -0.0294    Y=             -0.0074    Z=             -0.0408  Tot=              0.0508
 Quadrupole moment (field-independent basis, Debye-Ang):
   XX=            -23.7180   YY=            -23.3409   ZZ=            -29.3317
   XY=             -0.1271   XZ=             -0.0202   YZ=              0.0340

 1\1\GINC-NODE05\SP\RB2PLYPD3-FC\def2QZVP\C4H6\BOITTIER\26-Aug-2020\0\\
 #p B2PLYPD3/Def2QZVP\\butadiene\\0,1\C,0,-3.834939,0.230538,-0.043585\
 C,0,-2.7216,-0.534536,0.109493\C,0,-1.394307,0.055534,0.079421\C,0,-0.
 264225,-0.638062,-0.035\H,0,-4.895367,-0.025028,0.110967\H,0,-3.57583,
 1.307271,-0.269885\H,0,-2.733603,-1.647707,0.096765\H,0,-1.350095,1.12
 9182,0.157563\H,0,-0.350383,-1.700802,-0.066812\H,0,0.664996,-0.069214
 ,0.032304\\Version=ES64L-G09RevD.01\State=1-A\HF=-155.6874718\MP2=-155
 .9147984\RMSD=8.007e-09\PG=C01 [X(C4H6)]\\@

 Normal termination of Gaussian 09 at Wed Aug 26 15:37:05 2020.
