 Gaussian 09, Revision D.01,
 Gaussian 09:  ES64L-G09RevD.01 24-Apr-2013

 --------------------
 #p B2PLYPD3/Def2QZVP
 --------------------

 ---------
 butadiene
 ---------
 Symbolic Z-matrix:
 Charge =  0 Multiplicity = 1

                         Standard orientation:
 ---------------------------------------------------------------------
 Center     Atomic      Atomic             Coordinates (Angstroms)
 Number     Number       Type             X           Y           Z
 ---------------------------------------------------------------------
      1          6           0       -1.844471    0.117576   -0.027195
      2          6           0       -0.613354   -0.415147    0.024775
      3          6           0        0.604000    0.385887    0.041897
      4          6           0        1.842884   -0.103075   -0.021014
      5          1           0       -2.698745   -0.520232   -0.031337
      6          1           0       -1.993304    1.200038   -0.003496
      7          1           0       -0.486424   -1.475287    0.023595
      8          1           0        0.456438    1.463169   -0.016139
      9          1           0        2.103225   -1.156067   -0.037695
     10          1           0        2.684455    0.576933   -0.045701
 ---------------------------------------------------------------------

 SCF Done:  E(RB2PLYPD3) =  -155.700229138     A.U. after   11 cycles
 E2(B2PLYPD3) =    -0.2257116930D+00 E(B2PLYPD3) =    -0.15592594083108D+03

 The electronic state is 1-A.
 Alpha  occ. eigenvalues --  -10.62549 -10.62425 -10.61581 -10.61522  -0.92858
 Alpha  occ. eigenvalues --   -0.84879  -0.70265  -0.64150  -0.54741  -0.53753
 Alpha  occ. eigenvalues --   -0.46695  -0.45846  -0.41054  -0.38011  -0.27667
 Alpha virt. eigenvalues --    0.01679   0.06993   0.07441   0.08110   0.09556
 Alpha virt. eigenvalues --    0.11666   0.12358   0.14836   0.15781   0.16118
 Alpha virt. eigenvalues --    0.18848   0.20366   0.21676   0.22827   0.23882

 Mulliken charges:
               1
     1  C   -0.176028
     2  C   -0.036984
     3  C   -0.028687
     4  C   -0.175897
     5  H    0.087306
     6  H    0.067132
     7  H    0.058922
     8  H    0.055126
     9  H    0.068108
    10  H    0.081001
 Sum of Mulliken charges =   0.00000

 Dipole moment (field-independent basis, Debye):
    X=              0.0019    Y=             -0.0356    Z=             -0.0510  Tot=              0.0622
 Quadrupole moment (field-independent basis, Debye-Ang):
   XX=            -23.5109   YY=            -23.0237   ZZ=            -29.2866
   XY=             -0.2539   XZ=             -0.1501   YZ=             -0.0278

 1\1\GINC-NODE34\SP\RB2PLYPD3-FC\def2QZVP\C4H6\BOITTIER\26-Aug-2020\0\\
 #p B2PLYPD3/Def2QZVP\\butadiene\\0,1\C,0,-3.843182,0.235583,-0.009593\
 C,0,-2.72887,-0.50973,0.060847\C,0,-1.386325,0.057188,0.05208\C,0,-0.2
 57059,-0.650295,0.006252\H,0,-4.798996,-0.236378,0.006947\H,0,-3.79304
 6,1.327265,-0.02201\H,0,-2.796374,-1.574758,0.095016\H,0,-1.336322,1.1
 40865,-0.041854\H,0,-0.192155,-1.73302,0.024774\H,0,0.693762,-0.1355,-
 0.040512\\Version=ES64L-G09RevD.01\State=1-A\HF=-155.7002291\MP2=-155.
 9259408\RMSD=5.190e-09\PG=C01 [X(C4H6)]\\@

 Normal termination of Gaussian 09 at Wed Aug 26 19:09:12 2020.
