 Gaussian 09, Revision D.01,
 Gaussian 09:  ES64L-G09RevD.01 24-Apr-2013

 --------------------
 #p B2PLYPD3/Def2QZVP
 --------------------

 ---------
 butadiene
 ---------
 Symbolic Z-matrix:
 Charge =  0 Multiplicity = 1

                         Standard orientation:
 ---------------------------------------------------------------------
 Center     Atomic      Atomic             Coordinates (Angstroms)
 Number     Number       Type             X           Y           Z
 ---------------------------------------------------------------------
      1          6           0        1.844971   -0.134982    0.079187
      2          6           0        0.631193    0.403042   -0.034776
      3          6           0       -0.622929   -0.345458   -0.119149
      4          6           0       -1.882724    0.093867    0.060256
      5          1           0        2.651411    0.511594    0.137287
      6          1           0        1.985250   -1.236446   -0.083340
      7          1           0        0.616124    1.525878   -0.168044
      8          1           0       -0.425723   -1.455597   -0.039207
      9          1           0       -2.004491    1.163162    0.022190
     10          1           0       -2.645633   -0.607403    0.218008
 ---------------------------------------------------------------------

 SCF Done:  E(RB2PLYPD3) =  -155.684928130     A.U. after   11 cycles
 E2(B2PLYPD3) =    -0.2268201808D+00 E(B2PLYPD3) =    -0.15591174831031D+03

 The electronic state is 1-A.
 Alpha  occ. eigenvalues --  -10.63167 -10.63101 -10.61576 -10.61491  -0.92667
 Alpha  occ. eigenvalues --   -0.85372  -0.70475  -0.62589  -0.54903  -0.54035
 Alpha  occ. eigenvalues --   -0.46929  -0.45478  -0.40759  -0.37473  -0.27798
 Alpha virt. eigenvalues --    0.01343   0.07078   0.07222   0.07993   0.09396
 Alpha virt. eigenvalues --    0.11630   0.12249   0.14585   0.15319   0.16452
 Alpha virt. eigenvalues --    0.18890   0.19410   0.21021   0.23511   0.24218

 Mulliken charges:
               1
     1  C   -0.178472
     2  C   -0.024144
     3  C   -0.025932
     4  C   -0.180600
     5  H    0.090625
     6  H    0.066754
     7  H    0.039833
     8  H    0.036943
     9  H    0.074959
    10  H    0.100034
 Sum of Mulliken charges =   0.00000

 Dipole moment (field-independent basis, Debye):
    X=              0.0447    Y=              0.0459    Z=             -0.0178  Tot=              0.0665
 Quadrupole moment (field-independent basis, Debye-Ang):
   XX=            -23.6555   YY=            -23.2574   ZZ=            -29.2610
   XY=              0.2548   XZ=             -0.6548   YZ=             -0.1630

 1\1\GINC-NODE02\SP\RB2PLYPD3-FC\def2QZVP\C4H6\BOITTIER\26-Aug-2020\0\\
 #p B2PLYPD3/Def2QZVP\\butadiene\\0,1\C,0,-3.848984,0.23996,0.092338\C,
 0,-2.746197,-0.501048,-0.01004\C,0,-1.380944,0.01823,-0.091454\C,0,-0.
 217257,-0.631219,0.099139\H,0,-4.755537,-0.256685,0.149676\H,0,-3.7954
 73,1.34775,-0.078697\H,0,-2.925192,-1.610544,-0.13545\H,0,-1.383252,1.
 146345,-0.02046\H,0,-0.282387,-1.705711,0.069248\H,0,0.654779,-0.07145
 8,0.256983\\Version=ES64L-G09RevD.01\State=1-A\HF=-155.6849281\MP2=-15
 5.9117483\RMSD=9.306e-09\PG=C01 [X(C4H6)]\\@

 Normal termination of Gaussian 09 at Wed Aug 26 14:37:31 2020.
