 Gaussian 09, Revision D.01,
 Gaussian 09:  ES64L-G09RevD.01 24-Apr-2013

 --------------------
 #p B2PLYPD3/Def2QZVP
 --------------------

 ---------
 butadiene
 ---------
 Symbolic Z-matrix:
 Charge =  0 Multiplicity = 1

                         Standard orientation:
 ---------------------------------------------------------------------
 Center     Atomic      Atomic             Coordinates (Angstroms)
 Number     Number       Type             X           Y           Z
 ---------------------------------------------------------------------
      1          6           0        1.828793    0.101526   -0.019306
      2          6           0        0.595512   -0.381073    0.017572
      3          6           0       -0.592313    0.401607   -0.006674
      4          6           0       -1.816460   -0.115228   -0.002032
      5          1           0        2.690115   -0.574052   -0.030587
      6          1           0        1.949196    1.190985    0.060243
      7          1           0        0.397595   -1.475478   -0.003237
      8          1           0       -0.484800    1.495095    0.056064
      9          1           0       -1.958561   -1.190801    0.059331
     10          1           0       -2.686735    0.513255   -0.079174
 ---------------------------------------------------------------------

 SCF Done:  E(RB2PLYPD3) =  -155.697669766     A.U. after   11 cycles
 E2(B2PLYPD3) =    -0.2259402482D+00 E(B2PLYPD3) =    -0.15592361001396D+03

 The electronic state is 1-A.
 Alpha  occ. eigenvalues --  -10.62291 -10.62199 -10.61666 -10.61404  -0.93633
 Alpha  occ. eigenvalues --   -0.85059  -0.70170  -0.63559  -0.54572  -0.53886
 Alpha  occ. eigenvalues --   -0.46546  -0.45398  -0.41123  -0.38514  -0.27654
 Alpha virt. eigenvalues --    0.01714   0.07047   0.07193   0.08014   0.09834
 Alpha virt. eigenvalues --    0.11783   0.12345   0.14758   0.15561   0.16201
 Alpha virt. eigenvalues --    0.18575   0.20019   0.21642   0.22930   0.24077

 Mulliken charges:
               1
     1  C   -0.179415
     2  C   -0.019578
     3  C   -0.018336
     4  C   -0.180325
     5  H    0.090719
     6  H    0.066255
     7  H    0.042876
     8  H    0.046483
     9  H    0.063671
    10  H    0.087649
 Sum of Mulliken charges =   0.00000

 Dipole moment (field-independent basis, Debye):
    X=             -0.0568    Y=             -0.0015    Z=              0.0695  Tot=              0.0898
 Quadrupole moment (field-independent basis, Debye-Ang):
   XX=            -23.7206   YY=            -23.1533   ZZ=            -29.2110
   XY=             -0.0115   XZ=              0.1063   YZ=              0.0607

 1\1\GINC-NODE37\SP\RB2PLYPD3-FC\def2QZVP\C4H6\BOITTIER\26-Aug-2020\0\\
 #p B2PLYPD3/Def2QZVP\\butadiene\\0,1\C,0,-3.829987,0.218364,0.034204\C
 ,0,-2.705656,-0.482252,0.01804\C,0,-1.394845,0.070811,0.017577\C,0,-0.
 285621,-0.660627,0.034826\H,0,-4.800098,-0.287798,0.067248\H,0,-3.7498
 19,1.307954,-0.084597\H,0,-2.710738,-1.592946,0.07853\H,0,-1.301205,1.
 162606,-0.084532\H,0,-0.342457,-1.745561,0.012369\H,0,0.685033,-0.1992
 18,0.091858\\Version=ES64L-G09RevD.01\State=1-A\HF=-155.6976698\MP2=-1
 55.92361\RMSD=4.128e-09\PG=C01 [X(C4H6)]\\@

 Normal termination of Gaussian 09 at Wed Aug 26 08:49:54 2020.
