 Gaussian 09, Revision D.01,
 Gaussian 09:  ES64L-G09RevD.01 24-Apr-2013

 --------------------
 #p B2PLYPD3/Def2QZVP
 --------------------

 ---------
 butadiene
 ---------
 Symbolic Z-matrix:
 Charge =  0 Multiplicity = 1

                         Standard orientation:
 ---------------------------------------------------------------------
 Center     Atomic      Atomic             Coordinates (Angstroms)
 Number     Number       Type             X           Y           Z
 ---------------------------------------------------------------------
      1          6           0        1.852282    0.044276    0.031292
      2          6           0        0.575552   -0.369482   -0.048861
      3          6           0       -0.596834    0.452109   -0.083960
      4          6           0       -1.828627   -0.131080    0.019472
      5          1           0        2.797865   -0.489523    0.134637
      6          1           0        1.968664    1.208166    0.092947
      7          1           0        0.385846   -1.477757   -0.106698
      8          1           0       -0.415631    1.554985    0.044555
      9          1           0       -1.968695   -1.195064    0.176368
     10          1           0       -2.782281    0.424255    0.150533
 ---------------------------------------------------------------------

 SCF Done:  E(RB2PLYPD3) =  -155.682243909     A.U. after   11 cycles
 E2(B2PLYPD3) =    -0.2285522490D+00 E(B2PLYPD3) =    -0.15591079615779D+03

 The electronic state is 1-A.
 Alpha  occ. eigenvalues --  -10.63856 -10.63131 -10.62806 -10.62695  -0.92977
 Alpha  occ. eigenvalues --   -0.83984  -0.70198  -0.63279  -0.55063  -0.52373
 Alpha  occ. eigenvalues --   -0.47260  -0.43887  -0.40324  -0.38269  -0.27295
 Alpha virt. eigenvalues --    0.00857   0.06934   0.07029   0.07920   0.09197
 Alpha virt. eigenvalues --    0.11427   0.12613   0.14143   0.15558   0.16588
 Alpha virt. eigenvalues --    0.18727   0.19852   0.22172   0.22387   0.22975

 Mulliken charges:
               1
     1  C   -0.168618
     2  C   -0.016600
     3  C   -0.031774
     4  C   -0.161132
     5  H    0.097654
     6  H    0.033709
     7  H    0.044065
     8  H    0.058599
     9  H    0.066508
    10  H    0.077589
 Sum of Mulliken charges =   0.00000

 Dipole moment (field-independent basis, Debye):
    X=             -0.0999    Y=             -0.0744    Z=              0.3603  Tot=              0.3812
 Quadrupole moment (field-independent basis, Debye-Ang):
   XX=            -23.1750   YY=            -23.6471   ZZ=            -29.5039
   XY=              0.1595   XZ=             -0.3014   YZ=              0.0600

 1\1\GINC-NODE04\SP\RB2PLYPD3-FC\def2QZVP\C4H6\BOITTIER\26-Aug-2020\0\\
 #p B2PLYPD3/Def2QZVP\\butadiene\\0,1\C,0,-3.863556,0.1754,-0.016767\C,
 0,-2.686519,-0.46778,0.075768\C,0,-1.380771,0.120145,0.085727\C,0,-0.2
 8069,-0.68644,-0.000081\H,0,-4.892996,-0.174519,-0.103718\H,0,-3.76015
 6,1.338106,-0.113764\H,0,-2.707497,-1.589742,0.167248\H,0,-1.352864,1.
 233103,-0.076235\H,0,-0.343377,-1.762018,-0.124575\H,0,0.759348,-0.323
 884,-0.148083\\Version=ES64L-G09RevD.01\State=1-A\HF=-155.6822439\MP2=
 -155.9107962\RMSD=7.091e-09\PG=C01 [X(C4H6)]\\@

 Normal termination of Gaussian 09 at Wed Aug 26 13:24:20 2020.
