 Gaussian 09, Revision D.01,
 Gaussian 09:  ES64L-G09RevD.01 24-Apr-2013

 --------------------
 #p B2PLYPD3/Def2QZVP
 --------------------

 ---------
 butadiene
 ---------
 Symbolic Z-matrix:
 Charge =  0 Multiplicity = 1

                         Standard orientation:
 ---------------------------------------------------------------------
 Center     Atomic      Atomic             Coordinates (Angstroms)
 Number     Number       Type             X           Y           Z
 ---------------------------------------------------------------------
      1          6           0        1.842384   -0.130333   -0.024717
      2          6           0        0.598664    0.433173    0.016682
      3          6           0       -0.613797   -0.388638    0.043057
      4          6           0       -1.856291    0.086878   -0.044055
      5          1           0        2.758709    0.483806    0.002967
      6          1           0        2.013294   -1.198136   -0.097689
      7          1           0        0.558259    1.514136    0.059462
      8          1           0       -0.397866   -1.425094    0.119447
      9          1           0       -2.044846    1.145018    0.003952
     10          1           0       -2.713314   -0.526210   -0.033945
 ---------------------------------------------------------------------

 SCF Done:  E(RB2PLYPD3) =  -155.696682377     A.U. after   11 cycles
 E2(B2PLYPD3) =    -0.2262273502D+00 E(B2PLYPD3) =    -0.15592290972683D+03

 The electronic state is 1-A.
 Alpha  occ. eigenvalues --  -10.63085 -10.62527 -10.62209 -10.61156  -0.92641
 Alpha  occ. eigenvalues --   -0.84559  -0.70333  -0.64513  -0.54750  -0.53744
 Alpha  occ. eigenvalues --   -0.46664  -0.45699  -0.41449  -0.37662  -0.27474
 Alpha virt. eigenvalues --    0.01444   0.07016   0.07506   0.08085   0.09302
 Alpha virt. eigenvalues --    0.11608   0.12527   0.14609   0.15973   0.16233
 Alpha virt. eigenvalues --    0.18934   0.20536   0.21594   0.22805   0.23548

 Mulliken charges:
               1
     1  C   -0.178878
     2  C   -0.034293
     3  C   -0.038115
     4  C   -0.169249
     5  H    0.079812
     6  H    0.065605
     7  H    0.061419
     8  H    0.062458
     9  H    0.066163
    10  H    0.085078
 Sum of Mulliken charges =   0.00000

 Dipole moment (field-independent basis, Debye):
    X=              0.0154    Y=             -0.0063    Z=              0.0914  Tot=              0.0929
 Quadrupole moment (field-independent basis, Debye-Ang):
   XX=            -23.3051   YY=            -23.1342   ZZ=            -29.3435
   XY=             -0.2428   XZ=             -0.1051   YZ=              0.1006

 1\1\GINC-NODE26\SP\RB2PLYPD3-FC\def2QZVP\C4H6\BOITTIER\26-Aug-2020\0\\
 #p B2PLYPD3/Def2QZVP\\butadiene\\0,1\C,0,-3.844032,0.244725,-0.008511\
 C,0,-2.722208,-0.53195,0.057667\C,0,-1.381295,0.058033,0.056388\C,0,-0
 .245323,-0.63678,-0.009181\H,0,-4.855989,-0.192534,0.039775\H,0,-3.819
 811,1.32232,-0.122269\H,0,-2.877287,-1.600073,0.141382\H,0,-1.406407,1
 .118569,0.092943\H,0,-0.250546,-1.709002,0.079314\H,0,0.708268,-0.1884
 32,-0.019829\\Version=ES64L-G09RevD.01\State=1-A\HF=-155.6966824\MP2=-
 155.9229097\RMSD=7.407e-09\PG=C01 [X(C4H6)]\\@

 Normal termination of Gaussian 09 at Wed Aug 26 10:48:52 2020.
