 Gaussian 09, Revision D.01,
 Gaussian 09:  ES64L-G09RevD.01 24-Apr-2013

 --------------------
 #p B2PLYPD3/Def2QZVP
 --------------------

 ---------
 butadiene
 ---------
 Symbolic Z-matrix:
 Charge =  0 Multiplicity = 1

                         Standard orientation:
 ---------------------------------------------------------------------
 Center     Atomic      Atomic             Coordinates (Angstroms)
 Number     Number       Type             X           Y           Z
 ---------------------------------------------------------------------
      1          6           0       -1.844009    0.075189   -0.016431
      2          6           0       -0.581820   -0.346840    0.035002
      3          6           0        0.613330    0.446248    0.015384
      4          6           0        1.852941   -0.145260   -0.044431
      5          1           0       -2.677939   -0.632218   -0.024201
      6          1           0       -2.299961    1.092152   -0.064744
      7          1           0       -0.466407   -1.478877    0.117236
      8          1           0        0.453299    1.539805   -0.005024
      9          1           0        1.959265   -1.167298   -0.133259
     10          1           0        2.789090    0.470415    0.172847
 ---------------------------------------------------------------------

 SCF Done:  E(RB2PLYPD3) =  -155.683172195     A.U. after   11 cycles
 E2(B2PLYPD3) =    -0.2277009528D+00 E(B2PLYPD3) =    -0.15591087314806D+03

 The electronic state is 1-A.
 Alpha  occ. eigenvalues --  -10.63514 -10.63122 -10.62449 -10.62003  -0.92789
 Alpha  occ. eigenvalues --   -0.84320  -0.70614  -0.63555  -0.54464  -0.53426
 Alpha  occ. eigenvalues --   -0.46269  -0.45415  -0.40340  -0.37980  -0.27251
 Alpha virt. eigenvalues --    0.00831   0.06851   0.07326   0.07772   0.09533
 Alpha virt. eigenvalues --    0.11287   0.12412   0.14808   0.15704   0.16216
 Alpha virt. eigenvalues --    0.18885   0.19696   0.21758   0.22377   0.23885

 Mulliken charges:
               1
     1  C   -0.172197
     2  C   -0.016231
     3  C   -0.045319
     4  C   -0.171664
     5  H    0.072390
     6  H    0.060545
     7  H    0.047110
     8  H    0.067249
     9  H    0.077224
    10  H    0.080892
 Sum of Mulliken charges =   0.00000

 Dipole moment (field-independent basis, Debye):
    X=             -0.0610    Y=             -0.0055    Z=              0.0777  Tot=              0.0989
 Quadrupole moment (field-independent basis, Debye-Ang):
   XX=            -23.2971   YY=            -23.3244   ZZ=            -29.4390
   XY=             -0.5669   XZ=              0.4437   YZ=              0.0948

 1\1\GINC-NODE06\SP\RB2PLYPD3-FC\def2QZVP\C4H6\BOITTIER\26-Aug-2020\0\\
 #p B2PLYPD3/Def2QZVP\\butadiene\\0,1\C,0,-3.856101,0.196435,-0.002076\
 C,0,-2.69341,-0.449527,0.066895\C,0,-1.372508,0.108965,0.034309\C,0,-0
 .26315,-0.702184,-0.003853\H,0,-4.806153,-0.345136,0.003031\H,0,-4.116
 692,1.278444,-0.078168\H,0,-2.788769,-1.58098,0.177841\H,0,-1.328155,1
 .212405,-0.014127\H,0,-0.347,-1.728234,-0.066694\H,0,0.770259,-0.26425
 5,0.20333\\Version=ES64L-G09RevD.01\State=1-A\HF=-155.6831722\MP2=-155
 .9108731\RMSD=8.702e-09\PG=C01 [X(C4H6)]\\@

 Normal termination of Gaussian 09 at Wed Aug 26 14:59:28 2020.
