 Gaussian 09, Revision D.01,
 Gaussian 09:  ES64L-G09RevD.01 24-Apr-2013

 --------------------
 #p B2PLYPD3/Def2QZVP
 --------------------

 ---------
 butadiene
 ---------
 Symbolic Z-matrix:
 Charge =  0 Multiplicity = 1

                         Standard orientation:
 ---------------------------------------------------------------------
 Center     Atomic      Atomic             Coordinates (Angstroms)
 Number     Number       Type             X           Y           Z
 ---------------------------------------------------------------------
      1          6           0       -1.849511    0.069706   -0.060110
      2          6           0       -0.560864   -0.369226    0.047108
      3          6           0        0.599464    0.447029    0.059169
      4          6           0        1.825581   -0.113553   -0.082701
      5          1           0       -2.633880   -0.575584    0.082068
      6          1           0       -2.149830    1.093367   -0.255361
      7          1           0       -0.411816   -1.379920    0.181065
      8          1           0        0.376554    1.466019    0.295370
      9          1           0        1.890474   -1.237066   -0.056271
     10          1           0        2.840481    0.429441   -0.027661
 ---------------------------------------------------------------------

 SCF Done:  E(RB2PLYPD3) =  -155.681911435     A.U. after   11 cycles
 E2(B2PLYPD3) =    -0.2273099349D+00 E(B2PLYPD3) =    -0.15590922136950D+03

 The electronic state is 1-A.
 Alpha  occ. eigenvalues --  -10.63335 -10.62675 -10.61976 -10.61204  -0.93426
 Alpha  occ. eigenvalues --   -0.84061  -0.70785  -0.64917  -0.54687  -0.53288
 Alpha  occ. eigenvalues --   -0.47437  -0.45248  -0.41747  -0.37400  -0.27074
 Alpha virt. eigenvalues --    0.00790   0.07016   0.07477   0.07959   0.09415
 Alpha virt. eigenvalues --    0.11546   0.12526   0.14695   0.15565   0.16300
 Alpha virt. eigenvalues --    0.18776   0.19846   0.21697   0.21872   0.24058

 Mulliken charges:
               1
     1  C   -0.193609
     2  C   -0.023301
     3  C   -0.042202
     4  C   -0.161171
     5  H    0.085466
     6  H    0.064854
     7  H    0.062601
     8  H    0.069669
     9  H    0.059182
    10  H    0.078512
 Sum of Mulliken charges =   0.00000

 Dipole moment (field-independent basis, Debye):
    X=              0.0267    Y=             -0.0207    Z=              0.2818  Tot=              0.2838
 Quadrupole moment (field-independent basis, Debye-Ang):
   XX=            -23.3692   YY=            -23.4549   ZZ=            -29.2072
   XY=             -0.4300   XZ=              0.1656   YZ=             -0.1743

 1\1\GINC-NODE30\SP\RB2PLYPD3-FC\def2QZVP\C4H6\BOITTIER\26-Aug-2020\0\\
 #p B2PLYPD3/Def2QZVP\\butadiene\\0,1\C,0,-3.85704,0.20227,-0.039402\C,
 0,-2.675935,-0.471729,0.085035\C,0,-1.38099,0.107818,0.080323\C,0,-0.2
 84727,-0.680323,-0.041262\H,0,-4.750149,-0.277192,0.116553\H,0,-3.9563
 63,1.2588,-0.263176\H,0,-2.72267,-1.488289,0.246539\H,0,-1.40485,1.156
 624,0.288302\H,0,-0.435719,-1.794407,0.015401\H,0,0.815285,-0.339956,0
 .00365\\Version=ES64L-G09RevD.01\State=1-A\HF=-155.6819114\MP2=-155.90
 92214\RMSD=8.736e-09\PG=C01 [X(C4H6)]\\@

 Normal termination of Gaussian 09 at Wed Aug 26 12:41:31 2020.
