 Gaussian 09, Revision D.01,
 Gaussian 09:  ES64L-G09RevD.01 24-Apr-2013

 --------------------
 #p B2PLYPD3/Def2QZVP
 --------------------

 ---------
 butadiene
 ---------
 Symbolic Z-matrix:
 Charge =  0 Multiplicity = 1

                         Standard orientation:
 ---------------------------------------------------------------------
 Center     Atomic      Atomic             Coordinates (Angstroms)
 Number     Number       Type             X           Y           Z
 ---------------------------------------------------------------------
      1          6           0        1.829551    0.104669    0.016232
      2          6           0        0.580223   -0.418728   -0.039492
      3          6           0       -0.606832    0.464464    0.004406
      4          6           0       -1.830658   -0.137765   -0.020523
      5          1           0        2.703975   -0.592617    0.242196
      6          1           0        2.071050    1.164757   -0.116363
      7          1           0        0.374356   -1.431347   -0.143075
      8          1           0       -0.482531    1.586332   -0.007228
      9          1           0       -1.783870   -1.289980    0.101238
     10          1           0       -2.716681    0.487013    0.159498
 ---------------------------------------------------------------------

 SCF Done:  E(RB2PLYPD3) =  -155.677068390     A.U. after   11 cycles
 E2(B2PLYPD3) =    -0.2286912017D+00 E(B2PLYPD3) =    -0.15590575959144D+03

 The electronic state is 1-A.
 Alpha  occ. eigenvalues --  -10.63597 -10.62789 -10.62742 -10.62556  -0.92485
 Alpha  occ. eigenvalues --   -0.83834  -0.68866  -0.64141  -0.54024  -0.52340
 Alpha  occ. eigenvalues --   -0.46731  -0.44643  -0.41510  -0.37116  -0.27126
 Alpha virt. eigenvalues --    0.01344   0.06914   0.07045   0.07919   0.08312
 Alpha virt. eigenvalues --    0.11808   0.12284   0.14249   0.15321   0.15969
 Alpha virt. eigenvalues --    0.18502   0.19929   0.20932   0.23272   0.24133

 Mulliken charges:
               1
     1  C   -0.181530
     2  C   -0.039687
     3  C   -0.032586
     4  C   -0.173353
     5  H    0.073367
     6  H    0.077735
     7  H    0.074874
     8  H    0.058634
     9  H    0.056910
    10  H    0.085637
 Sum of Mulliken charges =   0.00000

 Dipole moment (field-independent basis, Debye):
    X=              0.0635    Y=              0.0995    Z=              0.1883  Tot=              0.2222
 Quadrupole moment (field-independent basis, Debye-Ang):
   XX=            -24.6755   YY=            -22.8009   ZZ=            -29.5572
   XY=              0.0551   XZ=             -0.2742   YZ=             -0.2001

 1\1\GINC-NODE24\SP\RB2PLYPD3-FC\def2QZVP\C4H6\BOITTIER\26-Aug-2020\0\\
 #p B2PLYPD3/Def2QZVP\\butadiene\\0,1\C,0,-3.835905,0.218939,0.003151\C
 ,0,-2.702069,-0.521531,0.066314\C,0,-1.37465,0.130943,0.008956\C,0,-0.
 280282,-0.682865,0.042508\H,0,-4.822962,-0.31138,-0.212175\H,0,-3.8807
 32,1.307066,0.120026\H,0,-2.682973,-1.553075,0.184894\H,0,-1.293377,1.
 256796,0.003933\H,0,-0.535637,-1.809128,-0.062085\H,0,0.703826,-0.2318
 68,-0.147031\\Version=ES64L-G09RevD.01\State=1-A\HF=-155.6770684\MP2=-
 155.9057596\RMSD=4.332e-09\PG=C01 [X(C4H6)]\\@

 Normal termination of Gaussian 09 at Wed Aug 26 11:34:13 2020.
