 Gaussian 09, Revision D.01,
 Gaussian 09:  ES64L-G09RevD.01 24-Apr-2013

 --------------------
 #p B2PLYPD3/Def2QZVP
 --------------------

 ---------
 butadiene
 ---------
 Symbolic Z-matrix:
 Charge =  0 Multiplicity = 1

                         Standard orientation:
 ---------------------------------------------------------------------
 Center     Atomic      Atomic             Coordinates (Angstroms)
 Number     Number       Type             X           Y           Z
 ---------------------------------------------------------------------
      1          6           0        1.842724   -0.120978   -0.024707
      2          6           0        0.613126    0.408873    0.030229
      3          6           0       -0.602664   -0.381230    0.007831
      4          6           0       -1.845318    0.099162   -0.013260
      5          1           0        2.674434    0.535526   -0.037145
      6          1           0        2.018592   -1.174175    0.021908
      7          1           0        0.451166    1.474391    0.023959
      8          1           0       -0.445988   -1.469785    0.033037
      9          1           0       -2.027816    1.157071   -0.018107
     10          1           0       -2.717593   -0.557991   -0.024207
 ---------------------------------------------------------------------

 SCF Done:  E(RB2PLYPD3) =  -155.700185130     A.U. after   11 cycles
 E2(B2PLYPD3) =    -0.2256221114D+00 E(B2PLYPD3) =    -0.15592580724165D+03

 The electronic state is 1-A.
 Alpha  occ. eigenvalues --  -10.62522 -10.62446 -10.61475 -10.61326  -0.93009
 Alpha  occ. eigenvalues --   -0.84983  -0.70510  -0.64036  -0.54660  -0.54014
 Alpha  occ. eigenvalues --   -0.46857  -0.46027  -0.40923  -0.38113  -0.27677
 Alpha virt. eigenvalues --    0.01627   0.06999   0.07434   0.08108   0.09693
 Alpha virt. eigenvalues --    0.11719   0.12389   0.14874   0.15843   0.16040
 Alpha virt. eigenvalues --    0.18784   0.20487   0.21704   0.22888   0.23788

 Mulliken charges:
               1
     1  C   -0.177033
     2  C   -0.036150
     3  C   -0.019099
     4  C   -0.180560
     5  H    0.086423
     6  H    0.072818
     7  H    0.054705
     8  H    0.047576
     9  H    0.064318
    10  H    0.087002
 Sum of Mulliken charges =   0.00000

 Dipole moment (field-independent basis, Debye):
    X=              0.0332    Y=              0.0166    Z=              0.0281  Tot=              0.0466
 Quadrupole moment (field-independent basis, Debye-Ang):
   XX=            -23.4760   YY=            -23.0973   ZZ=            -29.2481
   XY=             -0.2511   XZ=              0.0281   YZ=             -0.0793

 1\1\GINC-NODE33\SP\RB2PLYPD3-FC\def2QZVP\C4H6\BOITTIER\26-Aug-2020\0\\
 #p B2PLYPD3/Def2QZVP\\butadiene\\0,1\C,0,-3.841144,0.238353,-0.005276\
 C,0,-2.72804,-0.504489,0.064419\C,0,-1.389063,0.050868,0.02407\C,0,-0.
 254381,-0.647595,0.016553\H,0,-4.778279,-0.256282,-0.002551\H,0,-3.822
 682,1.306798,0.014986\H,0,-2.762288,-1.581527,0.084776\H,0,-1.345375,1
 .15006,0.02208\H,0,-0.267046,-1.720849,0.038172\H,0,0.722688,-0.160265
 ,-0.009512\\Version=ES64L-G09RevD.01\State=1-A\HF=-155.7001851\MP2=-15
 5.9258072\RMSD=5.763e-09\PG=C01 [X(C4H6)]\\@

 Normal termination of Gaussian 09 at Wed Aug 26 10:44:41 2020.
