 Gaussian 09, Revision D.01,
 Gaussian 09:  ES64L-G09RevD.01 24-Apr-2013

 --------------------
 #p B2PLYPD3/Def2QZVP
 --------------------

 ---------
 butadiene
 ---------
 Symbolic Z-matrix:
 Charge =  0 Multiplicity = 1

                         Standard orientation:
 ---------------------------------------------------------------------
 Center     Atomic      Atomic             Coordinates (Angstroms)
 Number     Number       Type             X           Y           Z
 ---------------------------------------------------------------------
      1          6           0        1.854523    0.089155   -0.028645
      2          6           0        0.598016   -0.386313    0.062028
      3          6           0       -0.620316    0.424602    0.039657
      4          6           0       -1.829100   -0.131385   -0.039942
      5          1           0        2.678958   -0.561198   -0.066222
      6          1           0        2.068682    1.164051   -0.071048
      7          1           0        0.411588   -1.424596   -0.022772
      8          1           0       -0.496086    1.508458    0.023364
      9          1           0       -2.013455   -1.231819   -0.022017
     10          1           0       -2.668423    0.568745   -0.039891
 ---------------------------------------------------------------------

 SCF Done:  E(RB2PLYPD3) =  -155.696266419     A.U. after   11 cycles
 E2(B2PLYPD3) =    -0.2260609413D+00 E(B2PLYPD3) =    -0.15592232736073D+03

 The electronic state is 1-A.
 Alpha  occ. eigenvalues --  -10.62605 -10.62336 -10.61999 -10.61459  -0.92807
 Alpha  occ. eigenvalues --   -0.84776  -0.70082  -0.64036  -0.54401  -0.53737
 Alpha  occ. eigenvalues --   -0.46751  -0.45697  -0.41020  -0.37883  -0.27652
 Alpha virt. eigenvalues --    0.01703   0.07006   0.07332   0.08128   0.09399
 Alpha virt. eigenvalues --    0.11719   0.12252   0.14785   0.15669   0.16029
 Alpha virt. eigenvalues --    0.18775   0.20217   0.21490   0.23062   0.23949

 Mulliken charges:
               1
     1  C   -0.179672
     2  C   -0.033647
     3  C   -0.033848
     4  C   -0.174643
     5  H    0.087842
     6  H    0.064346
     7  H    0.059189
     8  H    0.056412
     9  H    0.072173
    10  H    0.081845
 Sum of Mulliken charges =   0.00000

 Dipole moment (field-independent basis, Debye):
    X=             -0.0260    Y=              0.0032    Z=             -0.1081  Tot=              0.1112
 Quadrupole moment (field-independent basis, Debye-Ang):
   XX=            -23.7758   YY=            -22.9132   ZZ=            -29.3339
   XY=              0.2588   XZ=             -0.2432   YZ=              0.0312

 1\1\GINC-NODE17\SP\RB2PLYPD3-FC\def2QZVP\C4H6\BOITTIER\26-Aug-2020\0\\
 #p B2PLYPD3/Def2QZVP\\butadiene\\0,1\C,0,-3.858816,0.213048,0.054224\C
 ,0,-2.710864,-0.4868,-0.020066\C,0,-1.364825,0.088144,-0.025927\C,0,-0
 .277399,-0.676306,0.072746\H,0,-4.787885,-0.274062,0.114393\H,0,-3.872
 823,1.309789,0.059398\H,0,-2.716617,-1.538171,0.100621\H,0,-1.288949,1
 .176369,-0.047167\H,0,-0.2972,-1.791862,0.092923\H,0,0.675638,-0.14173
 ,0.048355\\Version=ES64L-G09RevD.01\State=1-A\HF=-155.6962664\MP2=-155
 .9223274\RMSD=4.237e-09\PG=C01 [X(C4H6)]\\@

 Normal termination of Gaussian 09 at Wed Aug 26 08:57:39 2020.
