 Gaussian 09, Revision D.01,
 Gaussian 09:  ES64L-G09RevD.01 24-Apr-2013

 --------------------
 #p B2PLYPD3/Def2QZVP
 --------------------

 ---------
 butadiene
 ---------
 Symbolic Z-matrix:
 Charge =  0 Multiplicity = 1

                         Standard orientation:
 ---------------------------------------------------------------------
 Center     Atomic      Atomic             Coordinates (Angstroms)
 Number     Number       Type             X           Y           Z
 ---------------------------------------------------------------------
      1          6           0       -1.831576   -0.097097    0.021942
      2          6           0       -0.606383    0.420493   -0.061770
      3          6           0        0.584400   -0.396666   -0.026823
      4          6           0        1.837748    0.094488    0.043397
      5          1           0       -2.768079    0.422435    0.113032
      6          1           0       -1.911490   -1.210372    0.020711
      7          1           0       -0.436354    1.497606    0.050084
      8          1           0        0.416781   -1.459845   -0.041368
      9          1           0        2.062797    1.154530   -0.047118
     10          1           0        2.731214   -0.531661    0.044187
 ---------------------------------------------------------------------

 SCF Done:  E(RB2PLYPD3) =  -155.696417646     A.U. after   11 cycles
 E2(B2PLYPD3) =    -0.2264259980D+00 E(B2PLYPD3) =    -0.15592284364414D+03

 The electronic state is 1-A.
 Alpha  occ. eigenvalues --  -10.62721 -10.62648 -10.61957 -10.61836  -0.93137
 Alpha  occ. eigenvalues --   -0.84567  -0.70263  -0.64147  -0.55171  -0.53127
 Alpha  occ. eigenvalues --   -0.47208  -0.44773  -0.41009  -0.38256  -0.27555
 Alpha virt. eigenvalues --    0.01475   0.07044   0.07319   0.08132   0.09322
 Alpha virt. eigenvalues --    0.11611   0.12684   0.14494   0.15571   0.16469
 Alpha virt. eigenvalues --    0.18821   0.20089   0.21931   0.22952   0.23695

 Mulliken charges:
               1
     1  C   -0.166094
     2  C   -0.025609
     3  C   -0.030782
     4  C   -0.174872
     5  H    0.089556
     6  H    0.051137
     7  H    0.056632
     8  H    0.056043
     9  H    0.063385
    10  H    0.080604
 Sum of Mulliken charges =   0.00000

 Dipole moment (field-independent basis, Debye):
    X=             -0.0570    Y=              0.0082    Z=              0.0624  Tot=              0.0849
 Quadrupole moment (field-independent basis, Debye-Ang):
   XX=            -23.1574   YY=            -23.4078   ZZ=            -29.3036
   XY=              0.2407   XZ=             -0.4516   YZ=              0.0791

 1\1\GINC-NODE27\SP\RB2PLYPD3-FC\def2QZVP\C4H6\BOITTIER\26-Aug-2020\0\\
 #p B2PLYPD3/Def2QZVP\\butadiene\\0,1\C,0,-3.831686,0.221047,-0.011911\
 C,0,-2.723706,-0.51226,0.091269\C,0,-1.402069,0.068911,0.041742\C,0,-0
 .261463,-0.647635,-0.009484\H,0,-4.848229,-0.118138,-0.094623\H,0,-3.7
 03845,1.329502,-0.039378\H,0,-2.756247,-1.604757,0.007698\H,0,-1.36970
 6,1.144751,0.028403\H,0,-0.236851,-1.728312,0.109097\H,0,0.732588,-0.1
 98123,-0.021553\\Version=ES64L-G09RevD.01\State=1-A\HF=-155.6964176\MP
 2=-155.9228436\RMSD=5.600e-09\PG=C01 [X(C4H6)]\\@

 Normal termination of Gaussian 09 at Wed Aug 26 08:46:51 2020.
