 Gaussian 09, Revision D.01,
 Gaussian 09:  ES64L-G09RevD.01 24-Apr-2013

 --------------------
 #p B2PLYPD3/Def2QZVP
 --------------------

 ---------
 butadiene
 ---------
 Symbolic Z-matrix:
 Charge =  0 Multiplicity = 1

                         Standard orientation:
 ---------------------------------------------------------------------
 Center     Atomic      Atomic             Coordinates (Angstroms)
 Number     Number       Type             X           Y           Z
 ---------------------------------------------------------------------
      1          6           0        1.832989   -0.099383   -0.031589
      2          6           0        0.575157    0.384811    0.067939
      3          6           0       -0.592948   -0.450503    0.012477
      4          6           0       -1.834696    0.117178   -0.040332
      5          1           0        2.557606    0.638582   -0.073032
      6          1           0        2.167726   -1.096845   -0.238727
      7          1           0        0.370399    1.447957    0.200329
      8          1           0       -0.444087   -1.436220    0.291640
      9          1           0       -1.876732    1.245756   -0.181136
     10          1           0       -2.657918   -0.511850   -0.050048
 ---------------------------------------------------------------------

 SCF Done:  E(RB2PLYPD3) =  -155.682813088     A.U. after   11 cycles
 E2(B2PLYPD3) =    -0.2269561117D+00 E(B2PLYPD3) =    -0.15590976919956D+03

 The electronic state is 1-A.
 Alpha  occ. eigenvalues --  -10.62557 -10.62083 -10.61935 -10.60931  -0.93094
 Alpha  occ. eigenvalues --   -0.84456  -0.70856  -0.64489  -0.55205  -0.53361
 Alpha  occ. eigenvalues --   -0.46898  -0.45858  -0.41818  -0.37302  -0.27138
 Alpha virt. eigenvalues --    0.01213   0.07104   0.07500   0.08047   0.08988
 Alpha virt. eigenvalues --    0.11663   0.12397   0.14893   0.15314   0.16075
 Alpha virt. eigenvalues --    0.18475   0.20058   0.21661   0.22608   0.24062

 Mulliken charges:
               1
     1  C   -0.183191
     2  C   -0.033433
     3  C   -0.040707
     4  C   -0.190072
     5  H    0.077184
     6  H    0.076589
     7  H    0.057548
     8  H    0.076312
     9  H    0.067002
    10  H    0.092768
 Sum of Mulliken charges =   0.00000

 Dipole moment (field-independent basis, Debye):
    X=             -0.0161    Y=             -0.0429    Z=             -0.0041  Tot=              0.0460
 Quadrupole moment (field-independent basis, Debye-Ang):
   XX=            -24.0912   YY=            -22.9467   ZZ=            -29.1309
   XY=             -0.3089   XZ=             -0.4235   YZ=             -0.1041

 1\1\GINC-NODE30\SP\RB2PLYPD3-FC\def2QZVP\C4H6\BOITTIER\26-Aug-2020\0\\
 #p B2PLYPD3/Def2QZVP\\butadiene\\0,1\C,0,-3.8358,0.227381,-0.017244\C,
 0,-2.693776,-0.486408,0.095788\C,0,-1.387561,0.109689,0.034427\C,0,-0.
 2769,-0.685273,-0.003745\H,0,-4.68787,-0.359269,-0.051861\H,0,-3.97346
 9,1.267151,-0.240431\H,0,-2.696057,-1.566969,0.244502\H,0,-1.346171,1.
 109798,0.298622\H,0,-0.450752,-1.803125,-0.128103\H,0,0.651286,-0.2251
 36,-0.018202\\Version=ES64L-G09RevD.01\State=1-A\HF=-155.6828131\MP2=-
 155.9097692\RMSD=8.359e-09\PG=C01 [X(C4H6)]\\@

 Normal termination of Gaussian 09 at Wed Aug 26 13:51:13 2020.
