 Gaussian 09, Revision D.01,
 Gaussian 09:  ES64L-G09RevD.01 24-Apr-2013

 --------------------
 #p B2PLYPD3/Def2QZVP
 --------------------

 ---------
 butadiene
 ---------
 Symbolic Z-matrix:
 Charge =  0 Multiplicity = 1

                         Standard orientation:
 ---------------------------------------------------------------------
 Center     Atomic      Atomic             Coordinates (Angstroms)
 Number     Number       Type             X           Y           Z
 ---------------------------------------------------------------------
      1          6           0        1.841473    0.109013   -0.045874
      2          6           0        0.601639   -0.400249    0.048058
      3          6           0       -0.592379    0.409554    0.039575
      4          6           0       -1.817809   -0.120627   -0.031200
      5          1           0        2.729732   -0.519519   -0.107468
      6          1           0        1.936560    1.166856    0.036343
      7          1           0        0.441542   -1.435738    0.116591
      8          1           0       -0.571591    1.500836    0.027835
      9          1           0       -1.996930   -1.191037   -0.071437
     10          1           0       -2.736862    0.492454   -0.065216
 ---------------------------------------------------------------------

 SCF Done:  E(RB2PLYPD3) =  -155.696792399     A.U. after   11 cycles
 E2(B2PLYPD3) =    -0.2260099017D+00 E(B2PLYPD3) =    -0.15592280230106D+03

 The electronic state is 1-A.
 Alpha  occ. eigenvalues --  -10.62526 -10.62279 -10.61707 -10.61493  -0.93218
 Alpha  occ. eigenvalues --   -0.84766  -0.70014  -0.64554  -0.54707  -0.53898
 Alpha  occ. eigenvalues --   -0.46294  -0.45562  -0.41664  -0.38077  -0.27445
 Alpha virt. eigenvalues --    0.01636   0.07011   0.07523   0.07976   0.09469
 Alpha virt. eigenvalues --    0.11683   0.12531   0.14573   0.15837   0.16346
 Alpha virt. eigenvalues --    0.18759   0.20246   0.21623   0.22799   0.24082

 Mulliken charges:
               1
     1  C   -0.178231
     2  C   -0.038559
     3  C   -0.024911
     4  C   -0.173540
     5  H    0.087116
     6  H    0.070805
     7  H    0.064087
     8  H    0.055030
     9  H    0.060342
    10  H    0.077862
 Sum of Mulliken charges =   0.00000

 Dipole moment (field-independent basis, Debye):
    X=             -0.0426    Y=             -0.0271    Z=              0.0071  Tot=              0.0510
 Quadrupole moment (field-independent basis, Debye-Ang):
   XX=            -23.5379   YY=            -23.1053   ZZ=            -29.2550
   XY=             -0.0439   XZ=              0.1189   YZ=              0.0618

 1\1\GINC-NODE21\SP\RB2PLYPD3-FC\def2QZVP\C4H6\BOITTIER\26-Aug-2020\0\\
 #p B2PLYPD3/Def2QZVP\\butadiene\\0,1\C,0,-3.84103,0.22074,0.062662\C,0
 ,-2.711685,-0.503502,-0.010919\C,0,-1.392773,0.081122,-0.025705\C,0,-0
 .280818,-0.655715,0.065979\H,0,-4.82663,-0.237611,0.142389\H,0,-3.7469
 2,1.27536,-0.054614\H,0,-2.738307,-1.552646,-0.044861\H,0,-1.21932,1.1
 58522,-0.049965\H,0,-0.294591,-1.739006,0.141951\H,0,0.732633,-0.21488
 5,0.082406\\Version=ES64L-G09RevD.01\State=1-A\HF=-155.6967924\MP2=-15
 5.9228023\RMSD=6.099e-09\PG=C01 [X(C4H6)]\\@

 Normal termination of Gaussian 09 at Wed Aug 26 10:41:32 2020.
