 Gaussian 09, Revision D.01,
 Gaussian 09:  ES64L-G09RevD.01 24-Apr-2013

 --------------------
 #p B2PLYPD3/Def2QZVP
 --------------------

 ---------
 butadiene
 ---------
 Symbolic Z-matrix:
 Charge =  0 Multiplicity = 1

                         Standard orientation:
 ---------------------------------------------------------------------
 Center     Atomic      Atomic             Coordinates (Angstroms)
 Number     Number       Type             X           Y           Z
 ---------------------------------------------------------------------
      1          6           0       -1.840323   -0.116795    0.022050
      2          6           0       -0.618341    0.417836   -0.024149
      3          6           0        0.601372   -0.384899   -0.017760
      4          6           0        1.854468    0.089890    0.007614
      5          1           0       -2.751796    0.511587    0.001513
      6          1           0       -2.029986   -1.221994    0.072716
      7          1           0       -0.449191    1.499155   -0.107824
      8          1           0        0.423355   -1.444854   -0.033821
      9          1           0        2.025073    1.128631    0.185305
     10          1           0        2.799489   -0.508718   -0.044420
 ---------------------------------------------------------------------

 SCF Done:  E(RB2PLYPD3) =  -155.695251868     A.U. after   11 cycles
 E2(B2PLYPD3) =    -0.2264052545D+00 E(B2PLYPD3) =    -0.15592165712212D+03

 The electronic state is 1-A.
 Alpha  occ. eigenvalues --  -10.62964 -10.62608 -10.62459 -10.61869  -0.92830
 Alpha  occ. eigenvalues --   -0.84607  -0.69973  -0.64005  -0.54541  -0.53161
 Alpha  occ. eigenvalues --   -0.47224  -0.45024  -0.40580  -0.37988  -0.27734
 Alpha virt. eigenvalues --    0.01536   0.06938   0.07329   0.08020   0.09448
 Alpha virt. eigenvalues --    0.11573   0.12427   0.14502   0.15742   0.16200
 Alpha virt. eigenvalues --    0.18882   0.20371   0.21667   0.22709   0.23146

 Mulliken charges:
               1
     1  C   -0.168173
     2  C   -0.037756
     3  C   -0.026680
     4  C   -0.175224
     5  H    0.083514
     6  H    0.065060
     7  H    0.057978
     8  H    0.056198
     9  H    0.062304
    10  H    0.082778
 Sum of Mulliken charges =   0.00000

 Dipole moment (field-independent basis, Debye):
    X=             -0.0493    Y=              0.0099    Z=              0.0452  Tot=              0.0676
 Quadrupole moment (field-independent basis, Debye-Ang):
   XX=            -23.1919   YY=            -23.3916   ZZ=            -29.3410
   XY=              0.3411   XZ=              0.1223   YZ=              0.0670

 1\1\GINC-NODE17\SP\RB2PLYPD3-FC\def2QZVP\C4H6\BOITTIER\26-Aug-2020\0\\
 #p B2PLYPD3/Def2QZVP\\butadiene\\0,1\C,0,-3.840062,0.233505,-0.002617\
 C,0,-2.735126,-0.512425,0.059897\C,0,-1.390081,0.055145,0.030847\C,0,-
 0.244028,-0.639668,0.020092\H,0,-4.850291,-0.218203,0.035678\H,0,-3.82
 6342,1.352848,-0.085603\H,0,-2.764532,-1.603622,0.175169\H,0,-1.372802
 ,1.129822,0.015886\H,0,-0.265507,-1.696799,-0.127131\H,0,0.794132,-0.2
 21225,0.055226\\Version=ES64L-G09RevD.01\State=1-A\HF=-155.6952519\MP2
 =-155.9216571\RMSD=2.776e-09\PG=C01 [X(C4H6)]\\@

 Normal termination of Gaussian 09 at Wed Aug 26 09:27:57 2020.
