 Gaussian 09, Revision D.01,
 Gaussian 09:  ES64L-G09RevD.01 24-Apr-2013

 --------------------
 #p B2PLYPD3/Def2QZVP
 --------------------

 ---------
 butadiene
 ---------
 Symbolic Z-matrix:
 Charge =  0 Multiplicity = 1

                         Standard orientation:
 ---------------------------------------------------------------------
 Center     Atomic      Atomic             Coordinates (Angstroms)
 Number     Number       Type             X           Y           Z
 ---------------------------------------------------------------------
      1          6           0        1.814192   -0.127351    0.015419
      2          6           0        0.590883    0.426473   -0.027963
      3          6           0       -0.594124   -0.383523   -0.032815
      4          6           0       -1.832516    0.094060    0.019488
      5          1           0        2.678196    0.442876    0.081232
      6          1           0        1.999406   -1.165592    0.054542
      7          1           0        0.559706    1.532976   -0.024335
      8          1           0       -0.439998   -1.462149   -0.078131
      9          1           0       -2.002179    1.156765    0.009365
     10          1           0       -2.665745   -0.562836    0.112546
 ---------------------------------------------------------------------

 SCF Done:  E(RB2PLYPD3) =  -155.697297146     A.U. after   11 cycles
 E2(B2PLYPD3) =    -0.2254708286D+00 E(B2PLYPD3) =    -0.15592276797491D+03

 The electronic state is 1-A.
 Alpha  occ. eigenvalues --  -10.62725 -10.62271 -10.60994 -10.60726  -0.93274
 Alpha  occ. eigenvalues --   -0.85078  -0.70692  -0.64115  -0.55037  -0.54365
 Alpha  occ. eigenvalues --   -0.46319  -0.45710  -0.41737  -0.38250  -0.27440
 Alpha virt. eigenvalues --    0.01723   0.07101   0.07409   0.08065   0.09615
 Alpha virt. eigenvalues --    0.11692   0.12557   0.14857   0.15899   0.16363
 Alpha virt. eigenvalues --    0.18706   0.20494   0.21839   0.23082   0.23851

 Mulliken charges:
               1
     1  C   -0.174303
     2  C   -0.028839
     3  C   -0.026955
     4  C   -0.179607
     5  H    0.080439
     6  H    0.062597
     7  H    0.054598
     8  H    0.056256
     9  H    0.068008
    10  H    0.087805
 Sum of Mulliken charges =   0.00000

 Dipole moment (field-independent basis, Debye):
    X=              0.0814    Y=             -0.0163    Z=              0.1042  Tot=              0.1332
 Quadrupole moment (field-independent basis, Debye-Ang):
   XX=            -23.4952   YY=            -22.9966   ZZ=            -29.1482
   XY=             -0.1242   XZ=              0.0241   YZ=             -0.0276

 1\1\GINC-NODE17\SP\RB2PLYPD3-FC\def2QZVP\C4H6\BOITTIER\26-Aug-2020\0\\
 #p B2PLYPD3/Def2QZVP\\butadiene\\0,1\C,0,-3.814954,0.241971,0.036741\C
 ,0,-2.713068,-0.526275,0.009676\C,0,-1.400415,0.054005,-0.014309\C,0,-
 0.269514,-0.639579,0.052325\H,0,-4.768124,-0.159508,0.115955\H,0,-3.80
 7918,1.297238,0.048627\H,0,-2.883858,-1.619489,0.042053\H,0,-1.355725,
 1.14113,-0.087832\H,0,-0.296203,-1.715313,0.070039\H,0,0.669678,-0.143
 207,0.129631\\Version=ES64L-G09RevD.01\State=1-A\HF=-155.6972971\MP2=-
 155.922768\RMSD=6.280e-09\PG=C01 [X(C4H6)]\\@

 Normal termination of Gaussian 09 at Wed Aug 26 10:13:17 2020.
