 Gaussian 09, Revision D.01,
 Gaussian 09:  ES64L-G09RevD.01 24-Apr-2013

 --------------------
 #p B2PLYPD3/Def2QZVP
 --------------------

 ---------
 butadiene
 ---------
 Symbolic Z-matrix:
 Charge =  0 Multiplicity = 1

                         Standard orientation:
 ---------------------------------------------------------------------
 Center     Atomic      Atomic             Coordinates (Angstroms)
 Number     Number       Type             X           Y           Z
 ---------------------------------------------------------------------
      1          6           0       -1.853568    0.094187    0.027259
      2          6           0       -0.612139   -0.372629   -0.007427
      3          6           0        0.618087    0.416486   -0.044779
      4          6           0        1.851108   -0.143972    0.029097
      5          1           0       -2.734801   -0.497078   -0.077355
      6          1           0       -2.015363    1.135165    0.101058
      7          1           0       -0.523179   -1.465909   -0.092283
      8          1           0        0.546940    1.528500   -0.011804
      9          1           0        1.991535   -1.195842    0.112841
     10          1           0        2.713943    0.530734   -0.057358
 ---------------------------------------------------------------------

 SCF Done:  E(RB2PLYPD3) =  -155.695743278     A.U. after   11 cycles
 E2(B2PLYPD3) =    -0.2261482854D+00 E(B2PLYPD3) =    -0.15592189156318D+03

 The electronic state is 1-A.
 Alpha  occ. eigenvalues --  -10.63361 -10.62596 -10.61962 -10.60855  -0.92638
 Alpha  occ. eigenvalues --   -0.84991  -0.70175  -0.63806  -0.54423  -0.54302
 Alpha  occ. eigenvalues --   -0.46511  -0.45587  -0.41130  -0.37803  -0.27654
 Alpha virt. eigenvalues --    0.01484   0.06998   0.07460   0.07916   0.09552
 Alpha virt. eigenvalues --    0.11639   0.12417   0.14667   0.15727   0.16252
 Alpha virt. eigenvalues --    0.18896   0.20252   0.21694   0.22528   0.23847

 Mulliken charges:
               1
     1  C   -0.174768
     2  C   -0.020856
     3  C   -0.043861
     4  C   -0.174963
     5  H    0.087197
     6  H    0.059676
     7  H    0.050136
     8  H    0.055567
     9  H    0.076519
    10  H    0.085353
 Sum of Mulliken charges =   0.00000

 Dipole moment (field-independent basis, Debye):
    X=              0.0046    Y=              0.0076    Z=             -0.0467  Tot=              0.0475
 Quadrupole moment (field-independent basis, Debye-Ang):
   XX=            -23.3922   YY=            -23.1288   ZZ=            -29.3009
   XY=             -0.0133   XZ=              0.1838   YZ=              0.0904

 1\1\GINC-NODE12\SP\RB2PLYPD3-FC\def2QZVP\C4H6\BOITTIER\26-Aug-2020\0\\
 #p B2PLYPD3/Def2QZVP\\butadiene\\0,1\C,0,-3.861898,0.200362,0.043788\C
 ,0,-2.72014,-0.475098,0.023605\C,0,-1.371888,0.087903,-0.029307\C,0,-0
 .254466,-0.675693,0.061257\H,0,-4.832378,-0.231688,-0.049019\H,0,-3.84
 0837,1.255098,0.092238\H,0,-2.822011,-1.568982,-0.034843\H,0,-1.249305
 ,1.195901,-0.023125\H,0,-0.298223,-1.733669,0.170508\H,0,0.712059,-0.1
 6289,-0.038994\\Version=ES64L-G09RevD.01\State=1-A\HF=-155.6957433\MP2
 =-155.9218916\RMSD=7.323e-09\PG=C01 [X(C4H6)]\\@

 Normal termination of Gaussian 09 at Wed Aug 26 08:21:31 2020.
