 Gaussian 09, Revision D.01,
 Gaussian 09:  ES64L-G09RevD.01 24-Apr-2013

 --------------------
 #p B2PLYPD3/Def2QZVP
 --------------------

 ---------
 butadiene
 ---------
 Symbolic Z-matrix:
 Charge =  0 Multiplicity = 1

                         Standard orientation:
 ---------------------------------------------------------------------
 Center     Atomic      Atomic             Coordinates (Angstroms)
 Number     Number       Type             X           Y           Z
 ---------------------------------------------------------------------
      1          6           0        1.850991    0.107923    0.089258
      2          6           0        0.613117   -0.402573   -0.075614
      3          6           0       -0.613122    0.350913   -0.051499
      4          6           0       -1.872994   -0.110919    0.050103
      5          1           0        2.856101   -0.398013   -0.047187
      6          1           0        1.966576    1.177727    0.105285
      7          1           0        0.519915   -1.459078   -0.247429
      8          1           0       -0.481737    1.472942   -0.083205
      9          1           0       -2.077180   -1.077745    0.356092
     10          1           0       -2.651629    0.612099   -0.157045
 ---------------------------------------------------------------------

 SCF Done:  E(RB2PLYPD3) =  -155.685052271     A.U. after   11 cycles
 E2(B2PLYPD3) =    -0.2270064259D+00 E(B2PLYPD3) =    -0.15591205869732D+03

 The electronic state is 1-A.
 Alpha  occ. eigenvalues --  -10.63093 -10.62822 -10.62403 -10.61346  -0.92889
 Alpha  occ. eigenvalues --   -0.84849  -0.70678  -0.63836  -0.54567  -0.53990
 Alpha  occ. eigenvalues --   -0.47133  -0.45417  -0.40833  -0.37490  -0.27438
 Alpha virt. eigenvalues --    0.00676   0.06931   0.07676   0.07772   0.09588
 Alpha virt. eigenvalues --    0.11587   0.12415   0.14618   0.15820   0.16148
 Alpha virt. eigenvalues --    0.19019   0.19952   0.21358   0.21992   0.23846

 Mulliken charges:
               1
     1  C   -0.156489
     2  C   -0.046159
     3  C   -0.022977
     4  C   -0.191677
     5  H    0.077857
     6  H    0.056347
     7  H    0.063052
     8  H    0.046789
     9  H    0.083079
    10  H    0.090180
 Sum of Mulliken charges =   0.00000

 Dipole moment (field-independent basis, Debye):
    X=              0.0454    Y=              0.0129    Z=             -0.1153  Tot=              0.1245
 Quadrupole moment (field-independent basis, Debye-Ang):
   XX=            -23.2482   YY=            -23.6015   ZZ=            -29.1319
   XY=              0.1992   XZ=             -0.3961   YZ=             -0.2248

 1\1\GINC-NODE04\SP\RB2PLYPD3-FC\def2QZVP\C4H6\BOITTIER\26-Aug-2020\0\\
 #p B2PLYPD3/Def2QZVP\\butadiene\\0,1\C,0,-3.857176,0.220844,-0.060963\
 C,0,-2.727416,-0.495429,0.114298\C,0,-1.387909,0.029587,0.068853\C,0,-
 0.229621,-0.649179,-0.023542\H,0,-4.934739,-0.096751,0.090119\H,0,-3.7
 82825,1.293571,-0.103678\H,0,-2.820473,-1.547324,0.31246\H,0,-1.319619
 ,1.157655,0.072572\H,0,-0.200678,-1.644032,-0.305503\H,0,0.665379,-0.0
 69695,0.163837\\Version=ES64L-G09RevD.01\State=1-A\HF=-155.6850523\MP2
 =-155.9120587\RMSD=8.058e-09\PG=C01 [X(C4H6)]\\@

 Normal termination of Gaussian 09 at Wed Aug 26 14:47:49 2020.
