 Gaussian 09, Revision D.01,
 Gaussian 09:  ES64L-G09RevD.01 24-Apr-2013

 --------------------
 #p B2PLYPD3/Def2QZVP
 --------------------

 ---------
 butadiene
 ---------
 Symbolic Z-matrix:
 Charge =  0 Multiplicity = 1

                         Standard orientation:
 ---------------------------------------------------------------------
 Center     Atomic      Atomic             Coordinates (Angstroms)
 Number     Number       Type             X           Y           Z
 ---------------------------------------------------------------------
      1          6           0        1.834379   -0.105810   -0.000247
      2          6           0        0.595075    0.395620   -0.001127
      3          6           0       -0.601040   -0.415153   -0.019423
      4          6           0       -1.833682    0.115241    0.010419
      5          1           0        2.659642    0.542515   -0.019003
      6          1           0        2.047979   -1.151214    0.095016
      7          1           0        0.438734    1.475411   -0.048538
      8          1           0       -0.478541   -1.481862   -0.017542
      9          1           0       -1.941129    1.196803    0.081213
     10          1           0       -2.695081   -0.521043   -0.028878
 ---------------------------------------------------------------------

 SCF Done:  E(RB2PLYPD3) =  -155.699813442     A.U. after   11 cycles
 E2(B2PLYPD3) =    -0.2256753559D+00 E(B2PLYPD3) =    -0.15592548879786D+03

 The electronic state is 1-A.
 Alpha  occ. eigenvalues --  -10.62489 -10.62275 -10.61515 -10.60995  -0.93099
 Alpha  occ. eigenvalues --   -0.84897  -0.70414  -0.64207  -0.54808  -0.54055
 Alpha  occ. eigenvalues --   -0.46467  -0.45991  -0.41540  -0.38100  -0.27475
 Alpha virt. eigenvalues --    0.01653   0.07062   0.07411   0.08134   0.09535
 Alpha virt. eigenvalues --    0.11756   0.12423   0.14878   0.15815   0.16153
 Alpha virt. eigenvalues --    0.18712   0.20399   0.21698   0.22974   0.24008

 Mulliken charges:
               1
     1  C   -0.180497
     2  C   -0.027893
     3  C   -0.029969
     4  C   -0.179915
     5  H    0.084626
     6  H    0.068843
     7  H    0.052793
     8  H    0.056716
     9  H    0.066219
    10  H    0.089077
 Sum of Mulliken charges =   0.00000

 Dipole moment (field-independent basis, Debye):
    X=              0.0116    Y=             -0.0317    Z=              0.0510  Tot=              0.0611
 Quadrupole moment (field-independent basis, Debye-Ang):
   XX=            -23.6498   YY=            -22.9782   ZZ=            -29.2270
   XY=             -0.1318   XZ=              0.0524   YZ=             -0.0541

 1\1\GINC-NODE02\SP\RB2PLYPD3-FC\def2QZVP\C4H6\BOITTIER\26-Aug-2020\0\\
 #p B2PLYPD3/Def2QZVP\\butadiene\\0,1\C,0,-3.837133,0.223363,0.020475\C
 ,0,-2.710343,-0.495992,0.033857\C,0,-1.386275,0.081783,-0.003538\C,0,-
 0.271223,-0.664048,0.041283\H,0,-4.767037,-0.263468,0.017164\H,0,-3.85
 5766,1.29226,0.088905\H,0,-2.754125,-1.587015,0.014066\H,0,-1.311768,1
 .152616,-0.028889\H,0,-0.362994,-1.744898,0.139644\H,0,0.691809,-0.197
 118,-0.01309\\Version=ES64L-G09RevD.01\State=1-A\HF=-155.6998134\MP2=-
 155.9254888\RMSD=3.555e-09\PG=C01 [X(C4H6)]\\@

 Normal termination of Gaussian 09 at Wed Aug 26 20:41:23 2020.
