 Gaussian 09, Revision D.01,
 Gaussian 09:  ES64L-G09RevD.01 24-Apr-2013

 --------------------
 #p B2PLYPD3/Def2QZVP
 --------------------

 ---------
 butadiene
 ---------
 Symbolic Z-matrix:
 Charge =  0 Multiplicity = 1

                         Standard orientation:
 ---------------------------------------------------------------------
 Center     Atomic      Atomic             Coordinates (Angstroms)
 Number     Number       Type             X           Y           Z
 ---------------------------------------------------------------------
      1          6           0       -1.873837    0.093428    0.017534
      2          6           0       -0.611938   -0.361270   -0.084520
      3          6           0        0.652035    0.453407   -0.003703
      4          6           0        1.862007   -0.134954    0.026606
      5          1           0       -2.621325   -0.659859    0.220954
      6          1           0       -2.137978    1.092760    0.077205
      7          1           0       -0.532877   -1.410888   -0.050931
      8          1           0        0.423644    1.522125   -0.125033
      9          1           0        1.941322   -1.232041    0.022401
     10          1           0        2.757615    0.384236    0.119904
 ---------------------------------------------------------------------

 SCF Done:  E(RB2PLYPD3) =  -155.688596729     A.U. after   11 cycles
 E2(B2PLYPD3) =    -0.2260843194D+00 E(B2PLYPD3) =    -0.15591468104820D+03

 The electronic state is 1-A.
 Alpha  occ. eigenvalues --  -10.63619 -10.62427 -10.61835 -10.60969  -0.92156
 Alpha  occ. eigenvalues --   -0.85056  -0.70356  -0.64453  -0.54737  -0.53829
 Alpha  occ. eigenvalues --   -0.47016  -0.46241  -0.40818  -0.37191  -0.27820
 Alpha virt. eigenvalues --    0.01603   0.06967   0.07500   0.08232   0.09018
 Alpha virt. eigenvalues --    0.11605   0.12519   0.14718   0.15454   0.16266
 Alpha virt. eigenvalues --    0.19001   0.20215   0.21818   0.22223   0.24640

 Mulliken charges:
               1
     1  C   -0.179122
     2  C   -0.023375
     3  C   -0.056366
     4  C   -0.164255
     5  H    0.077160
     6  H    0.067599
     7  H    0.057413
     8  H    0.063943
     9  H    0.066804
    10  H    0.090199
 Sum of Mulliken charges =   0.00000

 Dipole moment (field-independent basis, Debye):
    X=              0.1153    Y=             -0.0004    Z=              0.1941  Tot=              0.2258
 Quadrupole moment (field-independent basis, Debye-Ang):
   XX=            -23.5345   YY=            -23.0768   ZZ=            -29.2486
   XY=             -0.3645   XZ=             -0.4741   YZ=             -0.2006

 1\1\GINC-NODE35\SP\RB2PLYPD3-FC\def2QZVP\C4H6\BOITTIER\26-Aug-2020\0\\
 #p B2PLYPD3/Def2QZVP\\butadiene\\0,1\C,0,-3.884119,0.205166,0.045067\C
 ,0,-2.723584,-0.470358,-0.034795\C,0,-1.334758,0.110772,0.00137\C,0,-0
 .247532,-0.680133,0.060774\H,0,-4.750731,-0.392448,0.28879\H,0,-3.9668
 73,1.237198,0.052611\H,0,-2.830876,-1.514262,0.053695\H,0,-1.372,1.195
 374,-0.175529\H,0,-0.363366,-1.772679,0.114012\H,0,0.726669,-0.32358,0
 .125429\\Version=ES64L-G09RevD.01\State=1-A\HF=-155.6885967\MP2=-155.9
 14681\RMSD=5.738e-09\PG=C01 [X(C4H6)]\\@

 Normal termination of Gaussian 09 at Wed Aug 26 14:22:53 2020.
