 Gaussian 09, Revision D.01,
 Gaussian 09:  ES64L-G09RevD.01 24-Apr-2013

 --------------------
 #p B2PLYPD3/Def2QZVP
 --------------------

 ---------
 butadiene
 ---------
 Symbolic Z-matrix:
 Charge =  0 Multiplicity = 1

                         Standard orientation:
 ---------------------------------------------------------------------
 Center     Atomic      Atomic             Coordinates (Angstroms)
 Number     Number       Type             X           Y           Z
 ---------------------------------------------------------------------
      1          6           0       -1.844887    0.094772    0.003016
      2          6           0       -0.610135   -0.377851   -0.008692
      3          6           0        0.604759    0.408421   -0.028302
      4          6           0        1.842167   -0.125585    0.017510
      5          1           0       -2.730619   -0.531491    0.075167
      6          1           0       -1.999095    1.164370    0.036053
      7          1           0       -0.470854   -1.449786   -0.042588
      8          1           0        0.516192    1.510202   -0.034503
      9          1           0        1.989583   -1.172886   -0.011094
     10          1           0        2.743372    0.481046    0.075773
 ---------------------------------------------------------------------

 SCF Done:  E(RB2PLYPD3) =  -155.699631926     A.U. after   11 cycles
 E2(B2PLYPD3) =    -0.2257459266D+00 E(B2PLYPD3) =    -0.15592537785250D+03

 The electronic state is 1-A.
 Alpha  occ. eigenvalues --  -10.62971 -10.62285 -10.61606 -10.61362  -0.93053
 Alpha  occ. eigenvalues --   -0.84989  -0.70322  -0.64037  -0.54678  -0.54054
 Alpha  occ. eigenvalues --   -0.46807  -0.45457  -0.41113  -0.38174  -0.27693
 Alpha virt. eigenvalues --    0.01599   0.06995   0.07477   0.07992   0.09711
 Alpha virt. eigenvalues --    0.11629   0.12545   0.14643   0.15865   0.16235
 Alpha virt. eigenvalues --    0.18841   0.20485   0.21735   0.22710   0.23677

 Mulliken charges:
               1
     1  C   -0.172123
     2  C   -0.024644
     3  C   -0.032464
     4  C   -0.175935
     5  H    0.087262
     6  H    0.061432
     7  H    0.052509
     8  H    0.051688
     9  H    0.067271
    10  H    0.085004
 Sum of Mulliken charges =   0.00000

 Dipole moment (field-independent basis, Debye):
    X=              0.0304    Y=             -0.0253    Z=              0.0665  Tot=              0.0774
 Quadrupole moment (field-independent basis, Debye-Ang):
   XX=            -23.2548   YY=            -23.2441   ZZ=            -29.2475
   XY=             -0.0621   XZ=             -0.0800   YZ=              0.0718

 1\1\GINC-NODE26\SP\RB2PLYPD3-FC\def2QZVP\C4H6\BOITTIER\26-Aug-2020\0\\
 #p B2PLYPD3/Def2QZVP\\butadiene\\0,1\C,0,-3.849995,0.206019,0.025409\C
 ,0,-2.718777,-0.478426,0.026986\C,0,-1.383703,0.07894,-0.01169\C,0,-0.
 260555,-0.664901,0.048968\H,0,-4.832545,-0.251026,0.112803\H,0,-3.8118
 02,1.286493,0.030819\H,0,-2.772077,-1.558571,0.020764\H,0,-1.275343,1.
 178425,-0.046271\H,0,-0.301459,-1.722121,0.04741\H,0,0.734214,-0.22659
 8,0.092463\\Version=ES64L-G09RevD.01\State=1-A\HF=-155.6996319\MP2=-15
 5.9253779\RMSD=5.287e-09\PG=C01 [X(C4H6)]\\@

 Normal termination of Gaussian 09 at Wed Aug 26 21:58:45 2020.
