 Gaussian 09, Revision D.01,
 Gaussian 09:  ES64L-G09RevD.01 24-Apr-2013

 --------------------
 #p B2PLYPD3/Def2QZVP
 --------------------

 ---------
 butadiene
 ---------
 Symbolic Z-matrix:
 Charge =  0 Multiplicity = 1

                         Standard orientation:
 ---------------------------------------------------------------------
 Center     Atomic      Atomic             Coordinates (Angstroms)
 Number     Number       Type             X           Y           Z
 ---------------------------------------------------------------------
      1          6           0        1.831220   -0.111047    0.027251
      2          6           0        0.607663    0.410693   -0.016151
      3          6           0       -0.593824   -0.393881   -0.038942
      4          6           0       -1.834288    0.100859    0.017321
      5          1           0        2.750314    0.479561   -0.022181
      6          1           0        1.945173   -1.193797    0.053142
      7          1           0        0.447474    1.483983   -0.052577
      8          1           0       -0.502004   -1.468497   -0.015839
      9          1           0       -2.005373    1.166929    0.080826
     10          1           0       -2.700210   -0.507915    0.019754
 ---------------------------------------------------------------------

 SCF Done:  E(RB2PLYPD3) =  -155.700297813     A.U. after   11 cycles
 E2(B2PLYPD3) =    -0.2256081303D+00 E(B2PLYPD3) =    -0.15592590594350D+03

 The electronic state is 1-A.
 Alpha  occ. eigenvalues --  -10.62515 -10.62327 -10.61698 -10.61184  -0.93180
 Alpha  occ. eigenvalues --   -0.84949  -0.70223  -0.64230  -0.54857  -0.53922
 Alpha  occ. eigenvalues --   -0.46922  -0.45266  -0.41293  -0.38230  -0.27656
 Alpha virt. eigenvalues --    0.01725   0.07043   0.07431   0.08082   0.09621
 Alpha virt. eigenvalues --    0.11668   0.12575   0.14639   0.15843   0.16274
 Alpha virt. eigenvalues --    0.18799   0.20447   0.21725   0.22684   0.23900

 Mulliken charges:
               1
     1  C   -0.170181
     2  C   -0.032628
     3  C   -0.025204
     4  C   -0.177295
     5  H    0.086330
     6  H    0.063199
     7  H    0.056261
     8  H    0.053270
     9  H    0.059596
    10  H    0.086653
 Sum of Mulliken charges =   0.00000

 Dipole moment (field-independent basis, Debye):
    X=             -0.0063    Y=             -0.0077    Z=              0.0203  Tot=              0.0226
 Quadrupole moment (field-independent basis, Debye-Ang):
   XX=            -23.3360   YY=            -23.1974   ZZ=            -29.2238
   XY=             -0.0658   XZ=             -0.2326   YZ=             -0.0526

 1\1\GINC-NODE28\SP\RB2PLYPD3-FC\def2QZVP\C4H6\BOITTIER\26-Aug-2020\0\\
 #p B2PLYPD3/Def2QZVP\\butadiene\\0,1\C,0,-3.831717,0.225872,0.043548\C
 ,0,-2.722497,-0.509076,0.017628\C,0,-1.395525,0.06458,-0.020997\C,0,-0
 .264703,-0.644351,0.0521\H,0,-4.842381,-0.1902,0.005627\H,0,-3.748303,
 1.311709,0.041894\H,0,-2.758738,-1.594224,0.008679\H,0,-1.291812,1.138
 354,-0.025155\H,0,-0.288824,-1.721839,0.142908\H,0,0.696896,-0.202009,
 0.04239\\Version=ES64L-G09RevD.01\State=1-A\HF=-155.7002978\MP2=-155.9
 259059\RMSD=3.454e-09\PG=C01 [X(C4H6)]\\@

 Normal termination of Gaussian 09 at Wed Aug 26 20:25:06 2020.
