 Gaussian 09, Revision D.01,
 Gaussian 09:  ES64L-G09RevD.01 24-Apr-2013

 --------------------
 #p B2PLYPD3/Def2QZVP
 --------------------

 ---------
 butadiene
 ---------
 Symbolic Z-matrix:
 Charge =  0 Multiplicity = 1

                         Standard orientation:
 ---------------------------------------------------------------------
 Center     Atomic      Atomic             Coordinates (Angstroms)
 Number     Number       Type             X           Y           Z
 ---------------------------------------------------------------------
      1          6           0        1.833125    0.073610    0.027960
      2          6           0        0.608103   -0.367249   -0.108183
      3          6           0       -0.617955    0.424666   -0.067232
      4          6           0       -1.820657   -0.130667    0.065808
      5          1           0        2.744413   -0.532932    0.168853
      6          1           0        1.941218    1.182004    0.277617
      7          1           0        0.312724   -1.383180   -0.037538
      8          1           0       -0.552391    1.569645   -0.147891
      9          1           0       -1.808620   -1.275767    0.108541
     10          1           0       -2.653039    0.438073    0.120300
 ---------------------------------------------------------------------

 SCF Done:  E(RB2PLYPD3) =  -155.679993886     A.U. after   11 cycles
 E2(B2PLYPD3) =    -0.2264513925D+00 E(B2PLYPD3) =    -0.15590644527797D+03

 The electronic state is 1-A.
 Alpha  occ. eigenvalues --  -10.63024 -10.62210 -10.62064 -10.61463  -0.93418
 Alpha  occ. eigenvalues --   -0.85335  -0.70127  -0.63188  -0.55719  -0.52626
 Alpha  occ. eigenvalues --   -0.47933  -0.44205  -0.40220  -0.38292  -0.28155
 Alpha virt. eigenvalues --    0.01860   0.07034   0.07094   0.08046   0.09479
 Alpha virt. eigenvalues --    0.11687   0.12503   0.14251   0.15458   0.16338
 Alpha virt. eigenvalues --    0.18789   0.19945   0.21144   0.23046   0.23439

 Mulliken charges:
               1
     1  C   -0.157024
     2  C   -0.024699
     3  C   -0.020668
     4  C   -0.183296
     5  H    0.086468
     6  H    0.053127
     7  H    0.052020
     8  H    0.039018
     9  H    0.054751
    10  H    0.100302
 Sum of Mulliken charges =   0.00000

 Dipole moment (field-independent basis, Debye):
    X=             -0.0819    Y=             -0.0082    Z=              0.3248  Tot=              0.3351
 Quadrupole moment (field-independent basis, Debye-Ang):
   XX=            -23.6511   YY=            -23.5322   ZZ=            -29.1302
   XY=             -0.3244   XZ=              0.5579   YZ=              0.0200

 1\1\GINC-NODE25\SP\RB2PLYPD3-FC\def2QZVP\C4H6\BOITTIER\26-Aug-2020\0\\
 #p B2PLYPD3/Def2QZVP\\butadiene\\0,1\C,0,-3.84237,0.184256,-0.026526\C
 ,0,-2.716307,-0.465619,0.125838\C,0,-1.368419,0.094018,0.080797\C,0,-0
 .283605,-0.669218,-0.034252\H,0,-4.846683,-0.252357,-0.164056\H,0,-3.7
 49813,1.289599,-0.295227\H,0,-2.606719,-1.519029,0.074134\H,0,-1.22889
 2,1.233562,0.142066\H,0,-0.499669,-1.794371,-0.058166\H,0,0.637154,-0.
 259146,-0.092029\\Version=ES64L-G09RevD.01\State=1-A\HF=-155.6799939\M
 P2=-155.9064453\RMSD=7.795e-09\PG=C01 [X(C4H6)]\\@

 Normal termination of Gaussian 09 at Wed Aug 26 15:58:37 2020.
