 Gaussian 09, Revision D.01,
 Gaussian 09:  ES64L-G09RevD.01 24-Apr-2013

 --------------------
 #p B2PLYPD3/Def2QZVP
 --------------------

 ---------
 butadiene
 ---------
 Symbolic Z-matrix:
 Charge =  0 Multiplicity = 1

                         Standard orientation:
 ---------------------------------------------------------------------
 Center     Atomic      Atomic             Coordinates (Angstroms)
 Number     Number       Type             X           Y           Z
 ---------------------------------------------------------------------
      1          6           0       -1.849130    0.096846    0.002471
      2          6           0       -0.604726   -0.387608   -0.013169
      3          6           0        0.616710    0.417206   -0.020451
      4          6           0        1.837287   -0.122127    0.011681
      5          1           0       -2.735068   -0.527703    0.051591
      6          1           0       -1.993082    1.159530    0.045791
      7          1           0       -0.442291   -1.439023    0.008676
      8          1           0        0.476249    1.482095   -0.048605
      9          1           0        1.973474   -1.208629   -0.032738
     10          1           0        2.719874    0.507833    0.092099
 ---------------------------------------------------------------------

 SCF Done:  E(RB2PLYPD3) =  -155.700271312     A.U. after   11 cycles
 E2(B2PLYPD3) =    -0.2256059592D+00 E(B2PLYPD3) =    -0.15592587727091D+03

 The electronic state is 1-A.
 Alpha  occ. eigenvalues --  -10.62520 -10.62280 -10.61816 -10.61409  -0.92946
 Alpha  occ. eigenvalues --   -0.84909  -0.70051  -0.64419  -0.54562  -0.53841
 Alpha  occ. eigenvalues --   -0.46991  -0.45687  -0.41117  -0.37985  -0.27738
 Alpha virt. eigenvalues --    0.01766   0.06992   0.07458   0.08138   0.09526
 Alpha virt. eigenvalues --    0.11702   0.12487   0.14616   0.15802   0.16143
 Alpha virt. eigenvalues --    0.18787   0.20504   0.21569   0.23018   0.23792

 Mulliken charges:
               1
     1  C   -0.177735
     2  C   -0.027115
     3  C   -0.035331
     4  C   -0.175372
     5  H    0.087234
     6  H    0.062500
     7  H    0.054786
     8  H    0.057093
     9  H    0.067498
    10  H    0.086441
 Sum of Mulliken charges =   0.00000

 Dipole moment (field-independent basis, Debye):
    X=              0.0360    Y=              0.0072    Z=              0.0850  Tot=              0.0926
 Quadrupole moment (field-independent basis, Debye-Ang):
   XX=            -23.4693   YY=            -23.1385   ZZ=            -29.2556
   XY=             -0.1076   XZ=             -0.0650   YZ=              0.0575

 1\1\GINC-NODE35\SP\RB2PLYPD3-FC\def2QZVP\C4H6\BOITTIER\26-Aug-2020\0\\
 #p B2PLYPD3/Def2QZVP\\butadiene\\0,1\C,0,-3.85426,0.211402,0.024747\C,
 0,-2.716861,-0.488459,0.023946\C,0,-1.371032,0.083926,-0.004391\C,0,-0
 .26672,-0.664318,0.044062\H,0,-4.837562,-0.242675,0.090257\H,0,-3.8053
 14,1.283464,0.038331\H,0,-2.74535,-1.550954,0.075209\H,0,-1.318536,1.1
 5556,-0.062312\H,0,-0.327577,-1.758441,0.030034\H,0,0.714762,-0.200748
 ,0.107886\\Version=ES64L-G09RevD.01\State=1-A\HF=-155.7002713\MP2=-155
 .9258773\RMSD=3.586e-09\PG=C01 [X(C4H6)]\\@

 Normal termination of Gaussian 09 at Wed Aug 26 21:17:32 2020.
