 Gaussian 09, Revision D.01,
 Gaussian 09:  ES64L-G09RevD.01 24-Apr-2013

 --------------------
 #p B2PLYPD3/Def2QZVP
 --------------------

 ---------
 butadiene
 ---------
 Symbolic Z-matrix:
 Charge =  0 Multiplicity = 1

                         Standard orientation:
 ---------------------------------------------------------------------
 Center     Atomic      Atomic             Coordinates (Angstroms)
 Number     Number       Type             X           Y           Z
 ---------------------------------------------------------------------
      1          6           0        1.859373    0.095629   -0.022160
      2          6           0        0.610680   -0.383512    0.034204
      3          6           0       -0.614142    0.422146    0.020885
      4          6           0       -1.831072   -0.131292   -0.049475
      5          1           0        2.663349   -0.561768   -0.081917
      6          1           0        2.013937    1.179513   -0.076033
      7          1           0        0.436151   -1.447063    0.178276
      8          1           0       -0.571574    1.562839    0.107175
      9          1           0       -1.955962   -1.230202   -0.086134
     10          1           0       -2.734931    0.478849    0.057906
 ---------------------------------------------------------------------

 SCF Done:  E(RB2PLYPD3) =  -155.694376282     A.U. after   11 cycles
 E2(B2PLYPD3) =    -0.2264100080D+00 E(B2PLYPD3) =    -0.15592078629010D+03

 The electronic state is 1-A.
 Alpha  occ. eigenvalues --  -10.63291 -10.62757 -10.61969 -10.61291  -0.92648
 Alpha  occ. eigenvalues --   -0.84910  -0.69902  -0.63220  -0.54643  -0.53632
 Alpha  occ. eigenvalues --   -0.46457  -0.45413  -0.41127  -0.37656  -0.27767
 Alpha virt. eigenvalues --    0.01691   0.07073   0.07191   0.07929   0.09438
 Alpha virt. eigenvalues --    0.11633   0.12335   0.14513   0.15596   0.16298
 Alpha virt. eigenvalues --    0.18789   0.19850   0.21502   0.22678   0.23893

 Mulliken charges:
               1
     1  C   -0.180730
     2  C   -0.032657
     3  C   -0.030310
     4  C   -0.171574
     5  H    0.093567
     6  H    0.069858
     7  H    0.056753
     8  H    0.048887
     9  H    0.061312
    10  H    0.084893
 Sum of Mulliken charges =   0.00000

 Dipole moment (field-independent basis, Debye):
    X=             -0.0277    Y=             -0.0287    Z=              0.1197  Tot=              0.1262
 Quadrupole moment (field-independent basis, Debye-Ang):
   XX=            -23.6479   YY=            -23.0742   ZZ=            -29.3511
   XY=             -0.0281   XZ=             -0.4185   YZ=              0.0326

 1\1\GINC-NODE28\SP\RB2PLYPD3-FC\def2QZVP\C4H6\BOITTIER\26-Aug-2020\0\\
 #p B2PLYPD3/Def2QZVP\\butadiene\\0,1\C,0,-3.862595,0.207612,0.044139\C
 ,0,-2.718466,-0.486025,0.001409\C,0,-1.370658,0.090724,-0.013603\C,0,-
 0.269966,-0.666358,0.072802\H,0,-4.769474,-0.29526,0.126655\H,0,-3.823
 116,1.302915,0.062833\H,0,-2.735372,-1.567724,-0.108132\H,0,-1.211956,
 1.217674,-0.137036\H,0,-0.340635,-1.76832,0.145132\H,0,0.726538,-0.229
 129,-0.055933\\Version=ES64L-G09RevD.01\State=1-A\HF=-155.6943763\MP2=
 -155.9207863\RMSD=3.906e-09\PG=C01 [X(C4H6)]\\@

 Normal termination of Gaussian 09 at Wed Aug 26 09:45:28 2020.
