 Gaussian 09, Revision D.01,
 Gaussian 09:  ES64L-G09RevD.01 24-Apr-2013

 --------------------
 #p B2PLYPD3/Def2QZVP
 --------------------

 ---------
 butadiene
 ---------
 Symbolic Z-matrix:
 Charge =  0 Multiplicity = 1

                         Standard orientation:
 ---------------------------------------------------------------------
 Center     Atomic      Atomic             Coordinates (Angstroms)
 Number     Number       Type             X           Y           Z
 ---------------------------------------------------------------------
      1          6           0        1.842675    0.092152   -0.020272
      2          6           0        0.599907   -0.381833    0.013732
      3          6           0       -0.595762    0.428172    0.008452
      4          6           0       -1.812192   -0.133411   -0.036017
      5          1           0        2.638198   -0.592114    0.063519
      6          1           0        2.015886    1.116029   -0.119342
      7          1           0        0.341901   -1.396432    0.074760
      8          1           0       -0.491180    1.521032    0.165268
      9          1           0       -1.986865   -1.188881   -0.003254
     10          1           0       -2.725709    0.509886    0.023683
 ---------------------------------------------------------------------

 SCF Done:  E(RB2PLYPD3) =  -155.693997525     A.U. after   11 cycles
 E2(B2PLYPD3) =    -0.2256452156D+00 E(B2PLYPD3) =    -0.15591964274063D+03

 The electronic state is 1-A.
 Alpha  occ. eigenvalues --  -10.62632 -10.61864 -10.61805 -10.60654  -0.93347
 Alpha  occ. eigenvalues --   -0.84928  -0.70512  -0.64455  -0.54843  -0.53947
 Alpha  occ. eigenvalues --   -0.46825  -0.46253  -0.41072  -0.37991  -0.27586
 Alpha virt. eigenvalues --    0.01685   0.07053   0.07426   0.08096   0.09509
 Alpha virt. eigenvalues --    0.11837   0.12395   0.14925   0.15596   0.16118
 Alpha virt. eigenvalues --    0.18688   0.20154   0.21887   0.23183   0.23902

 Mulliken charges:
               1
     1  C   -0.186588
     2  C   -0.027612
     3  C   -0.027286
     4  C   -0.180550
     5  H    0.089174
     6  H    0.075568
     7  H    0.056802
     8  H    0.056199
     9  H    0.068210
    10  H    0.076084
 Sum of Mulliken charges =   0.00000

 Dipole moment (field-independent basis, Debye):
    X=             -0.0466    Y=             -0.0292    Z=              0.1946  Tot=              0.2023
 Quadrupole moment (field-independent basis, Debye-Ang):
   XX=            -23.7699   YY=            -23.0404   ZZ=            -29.1439
   XY=              0.3988   XZ=             -0.1960   YZ=             -0.0608

 1\1\GINC-NODE30\SP\RB2PLYPD3-FC\def2QZVP\C4H6\BOITTIER\26-Aug-2020\0\\
 #p B2PLYPD3/Def2QZVP\\butadiene\\0,1\C,0,-3.842227,0.215987,0.037725\C
 ,0,-2.708675,-0.480422,0.018612\C,0,-1.383908,0.094321,-0.001936\C,0,-
 0.291957,-0.68082,0.060164\H,0,-4.750981,-0.311673,-0.024234\H,0,-3.82
 2658,1.256816,0.104308\H,0,-2.642969,-1.52663,-0.010253\H,0,-1.285676,
 1.182255,-0.193306\H,0,-0.315531,-1.750888,0.060856\H,0,0.724328,-0.21
 9686,-0.020012\\Version=ES64L-G09RevD.01\State=1-A\HF=-155.6939975\MP2
 =-155.9196427\RMSD=3.741e-09\PG=C01 [X(C4H6)]\\@

 Normal termination of Gaussian 09 at Wed Aug 26 09:39:51 2020.
