 Gaussian 09, Revision D.01,
 Gaussian 09:  ES64L-G09RevD.01 24-Apr-2013

 --------------------
 #p B2PLYPD3/Def2QZVP
 --------------------

 ---------
 butadiene
 ---------
 Symbolic Z-matrix:
 Charge =  0 Multiplicity = 1

                         Standard orientation:
 ---------------------------------------------------------------------
 Center     Atomic      Atomic             Coordinates (Angstroms)
 Number     Number       Type             X           Y           Z
 ---------------------------------------------------------------------
      1          6           0        1.871717    0.044967   -0.002842
      2          6           0        0.591400   -0.339590   -0.002087
      3          6           0       -0.635769    0.447960    0.056548
      4          6           0       -1.844809   -0.137381   -0.057640
      5          1           0        2.743254   -0.548138   -0.026188
      6          1           0        2.157250    1.149243   -0.276556
      7          1           0        0.419279   -1.421658    0.290467
      8          1           0       -0.457115    1.500007    0.190398
      9          1           0       -1.974329   -1.190533   -0.178600
     10          1           0       -2.783570    0.415341    0.036610
 ---------------------------------------------------------------------

 SCF Done:  E(RB2PLYPD3) =  -155.683668805     A.U. after   11 cycles
 E2(B2PLYPD3) =    -0.2271578263D+00 E(B2PLYPD3) =    -0.15591082663142D+03

 The electronic state is 1-A.
 Alpha  occ. eigenvalues --  -10.63251 -10.63170 -10.62279 -10.62221  -0.92710
 Alpha  occ. eigenvalues --   -0.84646  -0.70762  -0.63502  -0.55345  -0.52626
 Alpha  occ. eigenvalues --   -0.48210  -0.44553  -0.39893  -0.37362  -0.27977
 Alpha virt. eigenvalues --    0.01145   0.07123   0.07315   0.07828   0.09224
 Alpha virt. eigenvalues --    0.11314   0.12392   0.14551   0.15341   0.16447
 Alpha virt. eigenvalues --    0.18796   0.19381   0.21543   0.22674   0.23402

 Mulliken charges:
               1
     1  C   -0.172924
     2  C   -0.023519
     3  C   -0.049682
     4  C   -0.159305
     5  H    0.090818
     6  H    0.038984
     7  H    0.052465
     8  H    0.067213
     9  H    0.072627
    10  H    0.083323
 Sum of Mulliken charges =   0.00000

 Dipole moment (field-independent basis, Debye):
    X=             -0.1353    Y=             -0.0419    Z=              0.0660  Tot=              0.1562
 Quadrupole moment (field-independent basis, Debye-Ang):
   XX=            -22.8908   YY=            -23.8090   ZZ=            -29.2016
   XY=              0.2812   XZ=             -0.3116   YZ=             -0.1169

 1\1\GINC-NODE32\SP\RB2PLYPD3-FC\def2QZVP\C4H6\BOITTIER\26-Aug-2020\0\\
 #p B2PLYPD3/Def2QZVP\\butadiene\\0,1\C,0,-3.88648,0.172165,0.029019\C,
 0,-2.698576,-0.440997,0.032622\C,0,-1.348022,0.106495,-0.044\C,0,-0.26
 638,-0.688788,0.078543\H,0,-4.851957,-0.250207,0.065791\H,0,-3.962778,
 1.314953,0.282176\H,0,-2.729792,-1.541471,-0.23953\H,0,-1.331231,1.170
 81,-0.197582\H,0,-0.331747,-1.7454,0.219374\H,0,0.757347,-0.31976,-0.0
 28504\\Version=ES64L-G09RevD.01\State=1-A\HF=-155.6836688\MP2=-155.910
 8266\RMSD=7.929e-09\PG=C01 [X(C4H6)]\\@

 Normal termination of Gaussian 09 at Wed Aug 26 14:52:15 2020.
