 Gaussian 09, Revision D.01,
 Gaussian 09:  ES64L-G09RevD.01 24-Apr-2013

 --------------------
 #p B2PLYPD3/Def2QZVP
 --------------------

 ---------
 butadiene
 ---------
 Symbolic Z-matrix:
 Charge =  0 Multiplicity = 1

                         Standard orientation:
 ---------------------------------------------------------------------
 Center     Atomic      Atomic             Coordinates (Angstroms)
 Number     Number       Type             X           Y           Z
 ---------------------------------------------------------------------
      1          6           0       -1.846294    0.072120    0.028212
      2          6           0       -0.568582   -0.379896   -0.040199
      3          6           0        0.614869    0.492017   -0.077365
      4          6           0        1.817388   -0.159297    0.077527
      5          1           0       -2.665728   -0.587247   -0.018618
      6          1           0       -2.042903    1.079128    0.228363
      7          1           0       -0.429475   -1.396280   -0.120783
      8          1           0        0.425284    1.519782   -0.041300
      9          1           0        1.982104   -1.283865    0.098005
     10          1           0        2.626429    0.518821   -0.074720
 ---------------------------------------------------------------------

 SCF Done:  E(RB2PLYPD3) =  -155.679686105     A.U. after   12 cycles
 E2(B2PLYPD3) =    -0.2272380211D+00 E(B2PLYPD3) =    -0.15590692412644D+03

 The electronic state is 1-A.
 Alpha  occ. eigenvalues --  -10.63101 -10.62688 -10.61826 -10.60580  -0.92607
 Alpha  occ. eigenvalues --   -0.84212  -0.70180  -0.65454  -0.54209  -0.53760
 Alpha  occ. eigenvalues --   -0.47818  -0.45204  -0.41580  -0.37137  -0.27004
 Alpha virt. eigenvalues --    0.01181   0.06978   0.07405   0.08192   0.08860
 Alpha virt. eigenvalues --    0.11843   0.12308   0.14894   0.15620   0.16199
 Alpha virt. eigenvalues --    0.18670   0.20056   0.21682   0.22700   0.24104

 Mulliken charges:
               1
     1  C   -0.195539
     2  C   -0.022109
     3  C   -0.062731
     4  C   -0.165263
     5  H    0.082268
     6  H    0.063221
     7  H    0.065237
     8  H    0.078726
     9  H    0.079629
    10  H    0.076560
 Sum of Mulliken charges =   0.00000

 Dipole moment (field-independent basis, Debye):
    X=              0.0812    Y=             -0.0031    Z=             -0.0115  Tot=              0.0821
 Quadrupole moment (field-independent basis, Debye-Ang):
   XX=            -24.3412   YY=            -22.5728   ZZ=            -29.3404
   XY=             -0.4175   XZ=             -0.3868   YZ=              0.1804

 1\1\GINC-NODE17\SP\RB2PLYPD3-FC\def2QZVP\C4H6\BOITTIER\26-Aug-2020\0\\
 #p B2PLYPD3/Def2QZVP\\butadiene\\0,1\C,0,-3.855389,0.200229,0.055641\C
 ,0,-2.685279,-0.484594,-0.00273\C,0,-1.359972,0.149115,-0.067114\C,0,-
 0.299336,-0.711226,0.103529\H,0,-4.783989,-0.295185,0.029259\H,0,-3.85
 8738,1.231336,0.227653\H,0,-2.739281,-1.510874,-0.054834\H,0,-1.353759
 ,1.194797,-0.059723\H,0,-0.347661,-1.845762,0.155451\H,0,0.621083,-0.2
 00904,-0.069594\\Version=ES64L-G09RevD.01\State=1-A\HF=-155.6796861\MP
 2=-155.9069241\RMSD=4.335e-09\PG=C01 [X(C4H6)]\\@

 Normal termination of Gaussian 09 at Wed Aug 26 12:40:55 2020.
