 Gaussian 09, Revision D.01,
 Gaussian 09:  ES64L-G09RevD.01 24-Apr-2013

 --------------------
 #p B2PLYPD3/Def2QZVP
 --------------------

 ---------
 butadiene
 ---------
 Symbolic Z-matrix:
 Charge =  0 Multiplicity = 1

                         Standard orientation:
 ---------------------------------------------------------------------
 Center     Atomic      Atomic             Coordinates (Angstroms)
 Number     Number       Type             X           Y           Z
 ---------------------------------------------------------------------
      1          6           0        1.818495   -0.115149    0.049942
      2          6           0        0.586338    0.484480   -0.045301
      3          6           0       -0.599811   -0.392323   -0.120734
      4          6           0       -1.830063    0.077783    0.089482
      5          1           0        2.855814    0.316679    0.032206
      6          1           0        1.933845   -1.246672    0.184820
      7          1           0        0.499823    1.582078   -0.130359
      8          1           0       -0.342070   -1.505011   -0.047975
      9          1           0       -2.129724    1.103321    0.157230
     10          1           0       -2.667439   -0.579142   -0.036254
 ---------------------------------------------------------------------

 SCF Done:  E(RB2PLYPD3) =  -155.679789906     A.U. after   11 cycles
 E2(B2PLYPD3) =    -0.2282872497D+00 E(B2PLYPD3) =    -0.15590807715612D+03

 The electronic state is 1-A.
 Alpha  occ. eigenvalues --  -10.63826 -10.63579 -10.63222 -10.61308  -0.92352
 Alpha  occ. eigenvalues --   -0.84003  -0.69559  -0.63722  -0.54439  -0.52902
 Alpha  occ. eigenvalues --   -0.46631  -0.44033  -0.40795  -0.37460  -0.27445
 Alpha virt. eigenvalues --    0.01312   0.06836   0.07190   0.07913   0.08691
 Alpha virt. eigenvalues --    0.11279   0.12608   0.14354   0.15474   0.16718
 Alpha virt. eigenvalues --    0.18880   0.19659   0.22052   0.22570   0.22984

 Mulliken charges:
               1
     1  C   -0.161956
     2  C   -0.045586
     3  C   -0.029214
     4  C   -0.160543
     5  H    0.078249
     6  H    0.044753
     7  H    0.069255
     8  H    0.063000
     9  H    0.066535
    10  H    0.075507
 Sum of Mulliken charges =   0.00000

 Dipole moment (field-independent basis, Debye):
    X=              0.0099    Y=              0.0576    Z=              0.0185  Tot=              0.0613
 Quadrupole moment (field-independent basis, Debye-Ang):
   XX=            -23.3056   YY=            -23.2706   ZZ=            -29.5363
   XY=             -0.7271   XZ=              0.1074   YZ=             -0.1514

 1\1\GINC-NODE11\SP\RB2PLYPD3-FC\def2QZVP\C4H6\BOITTIER\26-Aug-2020\0\\
 #p B2PLYPD3/Def2QZVP\\butadiene\\0,1\C,0,-3.817834,0.246881,0.075494\C
 ,0,-2.720949,-0.574828,-0.016573\C,0,-1.390704,0.062134,-0.095008\C,0,
 -0.27118,-0.630737,0.11784\H,0,-4.917997,0.018431,0.058988\H,0,-3.7176
 11,1.380402,0.205593\H,0,-2.843076,-1.669385,-0.09701\H,0,-1.433885,1.
 203762,-0.027026\H,0,-0.170356,-1.694099,0.190025\H,0,0.675061,-0.1441
 17,-0.010172\\Version=ES64L-G09RevD.01\State=1-A\HF=-155.6797899\MP2=-
 155.9080772\RMSD=7.909e-09\PG=C01 [X(C4H6)]\\@

 Normal termination of Gaussian 09 at Wed Aug 26 12:45:04 2020.
