 Gaussian 09, Revision D.01,
 Gaussian 09:  ES64L-G09RevD.01 24-Apr-2013

 --------------------
 #p B2PLYPD3/Def2QZVP
 --------------------

 ---------
 butadiene
 ---------
 Symbolic Z-matrix:
 Charge =  0 Multiplicity = 1

                         Standard orientation:
 ---------------------------------------------------------------------
 Center     Atomic      Atomic             Coordinates (Angstroms)
 Number     Number       Type             X           Y           Z
 ---------------------------------------------------------------------
      1          6           0       -1.847433   -0.117210    0.025356
      2          6           0       -0.599912    0.395357   -0.027880
      3          6           0        0.604653   -0.366324   -0.021346
      4          6           0        1.843495    0.103653   -0.004752
      5          1           0       -2.767349    0.497387   -0.049045
      6          1           0       -2.007482   -1.173485    0.100549
      7          1           0       -0.473045    1.489570    0.000953
      8          1           0        0.528535   -1.450109   -0.060634
      9          1           0        2.072834    1.122229    0.115904
     10          1           0        2.641685   -0.578452    0.064006
 ---------------------------------------------------------------------

 SCF Done:  E(RB2PLYPD3) =  -155.696495853     A.U. after   11 cycles
 E2(B2PLYPD3) =    -0.2257954338D+00 E(B2PLYPD3) =    -0.15592229128688D+03

 The electronic state is 1-A.
 Alpha  occ. eigenvalues --  -10.62810 -10.62115 -10.62061 -10.60655  -0.93317
 Alpha  occ. eigenvalues --   -0.85070  -0.70865  -0.64019  -0.54836  -0.54290
 Alpha  occ. eigenvalues --   -0.46680  -0.45696  -0.41125  -0.38361  -0.27542
 Alpha virt. eigenvalues --    0.01265   0.06963   0.07546   0.07955   0.09915
 Alpha virt. eigenvalues --    0.11647   0.12475   0.14947   0.15739   0.16388
 Alpha virt. eigenvalues --    0.18828   0.19963   0.22111   0.22490   0.23908

 Mulliken charges:
               1
     1  C   -0.172842
     2  C   -0.035750
     3  C   -0.018490
     4  C   -0.173201
     5  H    0.085103
     6  H    0.067024
     7  H    0.053318
     8  H    0.048424
     9  H    0.064950
    10  H    0.081464
 Sum of Mulliken charges =   0.00000

 Dipole moment (field-independent basis, Debye):
    X=             -0.0066    Y=             -0.0257    Z=              0.1364  Tot=              0.1390
 Quadrupole moment (field-independent basis, Debye-Ang):
   XX=            -23.3012   YY=            -23.2425   ZZ=            -29.1679
   XY=              0.1284   XZ=              0.3622   YZ=              0.0116

 1\1\GINC-NODE19\SP\RB2PLYPD3-FC\def2QZVP\C4H6\BOITTIER\26-Aug-2020\0\\
 #p B2PLYPD3/Def2QZVP\\butadiene\\0,1\C,0,-3.848451,0.232523,-0.0049\C,
 0,-2.712849,-0.494033,0.061364\C,0,-1.391225,0.038546,0.032226\C,0,-0.
 256942,-0.646481,0.027505\H,0,-4.863248,-0.204663,0.087658\H,0,-3.8168
 26,1.297909,-0.10949\H,0,-2.784555,-1.593616,0.063067\H,0,-1.271403,1.
 11905,0.041214\H,0,-0.214827,-1.692596,-0.064807\H,0,0.650253,-0.12090
 1,-0.061176\\Version=ES64L-G09RevD.01\State=1-A\HF=-155.6964959\MP2=-1
 55.9222913\RMSD=6.634e-09\PG=C01 [X(C4H6)]\\@

 Normal termination of Gaussian 09 at Wed Aug 26 10:13:34 2020.
