 Gaussian 09, Revision D.01,
 Gaussian 09:  ES64L-G09RevD.01 24-Apr-2013

 --------------------
 #p B2PLYPD3/Def2QZVP
 --------------------

 ---------
 butadiene
 ---------
 Symbolic Z-matrix:
 Charge =  0 Multiplicity = 1

                         Standard orientation:
 ---------------------------------------------------------------------
 Center     Atomic      Atomic             Coordinates (Angstroms)
 Number     Number       Type             X           Y           Z
 ---------------------------------------------------------------------
      1          6           0       -1.834093    0.098194    0.017756
      2          6           0       -0.605544   -0.385560   -0.025648
      3          6           0        0.602084    0.415391   -0.018391
      4          6           0        1.825951   -0.127060    0.007301
      5          1           0       -2.696955   -0.539997    0.059935
      6          1           0       -2.018181    1.159185   -0.036372
      7          1           0       -0.472836   -1.450614   -0.017013
      8          1           0        0.516793    1.510609    0.043402
      9          1           0        2.012075   -1.195576    0.039124
     10          1           0        2.728712    0.510601    0.024810
 ---------------------------------------------------------------------

 SCF Done:  E(RB2PLYPD3) =  -155.700115194     A.U. after   11 cycles
 E2(B2PLYPD3) =    -0.2255358517D+00 E(B2PLYPD3) =    -0.15592565104532D+03

 The electronic state is 1-A.
 Alpha  occ. eigenvalues --  -10.62748 -10.62107 -10.61842 -10.61071  -0.93139
 Alpha  occ. eigenvalues --   -0.84999  -0.69998  -0.64098  -0.54622  -0.54028
 Alpha  occ. eigenvalues --   -0.46609  -0.45364  -0.41123  -0.38256  -0.27730
 Alpha virt. eigenvalues --    0.01853   0.07005   0.07421   0.07997   0.09621
 Alpha virt. eigenvalues --    0.11681   0.12427   0.14719   0.15833   0.16243
 Alpha virt. eigenvalues --    0.18780   0.20372   0.21737   0.22797   0.23831

 Mulliken charges:
               1
     1  C   -0.174809
     2  C   -0.027095
     3  C   -0.033969
     4  C   -0.173340
     5  H    0.084594
     6  H    0.064745
     7  H    0.056219
     8  H    0.056801
     9  H    0.067512
    10  H    0.079341
 Sum of Mulliken charges =   0.00000

 Dipole moment (field-independent basis, Debye):
    X=              0.0124    Y=             -0.0204    Z=              0.0704  Tot=              0.0743
 Quadrupole moment (field-independent basis, Debye-Ang):
   XX=            -23.4948   YY=            -23.0716   ZZ=            -29.2336
   XY=             -0.1519   XZ=              0.0823   YZ=             -0.0459

 1\1\GINC-NODE03\SP\RB2PLYPD3-FC\def2QZVP\C4H6\BOITTIER\26-Aug-2020\0\\
 #p B2PLYPD3/Def2QZVP\\butadiene\\0,1\C,0,-3.837596,0.211159,0.036798\C
 ,0,-2.715898,-0.486278,0.012094\C,0,-1.384161,0.084853,-0.003008\C,0,-
 0.277383,-0.667258,0.043208\H,0,-4.800809,-0.260211,0.09703\H,0,-3.828
 535,1.285691,-0.05163\H,0,-2.776375,-1.557036,0.055046\H,0,-1.271405,1
 .179007,0.023594\H,0,-0.28586,-1.750264,0.109588\H,0,0.725173,-0.20166
 5,0.042755\\Version=ES64L-G09RevD.01\State=1-A\HF=-155.7001152\MP2=-15
 5.925651\RMSD=5.153e-09\PG=C01 [X(C4H6)]\\@

 Normal termination of Gaussian 09 at Wed Aug 26 21:45:18 2020.
