 Gaussian 09, Revision D.01,
 Gaussian 09:  ES64L-G09RevD.01 24-Apr-2013

 --------------------
 #p B2PLYPD3/Def2QZVP
 --------------------

 ---------
 butadiene
 ---------
 Symbolic Z-matrix:
 Charge =  0 Multiplicity = 1

                         Standard orientation:
 ---------------------------------------------------------------------
 Center     Atomic      Atomic             Coordinates (Angstroms)
 Number     Number       Type             X           Y           Z
 ---------------------------------------------------------------------
      1          6           0       -1.832651   -0.107722   -0.046715
      2          6           0       -0.608214    0.398256    0.039993
      3          6           0        0.608178   -0.446349    0.025332
      4          6           0        1.839721    0.125892   -0.035223
      5          1           0       -2.688371    0.587776   -0.011341
      6          1           0       -2.018022   -1.148369   -0.050484
      7          1           0       -0.461063    1.458912    0.171311
      8          1           0        0.433193   -1.470657    0.093897
      9          1           0        1.932296    1.201973   -0.145959
     10          1           0        2.759766   -0.450093    0.042254
 ---------------------------------------------------------------------

 SCF Done:  E(RB2PLYPD3) =  -155.696094982     A.U. after   11 cycles
 E2(B2PLYPD3) =    -0.2259402575D+00 E(B2PLYPD3) =    -0.15592203523991D+03

 The electronic state is 1-A.
 Alpha  occ. eigenvalues --  -10.62673 -10.62374 -10.62010 -10.61215  -0.92669
 Alpha  occ. eigenvalues --   -0.84601  -0.69812  -0.64854  -0.54230  -0.53834
 Alpha  occ. eigenvalues --   -0.46853  -0.46205  -0.41106  -0.37491  -0.27617
 Alpha virt. eigenvalues --    0.01814   0.07014   0.07483   0.08087   0.09159
 Alpha virt. eigenvalues --    0.11752   0.12437   0.14660   0.15727   0.16110
 Alpha virt. eigenvalues --    0.18777   0.20319   0.21515   0.22869   0.24056

 Mulliken charges:
               1
     1  C   -0.180367
     2  C   -0.026430
     3  C   -0.049885
     4  C   -0.174432
     5  H    0.079551
     6  H    0.070331
     7  H    0.060628
     8  H    0.067342
     9  H    0.068339
    10  H    0.084922
 Sum of Mulliken charges =   0.00000

 Dipole moment (field-independent basis, Debye):
    X=              0.0107    Y=             -0.0254    Z=              0.1374  Tot=              0.1402
 Quadrupole moment (field-independent basis, Debye-Ang):
   XX=            -23.7731   YY=            -22.9518   ZZ=            -29.2887
   XY=              0.2877   XZ=             -0.0455   YZ=             -0.0767

 1\1\GINC-NODE04\SP\RB2PLYPD3-FC\def2QZVP\C4H6\BOITTIER\26-Aug-2020\0\\
 #p B2PLYPD3/Def2QZVP\\butadiene\\0,1\C,0,-3.83676,0.219345,0.060749\C,
 0,-2.723653,-0.501307,-0.005821\C,0,-1.375119,0.11067,-0.016813\C,0,-0
 .266396,-0.671437,0.066055\H,0,-4.803763,-0.311635,0.046866\H,0,-3.831
 883,1.275887,0.028845\H,0,-2.770199,-1.574946,-0.100808\H,0,-1.363233,
 1.146841,-0.120431\H,0,-0.368504,-1.742256,0.213373\H,0,0.741963,-0.27
 3331,-0.028647\\Version=ES64L-G09RevD.01\State=1-A\HF=-155.696095\MP2=
 -155.9220352\RMSD=7.553e-09\PG=C01 [X(C4H6)]\\@

 Normal termination of Gaussian 09 at Wed Aug 26 09:15:34 2020.
