 Gaussian 09, Revision D.01,
 Gaussian 09:  ES64L-G09RevD.01 24-Apr-2013

 --------------------
 #p B2PLYPD3/Def2QZVP
 --------------------

 ---------
 butadiene
 ---------
 Symbolic Z-matrix:
 Charge =  0 Multiplicity = 1

                         Standard orientation:
 ---------------------------------------------------------------------
 Center     Atomic      Atomic             Coordinates (Angstroms)
 Number     Number       Type             X           Y           Z
 ---------------------------------------------------------------------
      1          6           0       -1.849780   -0.102477    0.012730
      2          6           0       -0.606964    0.385073   -0.024923
      3          6           0        0.610938   -0.406235   -0.016575
      4          6           0        1.843808    0.113100    0.027790
      5          1           0       -2.676517    0.544193    0.098494
      6          1           0       -2.007399   -1.174171   -0.021748
      7          1           0       -0.486402    1.472677   -0.044662
      8          1           0        0.458486   -1.487376   -0.023599
      9          1           0        1.968414    1.207012   -0.025565
     10          1           0        2.755405   -0.499106    0.022946
 ---------------------------------------------------------------------

 SCF Done:  E(RB2PLYPD3) =  -155.699401833     A.U. after   11 cycles
 E2(B2PLYPD3) =    -0.2259712662D+00 E(B2PLYPD3) =    -0.15592537309950D+03

 The electronic state is 1-A.
 Alpha  occ. eigenvalues --  -10.62751 -10.62533 -10.62068 -10.61232  -0.92936
 Alpha  occ. eigenvalues --   -0.84929  -0.70186  -0.63784  -0.54718  -0.53761
 Alpha  occ. eigenvalues --   -0.46903  -0.45397  -0.41105  -0.38052  -0.27691
 Alpha virt. eigenvalues --    0.01606   0.07006   0.07362   0.08049   0.09653
 Alpha virt. eigenvalues --    0.11666   0.12429   0.14615   0.15854   0.16132
 Alpha virt. eigenvalues --    0.18793   0.20407   0.21455   0.22768   0.23952

 Mulliken charges:
               1
     1  C   -0.182169
     2  C   -0.020850
     3  C   -0.033817
     4  C   -0.170341
     5  H    0.091749
     6  H    0.064807
     7  H    0.047649
     8  H    0.052069
     9  H    0.063347
    10  H    0.087557
 Sum of Mulliken charges =   0.00000

 Dipole moment (field-independent basis, Debye):
    X=              0.0032    Y=             -0.0006    Z=             -0.0237  Tot=              0.0239
 Quadrupole moment (field-independent basis, Debye-Ang):
   XX=            -23.4396   YY=            -23.1788   ZZ=            -29.3043
   XY=              0.0129   XZ=             -0.2389   YZ=              0.0287

 1\1\GINC-NODE09\SP\RB2PLYPD3-FC\def2QZVP\C4H6\BOITTIER\26-Aug-2020\0\\
 #p B2PLYPD3/Def2QZVP\\butadiene\\0,1\C,0,-3.853785,0.215366,0.002684\C
 ,0,-2.718229,-0.485437,0.058381\C,0,-1.378388,0.074616,0.032082\C,0,-0
 .258435,-0.657985,0.006651\H,0,-4.783039,-0.275096,-0.067781\H,0,-3.81
 701,1.298507,0.00649\H,0,-2.794223,-1.576061,0.109087\H,0,-1.334883,1.
 165347,0.008197\H,0,-0.331527,-1.754586,0.091152\H,0,0.748013,-0.21888
 8,-0.002505\\Version=ES64L-G09RevD.01\State=1-A\HF=-155.6994018\MP2=-1
 55.9253731\RMSD=3.232e-09\PG=C01 [X(C4H6)]\\@

 Normal termination of Gaussian 09 at Wed Aug 26 19:45:53 2020.
