 Gaussian 09, Revision D.01,
 Gaussian 09:  ES64L-G09RevD.01 24-Apr-2013

 --------------------
 #p B2PLYPD3/Def2QZVP
 --------------------

 ---------
 butadiene
 ---------
 Symbolic Z-matrix:
 Charge =  0 Multiplicity = 1

                         Standard orientation:
 ---------------------------------------------------------------------
 Center     Atomic      Atomic             Coordinates (Angstroms)
 Number     Number       Type             X           Y           Z
 ---------------------------------------------------------------------
      1          6           0       -1.832285    0.106340    0.006132
      2          6           0       -0.604768   -0.391989   -0.021170
      3          6           0        0.596711    0.405821   -0.011532
      4          6           0        1.829370   -0.118961    0.017682
      5          1           0       -2.704095   -0.547945    0.055295
      6          1           0       -1.983641    1.190347    0.041143
      7          1           0       -0.445309   -1.466751   -0.012916
      8          1           0        0.528625    1.488176   -0.062098
      9          1           0        1.982671   -1.195629   -0.014565
     10          1           0        2.687574    0.524530    0.046469
 ---------------------------------------------------------------------

 SCF Done:  E(RB2PLYPD3) =  -155.700477601     A.U. after   11 cycles
 E2(B2PLYPD3) =    -0.2257155857D+00 E(B2PLYPD3) =    -0.15592619318720D+03

 The electronic state is 1-A.
 Alpha  occ. eigenvalues --  -10.62391 -10.62278 -10.61568 -10.61454  -0.93221
 Alpha  occ. eigenvalues --   -0.84973  -0.69995  -0.63990  -0.54431  -0.54137
 Alpha  occ. eigenvalues --   -0.46416  -0.45519  -0.41343  -0.38270  -0.27644
 Alpha virt. eigenvalues --    0.01790   0.07026   0.07371   0.08015   0.09674
 Alpha virt. eigenvalues --    0.11733   0.12361   0.14700   0.15798   0.16164
 Alpha virt. eigenvalues --    0.18694   0.20478   0.21428   0.22802   0.24053

 Mulliken charges:
               1
     1  C   -0.174283
     2  C   -0.028509
     3  C   -0.026797
     4  C   -0.180529
     5  H    0.086431
     6  H    0.066464
     7  H    0.053262
     8  H    0.053009
     9  H    0.065081
    10  H    0.085872
 Sum of Mulliken charges =   0.00000

 Dipole moment (field-independent basis, Debye):
    X=              0.0198    Y=              0.0048    Z=              0.0256  Tot=              0.0327
 Quadrupole moment (field-independent basis, Debye-Ang):
   XX=            -23.6798   YY=            -23.0182   ZZ=            -29.2548
   XY=              0.0088   XZ=             -0.1836   YZ=             -0.0031

 1\1\GINC-NODE13\SP\RB2PLYPD3-FC\def2QZVP\C4H6\BOITTIER\26-Aug-2020\0\\
 #p B2PLYPD3/Def2QZVP\\butadiene\\0,1\C,0,-3.834284,0.21858,0.028028\C,
 0,-2.7163,-0.492652,0.01638\C,0,-1.391107,0.07638,0.001804\C,0,-0.2725
 15,-0.660074,0.04746\H,0,-4.809097,-0.266739,0.097052\H,0,-3.788441,1.
 312701,0.029659\H,0,-2.752286,-1.577827,0.057711\H,0,-1.264094,1.15133
 3,-0.082029\H,0,-0.315114,-1.747245,0.048366\H,0,0.687385,-0.180565,0.
 056677\\Version=ES64L-G09RevD.01\State=1-A\HF=-155.7004776\MP2=-155.92
 61932\RMSD=5.116e-09\PG=C01 [X(C4H6)]\\@

 Normal termination of Gaussian 09 at Wed Aug 26 20:21:45 2020.
