 Gaussian 09, Revision D.01,
 Gaussian 09:  ES64L-G09RevD.01 24-Apr-2013

 --------------------
 #p B2PLYPD3/Def2QZVP
 --------------------

 ---------
 butadiene
 ---------
 Symbolic Z-matrix:
 Charge =  0 Multiplicity = 1

                         Standard orientation:
 ---------------------------------------------------------------------
 Center     Atomic      Atomic             Coordinates (Angstroms)
 Number     Number       Type             X           Y           Z
 ---------------------------------------------------------------------
      1          6           0        1.834727    0.048283    0.029733
      2          6           0        0.574524   -0.356468   -0.032703
      3          6           0       -0.589585    0.459715   -0.080839
      4          6           0       -1.824483   -0.139820    0.020125
      5          1           0        2.754593   -0.491491   -0.055687
      6          1           0        2.009091    1.093883    0.300845
      7          1           0        0.404539   -1.380551   -0.174075
      8          1           0       -0.513039    1.569725   -0.033302
      9          1           0       -1.898654   -1.251963    0.315168
     10          1           0       -2.727626    0.390139    0.029161
 ---------------------------------------------------------------------

 SCF Done:  E(RB2PLYPD3) =  -155.683159867     A.U. after   11 cycles
 E2(B2PLYPD3) =    -0.2272595243D+00 E(B2PLYPD3) =    -0.15591041939129D+03

 The electronic state is 1-A.
 Alpha  occ. eigenvalues --  -10.63495 -10.62648 -10.61768 -10.61202  -0.93374
 Alpha  occ. eigenvalues --   -0.84374  -0.70628  -0.64198  -0.55548  -0.53155
 Alpha  occ. eigenvalues --   -0.46976  -0.44571  -0.41536  -0.37985  -0.27070
 Alpha virt. eigenvalues --    0.00827   0.07051   0.07288   0.08058   0.09292
 Alpha virt. eigenvalues --    0.11561   0.12588   0.14591   0.15771   0.16607
 Alpha virt. eigenvalues --    0.18821   0.20069   0.21491   0.22525   0.23190

 Mulliken charges:
               1
     1  C   -0.179447
     2  C   -0.017170
     3  C   -0.044000
     4  C   -0.168080
     5  H    0.086894
     6  H    0.049383
     7  H    0.063995
     8  H    0.061870
     9  H    0.058753
    10  H    0.087802
 Sum of Mulliken charges =   0.00000

 Dipole moment (field-independent basis, Debye):
    X=             -0.0524    Y=              0.0423    Z=              0.2525  Tot=              0.2613
 Quadrupole moment (field-independent basis, Debye-Ang):
   XX=            -23.2429   YY=            -23.5464   ZZ=            -29.1266
   XY=             -0.0880   XZ=             -0.3918   YZ=              0.1537

 1\1\GINC-NODE35\SP\RB2PLYPD3-FC\def2QZVP\C4H6\BOITTIER\26-Aug-2020\0\\
 #p B2PLYPD3/Def2QZVP\\butadiene\\0,1\C,0,-3.847631,0.171052,-0.012055\
 C,0,-2.683897,-0.458374,0.061291\C,0,-1.388501,0.12894,0.086407\C,0,-0
 .286599,-0.691591,0.001841\H,0,-4.851091,-0.186365,0.088581\H,0,-3.826
 75,1.22306,-0.312101\H,0,-2.705797,-1.491974,0.231048\H,0,-1.258356,1.
 23219,0.008034\H,0,-0.421325,-1.805844,-0.262174\H,0,0.699022,-0.33863
 2,-0.022164\\Version=ES64L-G09RevD.01\State=1-A\HF=-155.6831599\MP2=-1
 55.9104194\RMSD=9.574e-09\PG=C01 [X(C4H6)]\\@

 Normal termination of Gaussian 09 at Wed Aug 26 10:39:35 2020.
