 Gaussian 09, Revision D.01,
 Gaussian 09:  ES64L-G09RevD.01 24-Apr-2013

 --------------------
 #p B2PLYPD3/Def2QZVP
 --------------------

 ---------
 butadiene
 ---------
 Symbolic Z-matrix:
 Charge =  0 Multiplicity = 1

                         Standard orientation:
 ---------------------------------------------------------------------
 Center     Atomic      Atomic             Coordinates (Angstroms)
 Number     Number       Type             X           Y           Z
 ---------------------------------------------------------------------
      1          6           0       -1.840288    0.106512   -0.089761
      2          6           0       -0.612685   -0.392333    0.028708
      3          6           0        0.605332    0.445728    0.069836
      4          6           0        1.820313   -0.153426   -0.042787
      5          1           0       -2.788750   -0.559480    0.208901
      6          1           0       -1.791313    1.255748   -0.140453
      7          1           0       -0.531953   -1.495796    0.177259
      8          1           0        0.553385    1.519952    0.130607
      9          1           0        1.980992   -1.215781   -0.201708
     10          1           0        2.741610    0.456473    0.029420
 ---------------------------------------------------------------------

 SCF Done:  E(RB2PLYPD3) =  -155.675517650     A.U. after   12 cycles
 E2(B2PLYPD3) =    -0.2282573524D+00 E(B2PLYPD3) =    -0.15590377500263D+03

 The electronic state is 1-A.
 Alpha  occ. eigenvalues --  -10.63404 -10.62963 -10.62834 -10.62380  -0.92574
 Alpha  occ. eigenvalues --   -0.84412  -0.68571  -0.63479  -0.53938  -0.52534
 Alpha  occ. eigenvalues --   -0.46421  -0.44107  -0.40910  -0.37427  -0.27756
 Alpha virt. eigenvalues --    0.01437   0.06837   0.07169   0.07532   0.09016
 Alpha virt. eigenvalues --    0.11720   0.12189   0.14166   0.15531   0.15933
 Alpha virt. eigenvalues --    0.18680   0.19985   0.20384   0.22223   0.24292

 Mulliken charges:
               1
     1  C   -0.168159
     2  C   -0.015210
     3  C   -0.057732
     4  C   -0.166510
     5  H    0.083390
     6  H    0.051092
     7  H    0.056627
     8  H    0.065392
     9  H    0.074777
    10  H    0.076334
 Sum of Mulliken charges =   0.00000

 Dipole moment (field-independent basis, Debye):
    X=              0.2581    Y=             -0.0530    Z=              0.2679  Tot=              0.3757
 Quadrupole moment (field-independent basis, Debye-Ang):
   XX=            -24.3360   YY=            -23.0284   ZZ=            -29.5063
   XY=              0.3664   XZ=             -0.8550   YZ=             -0.0813

 1\1\GINC-NODE24\SP\RB2PLYPD3-FC\def2QZVP\C4H6\BOITTIER\26-Aug-2020\0\\
 #p B2PLYPD3/Def2QZVP\\butadiene\\0,1\C,0,-3.846184,0.196947,-0.05424\C
 ,0,-2.718984,-0.497969,0.073829\C,0,-1.376889,0.123564,0.08284\C,0,-0.
 28134,-0.674985,-0.01687\H,0,-4.890202,-0.290316,0.269685\H,0,-3.60490
 2,1.319423,-0.141077\H,0,-2.823728,-1.594283,0.256418\H,0,-1.246594,1.
 192498,0.110243\H,0,-0.303447,-1.753505,-0.143271\H,0,0.730179,-0.2272
 78,0.031773\\Version=ES64L-G09RevD.01\State=1-A\HF=-155.6755177\MP2=-1
 55.903775\RMSD=5.322e-09\PG=C01 [X(C4H6)]\\@

 Normal termination of Gaussian 09 at Wed Aug 26 13:23:00 2020.
