 Gaussian 09, Revision D.01,
 Gaussian 09:  ES64L-G09RevD.01 24-Apr-2013

 --------------------
 #p B2PLYPD3/Def2QZVP
 --------------------

 ---------
 butadiene
 ---------
 Symbolic Z-matrix:
 Charge =  0 Multiplicity = 1

                         Standard orientation:
 ---------------------------------------------------------------------
 Center     Atomic      Atomic             Coordinates (Angstroms)
 Number     Number       Type             X           Y           Z
 ---------------------------------------------------------------------
      1          6           0        1.818865   -0.117734    0.031286
      2          6           0        0.598765    0.420436   -0.024547
      3          6           0       -0.595818   -0.404524   -0.055159
      4          6           0       -1.832866    0.114050    0.010966
      5          1           0        2.759850    0.470030   -0.047980
      6          1           0        1.949421   -1.164276    0.181454
      7          1           0        0.478251    1.512945   -0.085575
      8          1           0       -0.438817   -1.439775   -0.072249
      9          1           0       -2.068727    1.158141    0.200130
     10          1           0       -2.613655   -0.610432    0.048941
 ---------------------------------------------------------------------

 SCF Done:  E(RB2PLYPD3) =  -155.695365181     A.U. after   11 cycles
 E2(B2PLYPD3) =    -0.2259337827D+00 E(B2PLYPD3) =    -0.15592129896383D+03

 The electronic state is 1-A.
 Alpha  occ. eigenvalues --  -10.62531 -10.62216 -10.61538 -10.61377  -0.93101
 Alpha  occ. eigenvalues --   -0.84765  -0.70017  -0.64510  -0.54475  -0.53903
 Alpha  occ. eigenvalues --   -0.46620  -0.45788  -0.41279  -0.37965  -0.27473
 Alpha virt. eigenvalues --    0.01668   0.07024   0.07431   0.08053   0.09316
 Alpha virt. eigenvalues --    0.11734   0.12374   0.14974   0.15927   0.16040
 Alpha virt. eigenvalues --    0.18753   0.20402   0.21504   0.22728   0.23887

 Mulliken charges:
               1
     1  C   -0.177386
     2  C   -0.025655
     3  C   -0.043221
     4  C   -0.173840
     5  H    0.080070
     6  H    0.064060
     7  H    0.058546
     8  H    0.064397
     9  H    0.075140
    10  H    0.077890
 Sum of Mulliken charges =   0.00000

 Dipole moment (field-independent basis, Debye):
    X=              0.0324    Y=             -0.0457    Z=              0.1684  Tot=              0.1775
 Quadrupole moment (field-independent basis, Debye-Ang):
   XX=            -23.8921   YY=            -22.9379   ZZ=            -29.1927
   XY=             -0.2960   XZ=             -0.4206   YZ=             -0.0598

 1\1\GINC-NODE29\SP\RB2PLYPD3-FC\def2QZVP\C4H6\BOITTIER\26-Aug-2020\0\\
 #p B2PLYPD3/Def2QZVP\\butadiene\\0,1\C,0,-3.819969,0.23527,0.047563\C,
 0,-2.718806,-0.518025,0.010474\C,0,-1.39349,0.073716,-0.03316\C,0,-0.2
 72178,-0.66052,0.051307\H,0,-4.852503,-0.172304,-0.022857\H,0,-3.75707
 3,1.29131,0.172737\H,0,-2.800051,-1.615292,-0.02457\H,0,-1.358526,1.11
 9521,-0.07507\H,0,-0.231363,-1.725342,0.26585\H,0,0.627894,-0.09027,0.
 076455\\Version=ES64L-G09RevD.01\State=1-A\HF=-155.6953652\MP2=-155.92
 1299\RMSD=6.324e-09\PG=C01 [X(C4H6)]\\@

 Normal termination of Gaussian 09 at Wed Aug 26 09:46:12 2020.
