 Gaussian 09, Revision D.01,
 Gaussian 09:  ES64L-G09RevD.01 24-Apr-2013

 --------------------
 #p B2PLYPD3/Def2QZVP
 --------------------

 ---------
 butadiene
 ---------
 Symbolic Z-matrix:
 Charge =  0 Multiplicity = 1

                         Standard orientation:
 ---------------------------------------------------------------------
 Center     Atomic      Atomic             Coordinates (Angstroms)
 Number     Number       Type             X           Y           Z
 ---------------------------------------------------------------------
      1          6           0       -1.839320    0.092630   -0.053873
      2          6           0       -0.584020   -0.403627    0.074458
      3          6           0        0.604765    0.483503    0.076680
      4          6           0        1.829289   -0.153226   -0.107836
      5          1           0       -2.719833   -0.613732   -0.175349
      6          1           0       -2.064515    1.125572   -0.077339
      7          1           0       -0.294026   -1.448001    0.235825
      8          1           0        0.502472    1.633337    0.107603
      9          1           0        1.802879   -1.264116   -0.026907
     10          1           0        2.708738    0.451261   -0.000407
 ---------------------------------------------------------------------

 SCF Done:  E(RB2PLYPD3) =  -155.678130952     A.U. after   12 cycles
 E2(B2PLYPD3) =    -0.2292208970D+00 E(B2PLYPD3) =    -0.15590735184922D+03

 The electronic state is 1-A.
 Alpha  occ. eigenvalues --  -10.64281 -10.63476 -10.62440 -10.62220  -0.92100
 Alpha  occ. eigenvalues --   -0.83659  -0.69410  -0.63635  -0.54319  -0.52259
 Alpha  occ. eigenvalues --   -0.46742  -0.45066  -0.41150  -0.37032  -0.27094
 Alpha virt. eigenvalues --    0.01146   0.06868   0.06993   0.07858   0.08556
 Alpha virt. eigenvalues --    0.11708   0.12316   0.14465   0.15271   0.16337
 Alpha virt. eigenvalues --    0.18777   0.19369   0.21245   0.22892   0.23883

 Mulliken charges:
               1
     1  C   -0.178843
     2  C   -0.030775
     3  C   -0.043145
     4  C   -0.173863
     5  H    0.076995
     6  H    0.078697
     7  H    0.064944
     8  H    0.058284
     9  H    0.060981
    10  H    0.086725
 Sum of Mulliken charges =   0.00000

 Dipole moment (field-independent basis, Debye):
    X=             -0.0416    Y=              0.0990    Z=              0.1770  Tot=              0.2071
 Quadrupole moment (field-independent basis, Debye-Ang):
   XX=            -24.4043   YY=            -22.8012   ZZ=            -29.6955
   XY=             -0.2700   XZ=              0.6437   YZ=             -0.0938

 1\1\GINC-NODE05\SP\RB2PLYPD3-FC\def2QZVP\C4H6\BOITTIER\26-Aug-2020\0\\
 #p B2PLYPD3/Def2QZVP\\butadiene\\0,1\C,0,-3.845281,0.208925,-0.043368\
 C,0,-2.702072,-0.504799,0.10559\C,0,-1.371405,0.150547,0.097728\C,0,-0
 .282924,-0.702813,-0.063248\H,0,-4.83943,-0.327665,-0.156266\H,0,-3.87
 8156,1.264798,-0.091157\H,0,-2.608082,-1.580564,0.291999\H,0,-1.262317
 ,1.300162,0.102721\H,0,-0.511863,-1.78812,0.041723\H,0,0.691645,-0.266
 491,0.037824\\Version=ES64L-G09RevD.01\State=1-A\HF=-155.678131\MP2=-1
 55.9073518\RMSD=4.095e-09\PG=C01 [X(C4H6)]\\@

 Normal termination of Gaussian 09 at Wed Aug 26 12:52:50 2020.
