 Gaussian 09, Revision D.01,
 Gaussian 09:  ES64L-G09RevD.01 24-Apr-2013

 --------------------
 #p B2PLYPD3/Def2QZVP
 --------------------

 ---------
 butadiene
 ---------
 Symbolic Z-matrix:
 Charge =  0 Multiplicity = 1

                         Standard orientation:
 ---------------------------------------------------------------------
 Center     Atomic      Atomic             Coordinates (Angstroms)
 Number     Number       Type             X           Y           Z
 ---------------------------------------------------------------------
      1          6           0       -1.841974   -0.108610    0.016424
      2          6           0       -0.610221    0.396532   -0.017159
      3          6           0        0.613939   -0.381950   -0.037206
      4          6           0        1.840599    0.108225    0.010536
      5          1           0       -2.721057    0.486947    0.084614
      6          1           0       -1.973764   -1.200940   -0.000508
      7          1           0       -0.492399    1.502938   -0.051027
      8          1           0        0.463738   -1.456250   -0.007503
      9          1           0        2.047617    1.166123    0.036833
     10          1           0        2.661810   -0.584004    0.102020
 ---------------------------------------------------------------------

 SCF Done:  E(RB2PLYPD3) =  -155.699789729     A.U. after   11 cycles
 E2(B2PLYPD3) =    -0.2254603345D+00 E(B2PLYPD3) =    -0.15592525006330D+03

 The electronic state is 1-A.
 Alpha  occ. eigenvalues --  -10.62675 -10.62301 -10.61507 -10.61295  -0.93100
 Alpha  occ. eigenvalues --   -0.85235  -0.70284  -0.63632  -0.54803  -0.53968
 Alpha  occ. eigenvalues --   -0.47075  -0.45403  -0.40733  -0.38250  -0.27900
 Alpha virt. eigenvalues --    0.01813   0.07012   0.07362   0.08047   0.09815
 Alpha virt. eigenvalues --    0.11670   0.12387   0.14742   0.15759   0.16158
 Alpha virt. eigenvalues --    0.18818   0.20448   0.21576   0.22721   0.23869

 Mulliken charges:
               1
     1  C   -0.175197
     2  C   -0.026460
     3  C   -0.025490
     4  C   -0.175308
     5  H    0.091437
     6  H    0.058670
     7  H    0.045730
     8  H    0.050622
     9  H    0.070669
    10  H    0.085327
 Sum of Mulliken charges =   0.00000

 Dipole moment (field-independent basis, Debye):
    X=             -0.0072    Y=              0.0044    Z=              0.1153  Tot=              0.1156
 Quadrupole moment (field-independent basis, Debye-Ang):
   XX=            -23.4493   YY=            -23.1718   ZZ=            -29.2039
   XY=              0.0954   XZ=              0.1571   YZ=             -0.0369

 1\1\GINC-NODE21\SP\RB2PLYPD3-FC\def2QZVP\C4H6\BOITTIER\26-Aug-2020\0\\
 #p B2PLYPD3/Def2QZVP\\butadiene\\0,1\C,0,-3.844917,0.222955,0.000422\C
 ,0,-2.723548,-0.493544,0.052118\C,0,-1.379537,0.052901,0.046084\C,0,-0
 .260949,-0.650733,0.015986\H,0,-4.816915,-0.207188,-0.04775\H,0,-3.778
 59,1.32114,-0.020347\H,0,-2.805856,-1.601336,0.124134\H,0,-1.334817,1.
 135078,-0.020682\H,0,-0.247146,-1.728879,0.026255\H,0,0.670561,-0.1205
 86,-0.098786\\Version=ES64L-G09RevD.01\State=1-A\HF=-155.6997897\MP2=-
 155.9252501\RMSD=2.728e-09\PG=C01 [X(C4H6)]\\@

 Normal termination of Gaussian 09 at Wed Aug 26 16:37:36 2020.
