 Gaussian 09, Revision D.01,
 Gaussian 09:  ES64L-G09RevD.01 24-Apr-2013

 --------------------
 #p B2PLYPD3/Def2QZVP
 --------------------

 ---------
 butadiene
 ---------
 Symbolic Z-matrix:
 Charge =  0 Multiplicity = 1

                         Standard orientation:
 ---------------------------------------------------------------------
 Center     Atomic      Atomic             Coordinates (Angstroms)
 Number     Number       Type             X           Y           Z
 ---------------------------------------------------------------------
      1          6           0        1.836501    0.142446    0.017264
      2          6           0        0.622064   -0.426167   -0.006259
      3          6           0       -0.602827    0.375813   -0.004705
      4          6           0       -1.851438   -0.099698   -0.001611
      5          1           0        2.706678   -0.522349   -0.051650
      6          1           0        1.961540    1.200646   -0.017215
      7          1           0        0.513804   -1.503485   -0.036233
      8          1           0       -0.519439    1.493551    0.056939
      9          1           0       -1.996728   -1.145926    0.106293
     10          1           0       -2.691656    0.523201   -0.086268
 ---------------------------------------------------------------------

 SCF Done:  E(RB2PLYPD3) =  -155.696409676     A.U. after   11 cycles
 E2(B2PLYPD3) =    -0.2259022831D+00 E(B2PLYPD3) =    -0.15592231195896D+03

 The electronic state is 1-A.
 Alpha  occ. eigenvalues --  -10.62851 -10.62786 -10.61690 -10.60783  -0.92751
 Alpha  occ. eigenvalues --   -0.85083  -0.70073  -0.63883  -0.54495  -0.54287
 Alpha  occ. eigenvalues --   -0.47079  -0.45173  -0.41399  -0.37785  -0.27631
 Alpha virt. eigenvalues --    0.01687   0.07027   0.07408   0.08007   0.09446
 Alpha virt. eigenvalues --    0.11725   0.12428   0.14675   0.15692   0.16240
 Alpha virt. eigenvalues --    0.18758   0.20294   0.21637   0.22797   0.24142

 Mulliken charges:
               1
     1  C   -0.171336
     2  C   -0.043063
     3  C   -0.019191
     4  C   -0.184674
     5  H    0.082562
     6  H    0.076747
     7  H    0.059274
     8  H    0.045469
     9  H    0.062655
    10  H    0.091557
 Sum of Mulliken charges =   0.00000

 Dipole moment (field-independent basis, Debye):
    X=              0.0232    Y=             -0.0189    Z=             -0.0334  Tot=              0.0448
 Quadrupole moment (field-independent basis, Debye-Ang):
   XX=            -23.6527   YY=            -22.9946   ZZ=            -29.2762
   XY=             -0.0384   XZ=             -0.2010   YZ=             -0.0552

 1\1\GINC-NODE15\SP\RB2PLYPD3-FC\def2QZVP\C4H6\BOITTIER\26-Aug-2020\0\\
 #p B2PLYPD3/Def2QZVP\\butadiene\\0,1\C,0,-3.834678,0.245784,0.00449\C,
 0,-2.737959,-0.525178,0.043925\C,0,-1.391965,0.050344,0.019297\C,0,-0.
 245492,-0.635691,0.02947\H,0,-4.807121,-0.254739,0.092473\H,0,-3.77300
 8,1.31011,0.008876\H,0,-2.819152,-1.603589,0.104514\H,0,-1.279394,1.16
 3311,-0.074104\H,0,-0.285513,-1.693822,-0.048656\H,0,0.690937,-0.16688
 ,0.096194\\Version=ES64L-G09RevD.01\State=1-A\HF=-155.6964097\MP2=-155
 .922312\RMSD=6.495e-09\PG=C01 [X(C4H6)]\\@

 Normal termination of Gaussian 09 at Wed Aug 26 09:20:13 2020.
