 Gaussian 09, Revision D.01,
 Gaussian 09:  ES64L-G09RevD.01 24-Apr-2013

 --------------------
 #p B2PLYPD3/Def2QZVP
 --------------------

 ---------
 butadiene
 ---------
 Symbolic Z-matrix:
 Charge =  0 Multiplicity = 1

                         Standard orientation:
 ---------------------------------------------------------------------
 Center     Atomic      Atomic             Coordinates (Angstroms)
 Number     Number       Type             X           Y           Z
 ---------------------------------------------------------------------
      1          6           0        1.818870   -0.078667    0.065291
      2          6           0        0.583694    0.356798   -0.061014
      3          6           0       -0.622664   -0.470036   -0.040418
      4          6           0       -1.826031    0.152940    0.025359
      5          1           0        2.650629    0.659435   -0.062096
      6          1           0        2.176750   -1.137182    0.088485
      7          1           0        0.443989    1.448824   -0.157599
      8          1           0       -0.372279   -1.478506   -0.012671
      9          1           0       -1.873494    1.256431    0.272519
     10          1           0       -2.748815   -0.515216   -0.063949
 ---------------------------------------------------------------------

 SCF Done:  E(RB2PLYPD3) =  -155.681439627     A.U. after   12 cycles
 E2(B2PLYPD3) =    -0.2272599570D+00 E(B2PLYPD3) =    -0.15590869958430D+03

 The electronic state is 1-A.
 Alpha  occ. eigenvalues --  -10.63299 -10.62612 -10.62228 -10.61722  -0.93027
 Alpha  occ. eigenvalues --   -0.84430  -0.69389  -0.64064  -0.53997  -0.52754
 Alpha  occ. eigenvalues --   -0.47014  -0.45182  -0.40155  -0.37704  -0.27674
 Alpha virt. eigenvalues --    0.01549   0.06797   0.07238   0.07919   0.09203
 Alpha virt. eigenvalues --    0.11674   0.12085   0.14711   0.15368   0.16030
 Alpha virt. eigenvalues --    0.18732   0.20303   0.20836   0.21952   0.24399

 Mulliken charges:
               1
     1  C   -0.176001
     2  C   -0.013609
     3  C   -0.056189
     4  C   -0.169050
     5  H    0.070288
     6  H    0.058875
     7  H    0.050230
     8  H    0.073136
     9  H    0.080755
    10  H    0.081565
 Sum of Mulliken charges =   0.00000

 Dipole moment (field-independent basis, Debye):
    X=              0.0030    Y=             -0.0695    Z=              0.0024  Tot=              0.0697
 Quadrupole moment (field-independent basis, Debye-Ang):
   XX=            -24.2516   YY=            -23.0072   ZZ=            -29.3509
   XY=             -0.4024   XZ=             -0.3801   YZ=              0.1315

 1\1\GINC-NODE33\SP\RB2PLYPD3-FC\def2QZVP\C4H6\BOITTIER\26-Aug-2020\0\\
 #p B2PLYPD3/Def2QZVP\\butadiene\\0,1\C,0,-3.831563,0.197384,0.078747\C
 ,0,-2.698221,-0.463134,-0.023707\C,0,-1.36005,0.127301,-0.03145\C,0,-0
 .291976,-0.703555,0.065577\H,0,-4.785515,-0.379377,-0.022092\H,0,-3.98
 8087,1.303767,0.056686\H,0,-2.762526,-1.565241,-0.074626\H,0,-1.420135
 ,1.164914,-0.046396\H,0,-0.448041,-1.78572,0.358145\H,0,0.737906,-0.22
 121,-0.046787\\Version=ES64L-G09RevD.01\State=1-A\HF=-155.6814396\MP2=
 -155.9086996\RMSD=3.412e-09\PG=C01 [X(C4H6)]\\@

 Normal termination of Gaussian 09 at Wed Aug 26 14:00:05 2020.
