 Gaussian 09, Revision D.01,
 Gaussian 09:  ES64L-G09RevD.01 24-Apr-2013

 --------------------
 #p B2PLYPD3/Def2QZVP
 --------------------

 ---------
 butadiene
 ---------
 Symbolic Z-matrix:
 Charge =  0 Multiplicity = 1

                         Standard orientation:
 ---------------------------------------------------------------------
 Center     Atomic      Atomic             Coordinates (Angstroms)
 Number     Number       Type             X           Y           Z
 ---------------------------------------------------------------------
      1          6           0        1.867776   -0.155900   -0.062079
      2          6           0        0.622188    0.467869    0.100097
      3          6           0       -0.631150   -0.358911    0.053429
      4          6           0       -1.889998    0.070251   -0.095681
      5          1           0        2.722990    0.478788   -0.186726
      6          1           0        2.082925   -1.284478   -0.062226
      7          1           0        0.492133    1.604735    0.084621
      8          1           0       -0.438199   -1.433139    0.243071
      9          1           0       -2.030485    1.140771    0.002168
     10          1           0       -2.642260   -0.646531   -0.055506
 ---------------------------------------------------------------------

 SCF Done:  E(RB2PLYPD3) =  -155.677777715     A.U. after   12 cycles
 E2(B2PLYPD3) =    -0.2285659704D+00 E(B2PLYPD3) =    -0.15590634368537D+03

 The electronic state is 1-A.
 Alpha  occ. eigenvalues --  -10.64918 -10.63593 -10.63072 -10.60970  -0.91585
 Alpha  occ. eigenvalues --   -0.84172  -0.69918  -0.62845  -0.54556  -0.52684
 Alpha  occ. eigenvalues --   -0.46797  -0.45257  -0.40997  -0.36655  -0.27431
 Alpha virt. eigenvalues --    0.01010   0.06955   0.07035   0.07956   0.08868
 Alpha virt. eigenvalues --    0.11437   0.12160   0.14479   0.15473   0.16248
 Alpha virt. eigenvalues --    0.18997   0.19802   0.21072   0.23148   0.23570

 Mulliken charges:
               1
     1  C   -0.169025
     2  C   -0.064065
     3  C   -0.009823
     4  C   -0.186400
     5  H    0.086841
     6  H    0.075534
     7  H    0.056728
     8  H    0.050092
     9  H    0.067190
    10  H    0.092928
 Sum of Mulliken charges =   0.00000

 Dipole moment (field-independent basis, Debye):
    X=              0.1729    Y=             -0.0304    Z=              0.1300  Tot=              0.2184
 Quadrupole moment (field-independent basis, Debye-Ang):
   XX=            -23.8603   YY=            -22.9054   ZZ=            -29.6678
   XY=             -0.2384   XZ=             -0.7050   YZ=             -0.1523

 1\1\GINC-NODE17\SP\RB2PLYPD3-FC\def2QZVP\C4H6\BOITTIER\26-Aug-2020\0\\
 #p B2PLYPD3/Def2QZVP\\butadiene\\0,1\C,0,-3.864675,0.271633,-0.053255\
 C,0,-2.750561,-0.558641,0.137204\C,0,-1.369719,0.029225,0.071731\C,0,-
 0.207643,-0.622377,-0.055178\H,0,-4.8194,-0.204058,-0.162687\H,0,-3.87
 4863,1.419852,-0.091558\H,0,-2.825571,-1.700346,0.159611\H,0,-1.367874
 ,1.126338,0.225027\H,0,-0.260604,-1.696936,0.078398\H,0,0.660488,-0.05
 0391,-0.033511\\Version=ES64L-G09RevD.01\State=1-A\HF=-155.6777777\MP2
 =-155.9063437\RMSD=4.271e-09\PG=C01 [X(C4H6)]\\@

 Normal termination of Gaussian 09 at Wed Aug 26 11:24:27 2020.
