 Gaussian 09, Revision D.01,
 Gaussian 09:  ES64L-G09RevD.01 24-Apr-2013

 --------------------
 #p B2PLYPD3/Def2QZVP
 --------------------

 ---------
 butadiene
 ---------
 Symbolic Z-matrix:
 Charge =  0 Multiplicity = 1

                         Standard orientation:
 ---------------------------------------------------------------------
 Center     Atomic      Atomic             Coordinates (Angstroms)
 Number     Number       Type             X           Y           Z
 ---------------------------------------------------------------------
      1          6           0       -1.845484    0.108683    0.010745
      2          6           0       -0.603126   -0.396811   -0.029684
      3          6           0        0.606113    0.385744   -0.019386
      4          6           0        1.844732   -0.111000    0.013320
      5          1           0       -2.739478   -0.503806    0.056914
      6          1           0       -2.032757    1.157243    0.049726
      7          1           0       -0.462682   -1.460927   -0.014076
      8          1           0        0.498540    1.486484   -0.027858
      9          1           0        2.031716   -1.151845    0.046430
     10          1           0        2.691255    0.553154    0.038892
 ---------------------------------------------------------------------

 SCF Done:  E(RB2PLYPD3) =  -155.700234594     A.U. after   11 cycles
 E2(B2PLYPD3) =    -0.2256311243D+00 E(B2PLYPD3) =    -0.15592586571835D+03

 The electronic state is 1-A.
 Alpha  occ. eigenvalues --  -10.62588 -10.62491 -10.61558 -10.61199  -0.93078
 Alpha  occ. eigenvalues --   -0.84954  -0.70683  -0.64153  -0.54733  -0.54217
 Alpha  occ. eigenvalues --   -0.46793  -0.45740  -0.41138  -0.38221  -0.27586
 Alpha virt. eigenvalues --    0.01493   0.06980   0.07517   0.08029   0.09774
 Alpha virt. eigenvalues --    0.11655   0.12497   0.14842   0.15912   0.16177
 Alpha virt. eigenvalues --    0.18849   0.20606   0.21814   0.22682   0.23670

 Mulliken charges:
               1
     1  C   -0.171954
     2  C   -0.035081
     3  C   -0.021413
     4  C   -0.180015
     5  H    0.083349
     6  H    0.065855
     7  H    0.056527
     8  H    0.048731
     9  H    0.067755
    10  H    0.086245
 Sum of Mulliken charges =   0.00000

 Dipole moment (field-independent basis, Debye):
    X=             -0.0099    Y=             -0.0058    Z=              0.1068  Tot=              0.1074
 Quadrupole moment (field-independent basis, Debye-Ang):
   XX=            -23.2750   YY=            -23.1815   ZZ=            -29.2290
   XY=             -0.2142   XZ=             -0.0801   YZ=             -0.0255

 1\1\GINC-NODE07\SP\RB2PLYPD3-FC\def2QZVP\C4H6\BOITTIER\26-Aug-2020\0\\
 #p B2PLYPD3/Def2QZVP\\butadiene\\0,1\C,0,-3.847745,0.226182,0.03262\C,
 0,-2.716965,-0.495909,0.009514\C,0,-1.386505,0.055877,-0.003307\C,0,-0
 .257498,-0.654668,0.046408\H,0,-4.837231,-0.213457,0.096918\H,0,-3.842
 889,1.29202,0.03849\H,0,-2.77044,-1.566908,0.058638\H,0,-1.294067,1.15
 718,-0.046408\H,0,-0.260924,-1.71063,0.11235\H,0,0.694924,-0.153454,0.
 052139\\Version=ES64L-G09RevD.01\State=1-A\HF=-155.7002346\MP2=-155.92
 58657\RMSD=3.707e-09\PG=C01 [X(C4H6)]\\@

 Normal termination of Gaussian 09 at Wed Aug 26 20:45:27 2020.
