 Gaussian 09, Revision D.01,
 Gaussian 09:  ES64L-G09RevD.01 24-Apr-2013

 --------------------
 #p B2PLYPD3/Def2QZVP
 --------------------

 ---------
 butadiene
 ---------
 Symbolic Z-matrix:
 Charge =  0 Multiplicity = 1

                         Standard orientation:
 ---------------------------------------------------------------------
 Center     Atomic      Atomic             Coordinates (Angstroms)
 Number     Number       Type             X           Y           Z
 ---------------------------------------------------------------------
      1          6           0       -1.817504   -0.095437    0.050683
      2          6           0       -0.581654    0.364751   -0.082562
      3          6           0        0.580637   -0.468191   -0.095338
      4          6           0        1.800676    0.149220    0.004691
      5          1           0       -2.510378    0.639586    0.084859
      6          1           0       -2.002840   -1.117140    0.164613
      7          1           0       -0.519893    1.510775    0.062832
      8          1           0        0.452077   -1.508930   -0.009183
      9          1           0        1.900717    1.206299    0.088746
     10          1           0        2.787383   -0.432651    0.343290
 ---------------------------------------------------------------------

 SCF Done:  E(RB2PLYPD3) =  -155.671298482     A.U. after   12 cycles
 E2(B2PLYPD3) =    -0.2274608875D+00 E(B2PLYPD3) =    -0.15589875936984D+03

 The electronic state is 1-A.
 Alpha  occ. eigenvalues --  -10.63066 -10.62925 -10.62550 -10.59821  -0.93525
 Alpha  occ. eigenvalues --   -0.84803  -0.70049  -0.64141  -0.55577  -0.53296
 Alpha  occ. eigenvalues --   -0.47108  -0.43888  -0.41717  -0.38165  -0.27148
 Alpha virt. eigenvalues --    0.01243   0.06898   0.07214   0.07875   0.09124
 Alpha virt. eigenvalues --    0.11772   0.12405   0.14678   0.15539   0.16447
 Alpha virt. eigenvalues --    0.18619   0.19508   0.21968   0.23104   0.24374

 Mulliken charges:
               1
     1  C   -0.190318
     2  C   -0.000780
     3  C   -0.049487
     4  C   -0.158475
     5  H    0.087405
     6  H    0.068014
     7  H    0.039519
     8  H    0.071575
     9  H    0.071354
    10  H    0.061192
 Sum of Mulliken charges =   0.00000

 Dipole moment (field-independent basis, Debye):
    X=             -0.0673    Y=             -0.0048    Z=              0.5339  Tot=              0.5381
 Quadrupole moment (field-independent basis, Debye-Ang):
   XX=            -24.6437   YY=            -22.8101   ZZ=            -29.1699
   XY=              0.2165   XZ=              0.5441   YZ=             -0.0703

 1\1\GINC-NODE10\SP\RB2PLYPD3-FC\def2QZVP\C4H6\BOITTIER\26-Aug-2020\0\\
 #p B2PLYPD3/Def2QZVP\\butadiene\\0,1\C,0,-3.82139,0.204628,-0.034924\C
 ,0,-2.68938,-0.471077,0.102287\C,0,-1.394526,0.135701,0.095184\C,0,-0.
 308406,-0.695795,0.002157\H,0,-4.637003,-0.391993,-0.052793\H,0,-3.817
 937,1.24082,-0.167216\H,0,-2.838853,-1.611496,-0.021917\H,0,-1.331582,
 1.180728,-0.009905\H,0,-0.403575,-1.754685,-0.062522\H,0,0.76551,-0.30
 9972,-0.350917\\Version=ES64L-G09RevD.01\State=1-A\HF=-155.6712985\MP2
 =-155.8987594\RMSD=5.331e-09\PG=C01 [X(C4H6)]\\@

 Normal termination of Gaussian 09 at Wed Aug 26 15:39:50 2020.
