 Gaussian 09, Revision D.01,
 Gaussian 09:  ES64L-G09RevD.01 24-Apr-2013

 --------------------
 #p B2PLYPD3/Def2QZVP
 --------------------

 ---------
 butadiene
 ---------
 Symbolic Z-matrix:
 Charge =  0 Multiplicity = 1

                         Standard orientation:
 ---------------------------------------------------------------------
 Center     Atomic      Atomic             Coordinates (Angstroms)
 Number     Number       Type             X           Y           Z
 ---------------------------------------------------------------------
      1          6           0       -1.852497    0.102500    0.002259
      2          6           0       -0.615403   -0.389810   -0.021459
      3          6           0        0.610948    0.412559   -0.011324
      4          6           0        1.850661   -0.120574    0.014714
      5          1           0       -2.710003   -0.562365    0.027626
      6          1           0       -2.037788    1.187881    0.095821
      7          1           0       -0.438990   -1.454686   -0.057930
      8          1           0        0.503834    1.488151   -0.030999
      9          1           0        1.975315   -1.195866    0.105607
     10          1           0        2.745373    0.508841   -0.045272
 ---------------------------------------------------------------------

 SCF Done:  E(RB2PLYPD3) =  -155.699566693     A.U. after   11 cycles
 E2(B2PLYPD3) =    -0.2261378529D+00 E(B2PLYPD3) =    -0.15592570454615D+03

 The electronic state is 1-A.
 Alpha  occ. eigenvalues --  -10.62767 -10.62584 -10.61970 -10.61812  -0.92694
 Alpha  occ. eigenvalues --   -0.84733  -0.69909  -0.64032  -0.54305  -0.53708
 Alpha  occ. eigenvalues --   -0.46703  -0.45629  -0.41032  -0.37884  -0.27689
 Alpha virt. eigenvalues --    0.01610   0.06973   0.07395   0.08042   0.09489
 Alpha virt. eigenvalues --    0.11669   0.12323   0.14633   0.15841   0.16058
 Alpha virt. eigenvalues --    0.18818   0.20431   0.21349   0.22833   0.23723

 Mulliken charges:
               1
     1  C   -0.173235
     2  C   -0.033045
     3  C   -0.032329
     4  C   -0.178842
     5  H    0.086646
     6  H    0.066469
     7  H    0.055050
     8  H    0.055920
     9  H    0.065798
    10  H    0.087569
 Sum of Mulliken charges =   0.00000

 Dipole moment (field-independent basis, Debye):
    X=              0.0111    Y=             -0.0025    Z=              0.0712  Tot=              0.0721
 Quadrupole moment (field-independent basis, Debye-Ang):
   XX=            -23.5355   YY=            -23.1091   ZZ=            -29.3591
   XY=             -0.0859   XZ=             -0.2154   YZ=             -0.0364

 1\1\GINC-NODE36\SP\RB2PLYPD3-FC\def2QZVP\C4H6\BOITTIER\26-Aug-2020\0\\
 #p B2PLYPD3/Def2QZVP\\butadiene\\0,1\C,0,-3.856014,0.215746,0.025062\C
 ,0,-2.726583,-0.489697,0.016776\C,0,-1.376853,0.081137,0.002196\C,0,-0
 .25185,-0.663404,0.044908\H,0,-4.818115,-0.284519,0.070912\H,0,-3.8444
 38,1.319115,0.084912\H,0,-2.742933,-1.569574,0.013352\H,0,-1.290708,1.
 157486,-0.050822\H,0,-0.320299,-1.740411,0.169103\H,0,0.740357,-0.2056
 93,-0.034442\\Version=ES64L-G09RevD.01\State=1-A\HF=-155.6995667\MP2=-
 155.9257045\RMSD=5.437e-09\PG=C01 [X(C4H6)]\\@

 Normal termination of Gaussian 09 at Wed Aug 26 10:25:19 2020.
