 Gaussian 09, Revision D.01,
 Gaussian 09:  ES64L-G09RevD.01 24-Apr-2013

 --------------------
 #p B2PLYPD3/Def2QZVP
 --------------------

 ---------
 butadiene
 ---------
 Symbolic Z-matrix:
 Charge =  0 Multiplicity = 1

                         Standard orientation:
 ---------------------------------------------------------------------
 Center     Atomic      Atomic             Coordinates (Angstroms)
 Number     Number       Type             X           Y           Z
 ---------------------------------------------------------------------
      1          6           0       -1.832405    0.095133    0.020804
      2          6           0       -0.592132   -0.387737   -0.019927
      3          6           0        0.590507    0.415141   -0.004570
      4          6           0        1.827703   -0.118086    0.013799
      5          1           0       -2.711268   -0.559632   -0.024056
      6          1           0       -2.036905    1.145305    0.026126
      7          1           0       -0.395813   -1.450206   -0.057419
      8          1           0        0.482773    1.522553   -0.026766
      9          1           0        1.988941   -1.185025    0.079346
     10          1           0        2.710229    0.500303   -0.057864
 ---------------------------------------------------------------------

 SCF Done:  E(RB2PLYPD3) =  -155.699269719     A.U. after   11 cycles
 E2(B2PLYPD3) =    -0.2260896321D+00 E(B2PLYPD3) =    -0.15592535935107D+03

 The electronic state is 1-A.
 Alpha  occ. eigenvalues --  -10.62754 -10.62274 -10.61660 -10.61490  -0.93297
 Alpha  occ. eigenvalues --   -0.84676  -0.70437  -0.64006  -0.54635  -0.53887
 Alpha  occ. eigenvalues --   -0.46570  -0.45544  -0.41249  -0.38334  -0.27425
 Alpha virt. eigenvalues --    0.01485   0.07020   0.07345   0.08027   0.09659
 Alpha virt. eigenvalues --    0.11704   0.12439   0.14818   0.15923   0.16049
 Alpha virt. eigenvalues --    0.18756   0.20550   0.21683   0.22803   0.23607

 Mulliken charges:
               1
     1  C   -0.175074
     2  C   -0.027047
     3  C   -0.024271
     4  C   -0.180765
     5  H    0.082402
     6  H    0.067976
     7  H    0.055178
     8  H    0.051179
     9  H    0.064992
    10  H    0.085429
 Sum of Mulliken charges =   0.00000

 Dipole moment (field-independent basis, Debye):
    X=              0.0237    Y=              0.0052    Z=             -0.0692  Tot=              0.0733
 Quadrupole moment (field-independent basis, Debye-Ang):
   XX=            -23.4945   YY=            -23.1320   ZZ=            -29.2757
   XY=             -0.3001   XZ=              0.0051   YZ=             -0.0590

 1\1\GINC-NODE06\SP\RB2PLYPD3-FC\def2QZVP\C4H6\BOITTIER\26-Aug-2020\0\\
 #p B2PLYPD3/Def2QZVP\\butadiene\\0,1\C,0,-3.834661,0.217588,0.037176\C
 ,0,-2.705224,-0.487383,0.015073\C,0,-1.394482,0.083018,0.0061\C,0,-0.2
 77133,-0.668888,0.044735\H,0,-4.819607,-0.264487,0.01235\H,0,-3.841453
 ,1.287055,0.007112\H,0,-2.70888,-1.56848,0.013378\H,0,-1.295708,1.1899
 01,-0.053175\H,0,-0.315663,-1.744477,0.146099\H,0,0.704203,-0.227075,-
 0.045679\\Version=ES64L-G09RevD.01\State=1-A\HF=-155.6992697\MP2=-155.
 9253594\RMSD=5.164e-09\PG=C01 [X(C4H6)]\\@

 Normal termination of Gaussian 09 at Wed Aug 26 21:53:59 2020.
