 Gaussian 09, Revision D.01,
 Gaussian 09:  ES64L-G09RevD.01 24-Apr-2013

 --------------------
 #p B2PLYPD3/Def2QZVP
 --------------------

 ---------
 butadiene
 ---------
 Symbolic Z-matrix:
 Charge =  0 Multiplicity = 1

                         Standard orientation:
 ---------------------------------------------------------------------
 Center     Atomic      Atomic             Coordinates (Angstroms)
 Number     Number       Type             X           Y           Z
 ---------------------------------------------------------------------
      1          6           0       -1.802539    0.146425   -0.056180
      2          6           0       -0.621140   -0.419462    0.031774
      3          6           0        0.601448    0.388417    0.061735
      4          6           0        1.827349   -0.124935   -0.056023
      5          1           0       -2.665225   -0.571331    0.200120
      6          1           0       -1.882032    1.216160   -0.215381
      7          1           0       -0.618285   -1.438438   -0.007042
      8          1           0        0.486833    1.457723    0.167763
      9          1           0        1.990274   -1.150979   -0.049060
     10          1           0        2.657721    0.544197    0.015764
 ---------------------------------------------------------------------

 SCF Done:  E(RB2PLYPD3) =  -155.684131898     A.U. after   11 cycles
 E2(B2PLYPD3) =    -0.2254048099D+00 E(B2PLYPD3) =    -0.15590953670787D+03

 The electronic state is 1-A.
 Alpha  occ. eigenvalues --  -10.62375 -10.61618 -10.61225 -10.60667  -0.93372
 Alpha  occ. eigenvalues --   -0.85478  -0.69251  -0.65031  -0.55427  -0.53180
 Alpha  occ. eigenvalues --   -0.46614  -0.45806  -0.41695  -0.37541  -0.27760
 Alpha virt. eigenvalues --    0.01997   0.06950   0.07597   0.07918   0.09427
 Alpha virt. eigenvalues --    0.12011   0.12261   0.14716   0.15337   0.16293
 Alpha virt. eigenvalues --    0.18822   0.19619   0.21366   0.22605   0.24893

 Mulliken charges:
               1
     1  C   -0.175790
     2  C   -0.028285
     3  C   -0.042570
     4  C   -0.177896
     5  H    0.074626
     6  H    0.070265
     7  H    0.068008
     8  H    0.057988
     9  H    0.073628
    10  H    0.080025
 Sum of Mulliken charges =   0.00000

 Dipole moment (field-independent basis, Debye):
    X=              0.0560    Y=             -0.0427    Z=              0.1575  Tot=              0.1725
 Quadrupole moment (field-independent basis, Debye-Ang):
   XX=            -24.4882   YY=            -22.7338   ZZ=            -29.0212
   XY=              0.1332   XZ=             -0.1535   YZ=             -0.1473

 1\1\GINC-NODE19\SP\RB2PLYPD3-FC\def2QZVP\C4H6\BOITTIER\26-Aug-2020\0\\
 #p B2PLYPD3/Def2QZVP\\butadiene\\0,1\C,0,-3.803526,0.236634,-0.034632\
 C,0,-2.735764,-0.519326,0.075262\C,0,-1.392876,0.067989,0.07465\C,0,-0
 .273572,-0.651629,-0.023014\H,0,-4.774619,-0.312727,0.24869\H,0,-3.699
 923,1.297411,-0.234674\H,0,-2.907434,-1.52449,0.075467\H,0,-1.322291,1
 .144366,0.139648\H,0,-0.288455,-1.689414,0.023254\H,0,0.659421,-0.1322
 24,0.023362\\Version=ES64L-G09RevD.01\State=1-A\HF=-155.6841319\MP2=-1
 55.9095367\RMSD=9.905e-09\PG=C01 [X(C4H6)]\\@

 Normal termination of Gaussian 09 at Wed Aug 26 14:35:42 2020.
