 Gaussian 09, Revision D.01,
 Gaussian 09:  ES64L-G09RevD.01 24-Apr-2013

 --------------------
 #p B2PLYPD3/Def2QZVP
 --------------------

 ---------
 butadiene
 ---------
 Symbolic Z-matrix:
 Charge =  0 Multiplicity = 1

                         Standard orientation:
 ---------------------------------------------------------------------
 Center     Atomic      Atomic             Coordinates (Angstroms)
 Number     Number       Type             X           Y           Z
 ---------------------------------------------------------------------
      1          6           0        1.835053   -0.094574   -0.009928
      2          6           0        0.600628    0.358357   -0.033041
      3          6           0       -0.615995   -0.416674   -0.018677
      4          6           0       -1.828844    0.131778    0.012972
      5          1           0        2.703968    0.565753    0.153036
      6          1           0        2.093294   -1.119025   -0.006981
      7          1           0        0.512182    1.446586    0.030930
      8          1           0       -0.546865   -1.504736    0.088772
      9          1           0       -1.983842    1.236767    0.009227
     10          1           0       -2.723788   -0.498666    0.017065
 ---------------------------------------------------------------------

 SCF Done:  E(RB2PLYPD3) =  -155.696623602     A.U. after   11 cycles
 E2(B2PLYPD3) =    -0.2255652407D+00 E(B2PLYPD3) =    -0.15592218884293D+03

 The electronic state is 1-A.
 Alpha  occ. eigenvalues --  -10.62637 -10.62209 -10.62054 -10.61034  -0.93257
 Alpha  occ. eigenvalues --   -0.85235  -0.69997  -0.63824  -0.54779  -0.53934
 Alpha  occ. eigenvalues --   -0.46649  -0.44991  -0.40801  -0.38365  -0.27914
 Alpha virt. eigenvalues --    0.01806   0.06966   0.07419   0.07864   0.09813
 Alpha virt. eigenvalues --    0.11609   0.12407   0.14716   0.15679   0.16392
 Alpha virt. eigenvalues --    0.18887   0.19943   0.21753   0.22631   0.23907

 Mulliken charges:
               1
     1  C   -0.169407
     2  C   -0.018324
     3  C   -0.042184
     4  C   -0.168535
     5  H    0.075890
     6  H    0.062265
     7  H    0.051996
     8  H    0.058539
     9  H    0.065954
    10  H    0.083807
 Sum of Mulliken charges =   0.00000

 Dipole moment (field-independent basis, Debye):
    X=             -0.0455    Y=             -0.0415    Z=              0.2211  Tot=              0.2295
 Quadrupole moment (field-independent basis, Debye-Ang):
   XX=            -23.4243   YY=            -23.1984   ZZ=            -29.1754
   XY=             -0.1100   XZ=              0.3459   YZ=              0.0423

 1\1\GINC-NODE18\SP\RB2PLYPD3-FC\def2QZVP\C4H6\BOITTIER\26-Aug-2020\0\\
 #p B2PLYPD3/Def2QZVP\\butadiene\\0,1\C,0,-3.843252,0.200965,0.019661\C
 ,0,-2.708615,-0.463859,0.00995\C,0,-1.373997,0.083592,-0.001956\C,0,-0
 .277128,-0.669644,0.046174\H,0,-4.814171,-0.289606,0.204747\H,0,-3.916
 147,1.254526,-0.010229\H,0,-2.813667,-1.547981,0.108955\H,0,-1.248814,
 1.16955,0.070356\H,0,-0.320098,-1.784176,0.077972\H,0,0.715244,-0.2077
 95,0.028997\\Version=ES64L-G09RevD.01\State=1-A\HF=-155.6966236\MP2=-1
 55.9221888\RMSD=5.895e-09\PG=C01 [X(C4H6)]\\@

 Normal termination of Gaussian 09 at Wed Aug 26 09:56:16 2020.
