 Gaussian 09, Revision D.01,
 Gaussian 09:  ES64L-G09RevD.01 24-Apr-2013

 --------------------
 #p B2PLYPD3/Def2QZVP
 --------------------

 ---------
 butadiene
 ---------
 Symbolic Z-matrix:
 Charge =  0 Multiplicity = 1

                         Standard orientation:
 ---------------------------------------------------------------------
 Center     Atomic      Atomic             Coordinates (Angstroms)
 Number     Number       Type             X           Y           Z
 ---------------------------------------------------------------------
      1          6           0        1.838011   -0.117033    0.007812
      2          6           0        0.615304    0.402433   -0.033818
      3          6           0       -0.604574   -0.392915   -0.031441
      4          6           0       -1.848499    0.112070    0.018658
      5          1           0        2.732661    0.518899    0.078224
      6          1           0        1.945791   -1.193097    0.062942
      7          1           0        0.491982    1.493598    0.015956
      8          1           0       -0.462642   -1.461483   -0.011499
      9          1           0       -2.022858    1.155427    0.024437
     10          1           0       -2.686379   -0.540677    0.062682
 ---------------------------------------------------------------------

 SCF Done:  E(RB2PLYPD3) =  -155.699960842     A.U. after   11 cycles
 E2(B2PLYPD3) =    -0.2256805576D+00 E(B2PLYPD3) =    -0.15592564139982D+03

 The electronic state is 1-A.
 Alpha  occ. eigenvalues --  -10.62584 -10.62520 -10.61643 -10.61181  -0.92951
 Alpha  occ. eigenvalues --   -0.85008  -0.70206  -0.64063  -0.54427  -0.54204
 Alpha  occ. eigenvalues --   -0.46605  -0.45937  -0.41155  -0.38064  -0.27701
 Alpha virt. eigenvalues --    0.01707   0.07004   0.07438   0.08055   0.09606
 Alpha virt. eigenvalues --    0.11725   0.12446   0.14737   0.15854   0.16069
 Alpha virt. eigenvalues --    0.18767   0.20488   0.21533   0.23006   0.23910

 Mulliken charges:
               1
     1  C   -0.174396
     2  C   -0.025423
     3  C   -0.031942
     4  C   -0.180902
     5  H    0.087077
     6  H    0.064143
     7  H    0.050652
     8  H    0.052808
     9  H    0.070396
    10  H    0.087586
 Sum of Mulliken charges =   0.00000

 Dipole moment (field-independent basis, Debye):
    X=             -0.0045    Y=              0.0076    Z=              0.1701  Tot=              0.1704
 Quadrupole moment (field-independent basis, Debye-Ang):
   XX=            -23.5426   YY=            -23.0849   ZZ=            -29.2584
   XY=             -0.0614   XZ=              0.1421   YZ=             -0.0055

 1\1\GINC-NODE01\SP\RB2PLYPD3-FC\def2QZVP\C4H6\BOITTIER\26-Aug-2020\0\\
 #p B2PLYPD3/Def2QZVP\\butadiene\\0,1\C,0,-3.839819,0.227637,0.032527\C
 ,0,-2.7291,-0.501898,0.0066\C,0,-1.387291,0.06365,-0.013149\C,0,-0.252
 704,-0.652806,0.052212\H,0,-4.832921,-0.236852,0.12065\H,0,-3.75439,1.
 306845,0.056625\H,0,-2.801445,-1.595743,0.087807\H,0,-1.336961,1.14055
 7,-0.02403\H,0,-0.266527,-1.709948,0.088099\H,0,0.688036,-0.158434,0.0
 7796\\Version=ES64L-G09RevD.01\State=1-A\HF=-155.6999608\MP2=-155.9256
 414\RMSD=5.707e-09\PG=C01 [X(C4H6)]\\@

 Normal termination of Gaussian 09 at Wed Aug 26 09:32:01 2020.
