 Gaussian 09, Revision D.01,
 Gaussian 09:  ES64L-G09RevD.01 24-Apr-2013

 --------------------
 #p B2PLYPD3/Def2QZVP
 --------------------

 ---------
 butadiene
 ---------
 Symbolic Z-matrix:
 Charge =  0 Multiplicity = 1

                         Standard orientation:
 ---------------------------------------------------------------------
 Center     Atomic      Atomic             Coordinates (Angstroms)
 Number     Number       Type             X           Y           Z
 ---------------------------------------------------------------------
      1          6           0       -1.843319    0.099223   -0.037820
      2          6           0       -0.611540   -0.379028    0.054631
      3          6           0        0.593721    0.387487    0.020465
      4          6           0        1.842603   -0.116515   -0.010992
      5          1           0       -2.701463   -0.540101   -0.050379
      6          1           0       -2.025337    1.162940    0.065463
      7          1           0       -0.478405   -1.407545   -0.060463
      8          1           0        0.546908    1.486276   -0.046596
      9          1           0        2.048491   -1.173601   -0.004010
     10          1           0        2.721019    0.525028   -0.061719
 ---------------------------------------------------------------------

 SCF Done:  E(RB2PLYPD3) =  -155.696654410     A.U. after   11 cycles
 E2(B2PLYPD3) =    -0.2257085215D+00 E(B2PLYPD3) =    -0.15592236293180D+03

 The electronic state is 1-A.
 Alpha  occ. eigenvalues --  -10.62656 -10.61796 -10.61707 -10.61330  -0.93384
 Alpha  occ. eigenvalues --   -0.85041  -0.70684  -0.64280  -0.54953  -0.54162
 Alpha  occ. eigenvalues --   -0.46729  -0.45427  -0.41232  -0.38345  -0.27623
 Alpha virt. eigenvalues --    0.01380   0.07020   0.07608   0.07994   0.09749
 Alpha virt. eigenvalues --    0.11669   0.12489   0.14799   0.15627   0.16384
 Alpha virt. eigenvalues --    0.18847   0.19886   0.21779   0.23013   0.23894

 Mulliken charges:
               1
     1  C   -0.169714
     2  C   -0.034444
     3  C   -0.026186
     4  C   -0.177688
     5  H    0.083578
     6  H    0.065562
     7  H    0.062611
     8  H    0.049944
     9  H    0.063420
    10  H    0.082918
 Sum of Mulliken charges =   0.00000

 Dipole moment (field-independent basis, Debye):
    X=             -0.0085    Y=             -0.0367    Z=             -0.0828  Tot=              0.0910
 Quadrupole moment (field-independent basis, Debye-Ang):
   XX=            -23.2409   YY=            -23.2698   ZZ=            -29.1620
   XY=             -0.0306   XZ=             -0.1562   YZ=              0.1102

 1\1\GINC-NODE22\SP\RB2PLYPD3-FC\def2QZVP\C4H6\BOITTIER\26-Aug-2020\0\\
 #p B2PLYPD3/Def2QZVP\\butadiene\\0,1\C,0,-3.845631,0.213026,-0.018616\
 C,0,-2.719163,-0.476242,0.083988\C,0,-1.396186,0.060953,0.033792\C,0,-
 0.257963,-0.659278,0.013059\H,0,-4.804492,-0.262252,-0.017784\H,0,-3.8
 33701,1.29405,0.062232\H,0,-2.77292,-1.514127,-0.009414\H,0,-1.245584,
 1.148708,-0.056393\H,0,-0.244815,-1.735772,0.042314\H,0,0.721006,-0.18
 6763,-0.05109\\Version=ES64L-G09RevD.01\State=1-A\HF=-155.6966544\MP2=
 -155.9223629\RMSD=4.579e-09\PG=C01 [X(C4H6)]\\@

 Normal termination of Gaussian 09 at Wed Aug 26 08:42:50 2020.
