 Gaussian 09, Revision D.01,
 Gaussian 09:  ES64L-G09RevD.01 24-Apr-2013

 --------------------
 #p B2PLYPD3/Def2QZVP
 --------------------

 ---------
 butadiene
 ---------
 Symbolic Z-matrix:
 Charge =  0 Multiplicity = 1

                         Standard orientation:
 ---------------------------------------------------------------------
 Center     Atomic      Atomic             Coordinates (Angstroms)
 Number     Number       Type             X           Y           Z
 ---------------------------------------------------------------------
      1          6           0        1.862763    0.094953    0.033074
      2          6           0        0.633961   -0.377452   -0.082905
      3          6           0       -0.622983    0.413185   -0.007898
      4          6           0       -1.851931   -0.130965   -0.009199
      5          1           0        2.752141   -0.515442    0.262899
      6          1           0        1.981480    1.165436   -0.071355
      7          1           0        0.594689   -1.396178   -0.028940
      8          1           0       -0.621258    1.497012   -0.059150
      9          1           0       -2.124789   -1.188522    0.035887
     10          1           0       -2.713127    0.439366    0.262233
 ---------------------------------------------------------------------

 SCF Done:  E(RB2PLYPD3) =  -155.684799161     A.U. after   11 cycles
 E2(B2PLYPD3) =    -0.2258894782D+00 E(B2PLYPD3) =    -0.15591068863902D+03

 The electronic state is 1-A.
 Alpha  occ. eigenvalues --  -10.63446 -10.61923 -10.61598 -10.61517  -0.92697
 Alpha  occ. eigenvalues --   -0.85389  -0.69871  -0.64750  -0.55049  -0.53780
 Alpha  occ. eigenvalues --   -0.47052  -0.44704  -0.41369  -0.37450  -0.27956
 Alpha virt. eigenvalues --    0.01594   0.06956   0.07664   0.08025   0.09205
 Alpha virt. eigenvalues --    0.11496   0.12593   0.14440   0.15642   0.16583
 Alpha virt. eigenvalues --    0.19175   0.19802   0.21238   0.23409   0.23712

 Mulliken charges:
               1
     1  C   -0.170919
     2  C   -0.033613
     3  C   -0.055118
     4  C   -0.155348
     5  H    0.085459
     6  H    0.062006
     7  H    0.070567
     8  H    0.067516
     9  H    0.058474
    10  H    0.070975
 Sum of Mulliken charges =   0.00000

 Dipole moment (field-independent basis, Debye):
    X=             -0.0003    Y=             -0.0426    Z=              0.3005  Tot=              0.3035
 Quadrupole moment (field-independent basis, Debye-Ang):
   XX=            -23.2552   YY=            -23.3304   ZZ=            -29.0653
   XY=             -0.0444   XZ=             -0.1118   YZ=             -0.2502

 1\1\GINC-NODE01\SP\RB2PLYPD3-FC\def2QZVP\C4H6\BOITTIER\26-Aug-2020\0\\
 #p B2PLYPD3/Def2QZVP\\butadiene\\0,1\C,0,-3.8691,0.19597,-0.016675\C,0
 ,-2.738678,-0.478061,0.103334\C,0,-1.365435,0.085949,0.021267\C,0,-0.2
 47287,-0.659788,0.027233\H,0,-4.849909,-0.255766,-0.241046\H,0,-3.8033
 54,1.271878,0.078358\H,0,-2.873799,-1.488988,0.058316\H,0,-1.182219,1.
 154594,0.062997\H,0,-0.158851,-1.748736,-0.008587\H,0,0.698124,-0.2470
 52,-0.249279\\Version=ES64L-G09RevD.01\State=1-A\HF=-155.6847992\MP2=-
 155.9106886\RMSD=7.323e-09\PG=C01 [X(C4H6)]\\@

 Normal termination of Gaussian 09 at Wed Aug 26 12:18:58 2020.
