 Gaussian 09, Revision D.01,
 Gaussian 09:  ES64L-G09RevD.01 24-Apr-2013

 --------------------
 #p B2PLYPD3/Def2QZVP
 --------------------

 ---------
 butadiene
 ---------
 Symbolic Z-matrix:
 Charge =  0 Multiplicity = 1

                         Standard orientation:
 ---------------------------------------------------------------------
 Center     Atomic      Atomic             Coordinates (Angstroms)
 Number     Number       Type             X           Y           Z
 ---------------------------------------------------------------------
      1          6           0       -1.844823   -0.113596    0.018948
      2          6           0       -0.607581    0.394444   -0.032500
      3          6           0        0.605919   -0.405078   -0.029898
      4          6           0        1.837669    0.111608    0.027781
      5          1           0       -2.651472    0.571536    0.064052
      6          1           0       -2.041128   -1.179747    0.017633
      7          1           0       -0.483333    1.487429   -0.024870
      8          1           0        0.490103   -1.472491   -0.000907
      9          1           0        2.010018    1.189515    0.022365
     10          1           0        2.728711   -0.520509    0.015736
 ---------------------------------------------------------------------

 SCF Done:  E(RB2PLYPD3) =  -155.700172881     A.U. after   11 cycles
 E2(B2PLYPD3) =    -0.2258109060D+00 E(B2PLYPD3) =    -0.15592598378701D+03

 The electronic state is 1-A.
 Alpha  occ. eigenvalues --  -10.62664 -10.62418 -10.61735 -10.61312  -0.92904
 Alpha  occ. eigenvalues --   -0.84912  -0.70135  -0.63965  -0.54470  -0.54058
 Alpha  occ. eigenvalues --   -0.46454  -0.45742  -0.41211  -0.38071  -0.27636
 Alpha virt. eigenvalues --    0.01694   0.07004   0.07405   0.08041   0.09602
 Alpha virt. eigenvalues --    0.11689   0.12333   0.14765   0.15851   0.16112
 Alpha virt. eigenvalues --    0.18797   0.20372   0.21569   0.22805   0.23968

 Mulliken charges:
               1
     1  C   -0.181010
     2  C   -0.028638
     3  C   -0.033109
     4  C   -0.172350
     5  H    0.087375
     6  H    0.071257
     7  H    0.051357
     8  H    0.057689
     9  H    0.064198
    10  H    0.083230
 Sum of Mulliken charges =   0.00000

 Dipole moment (field-independent basis, Debye):
    X=              0.0065    Y=             -0.0078    Z=              0.0408  Tot=              0.0421
 Quadrupole moment (field-independent basis, Debye-Ang):
   XX=            -23.6136   YY=            -22.9796   ZZ=            -29.3027
   XY=              0.1429   XZ=             -0.1304   YZ=              0.0140

 1\1\GINC-NODE14\SP\RB2PLYPD3-FC\def2QZVP\C4H6\BOITTIER\26-Aug-2020\0\\
 #p B2PLYPD3/Def2QZVP\\butadiene\\0,1\C,0,-3.845705,0.226527,-0.004136\
 C,0,-2.719922,-0.494105,0.065294\C,0,-1.382396,0.073654,0.042993\C,0,-
 0.263842,-0.657635,0.003576\H,0,-4.762559,-0.303323,-0.031702\H,0,-3.8
 47001,1.310187,-0.034047\H,0,-2.79435,-1.591369,0.089469\H,0,-1.304365
 ,1.143202,-0.017028\H,0,-0.288209,-1.748351,0.040488\H,0,0.726408,-0.1
 96048,-0.000147\\Version=ES64L-G09RevD.01\State=1-A\HF=-155.7001729\MP
 2=-155.9259838\RMSD=4.069e-09\PG=C01 [X(C4H6)]\\@

 Normal termination of Gaussian 09 at Wed Aug 26 16:29:05 2020.
