 Gaussian 09, Revision D.01,
 Gaussian 09:  ES64L-G09RevD.01 24-Apr-2013

 --------------------
 #p B2PLYPD3/Def2QZVP
 --------------------

 ---------
 butadiene
 ---------
 Symbolic Z-matrix:
 Charge =  0 Multiplicity = 1

                         Standard orientation:
 ---------------------------------------------------------------------
 Center     Atomic      Atomic             Coordinates (Angstroms)
 Number     Number       Type             X           Y           Z
 ---------------------------------------------------------------------
      1          6           0       -1.835703    0.084929   -0.075598
      2          6           0       -0.592065   -0.373589    0.073364
      3          6           0        0.597398    0.461236    0.037277
      4          6           0        1.805440   -0.164358   -0.021894
      5          1           0       -2.719657   -0.527582    0.049989
      6          1           0       -1.939679    1.132488   -0.198850
      7          1           0       -0.380612   -1.376030    0.188193
      8          1           0        0.633367    1.555625    0.247608
      9          1           0        1.767601   -1.286437   -0.212268
     10          1           0        2.788553    0.452629   -0.153565
 ---------------------------------------------------------------------

 SCF Done:  E(RB2PLYPD3) =  -155.681447863     A.U. after   12 cycles
 E2(B2PLYPD3) =    -0.2275417827D+00 E(B2PLYPD3) =    -0.15590898964565D+03

 The electronic state is 1-A.
 Alpha  occ. eigenvalues --  -10.63286 -10.63167 -10.62046 -10.61109  -0.93181
 Alpha  occ. eigenvalues --   -0.84386  -0.69238  -0.64268  -0.54133  -0.53610
 Alpha  occ. eigenvalues --   -0.45742  -0.44965  -0.41807  -0.37704  -0.27501
 Alpha virt. eigenvalues --    0.01526   0.06976   0.07363   0.07615   0.09032
 Alpha virt. eigenvalues --    0.11679   0.12459   0.14391   0.15273   0.16364
 Alpha virt. eigenvalues --    0.18539   0.19326   0.21490   0.22696   0.23861

 Mulliken charges:
               1
     1  C   -0.176997
     2  C   -0.035812
     3  C   -0.036372
     4  C   -0.173409
     5  H    0.087248
     6  H    0.066356
     7  H    0.066576
     8  H    0.067343
     9  H    0.057053
    10  H    0.078014
 Sum of Mulliken charges =   0.00000

 Dipole moment (field-independent basis, Debye):
    X=              0.0034    Y=              0.0515    Z=              0.0187  Tot=              0.0549
 Quadrupole moment (field-independent basis, Debye-Ang):
   XX=            -24.0613   YY=            -23.1655   ZZ=            -29.2866
   XY=              0.3891   XZ=             -0.5104   YZ=              0.0253

 1\1\GINC-NODE09\SP\RB2PLYPD3-FC\def2QZVP\C4H6\BOITTIER\26-Aug-2020\0\\
 #p B2PLYPD3/Def2QZVP\\butadiene\\0,1\C,0,-3.843527,0.184512,-0.048299\
 C,0,-2.697279,-0.480741,0.10209\C,0,-1.381649,0.135824,0.057125\C,0,-0
 .299974,-0.689427,0.000799\H,0,-4.819566,-0.265165,0.083818\H,0,-3.765
 443,1.233319,-0.17979\H,0,-2.661738,-1.503734,0.2246\H,0,-1.156576,1.2
 09128,0.258575\H,0,-0.531607,-1.789529,-0.180468\H,0,0.774487,-0.25251
 2,-0.137619\\Version=ES64L-G09RevD.01\State=1-A\HF=-155.6814479\MP2=-1
 55.9089896\RMSD=3.768e-09\PG=C01 [X(C4H6)]\\@

 Normal termination of Gaussian 09 at Wed Aug 26 13:23:17 2020.
