 Gaussian 09, Revision D.01,
 Gaussian 09:  ES64L-G09RevD.01 24-Apr-2013

 --------------------
 #p B2PLYPD3/Def2QZVP
 --------------------

 ---------
 butadiene
 ---------
 Symbolic Z-matrix:
 Charge =  0 Multiplicity = 1

                         Standard orientation:
 ---------------------------------------------------------------------
 Center     Atomic      Atomic             Coordinates (Angstroms)
 Number     Number       Type             X           Y           Z
 ---------------------------------------------------------------------
      1          6           0        1.860210    0.073467    0.088770
      2          6           0        0.636099   -0.359256   -0.050907
      3          6           0       -0.618908    0.473650   -0.063781
      4          6           0       -1.869946   -0.148112    0.034439
      5          1           0        2.644399   -0.613231    0.011853
      6          1           0        2.157910    1.132970   -0.058184
      7          1           0        0.524525   -1.441762   -0.044935
      8          1           0       -0.506460    1.503055   -0.129490
      9          1           0       -2.012242   -1.184237   -0.131812
     10          1           0       -2.852865    0.364708    0.301446
 ---------------------------------------------------------------------

 SCF Done:  E(RB2PLYPD3) =  -155.678317043     A.U. after   12 cycles
 E2(B2PLYPD3) =    -0.2270556739D+00 E(B2PLYPD3) =    -0.15590537271678D+03

 The electronic state is 1-A.
 Alpha  occ. eigenvalues --  -10.63955 -10.63228 -10.62642 -10.60708  -0.92180
 Alpha  occ. eigenvalues --   -0.84580  -0.70175  -0.64438  -0.54519  -0.53277
 Alpha  occ. eigenvalues --   -0.47480  -0.45198  -0.41009  -0.37085  -0.27512
 Alpha virt. eigenvalues --    0.01090   0.06904   0.07512   0.08072   0.08858
 Alpha virt. eigenvalues --    0.11389   0.12535   0.14508   0.15774   0.16656
 Alpha virt. eigenvalues --    0.19101   0.19276   0.22031   0.22776   0.24247

 Mulliken charges:
               1
     1  C   -0.156778
     2  C   -0.028057
     3  C   -0.063392
     4  C   -0.170468
     5  H    0.075485
     6  H    0.053715
     7  H    0.055743
     8  H    0.080540
     9  H    0.076673
    10  H    0.076540
 Sum of Mulliken charges =   0.00000

 Dipole moment (field-independent basis, Debye):
    X=             -0.0897    Y=             -0.0636    Z=             -0.1541  Tot=              0.1893
 Quadrupole moment (field-independent basis, Debye-Ang):
   XX=            -23.3922   YY=            -23.2183   ZZ=            -29.3126
   XY=              0.3699   XZ=             -0.7845   YZ=              0.1055

 1\1\GINC-NODE03\SP\RB2PLYPD3-FC\def2QZVP\C4H6\BOITTIER\26-Aug-2020\0\\
 #p B2PLYPD3/Def2QZVP\\butadiene\\0,1\C,0,-3.87065,0.181664,-0.055787\C
 ,0,-2.741378,-0.458445,0.086375\C,0,-1.358748,0.139224,0.078328\C,0,-0
 .238237,-0.695797,-0.014006\H,0,-4.76335,-0.353924,0.037246\H,0,-3.975
 072,1.279519,0.07297\H,0,-2.823133,-1.543544,0.099827\H,0,-1.286791,1.
 173258,0.125583\H,0,-0.280234,-1.73771,0.170648\H,0,0.817836,-0.369789
 ,-0.294781\\Version=ES64L-G09RevD.01\State=1-A\HF=-155.678317\MP2=-155
 .9053727\RMSD=3.619e-09\PG=C01 [X(C4H6)]\\@

 Normal termination of Gaussian 09 at Wed Aug 26 11:44:31 2020.
