 Gaussian 09, Revision D.01,
 Gaussian 09:  ES64L-G09RevD.01 24-Apr-2013

 --------------------
 #p B2PLYPD3/Def2QZVP
 --------------------

 ---------
 butadiene
 ---------
 Symbolic Z-matrix:
 Charge =  0 Multiplicity = 1

                         Standard orientation:
 ---------------------------------------------------------------------
 Center     Atomic      Atomic             Coordinates (Angstroms)
 Number     Number       Type             X           Y           Z
 ---------------------------------------------------------------------
      1          6           0        1.841401   -0.127017   -0.049709
      2          6           0        0.592356    0.392481    0.075251
      3          6           0       -0.623955   -0.342127    0.039257
      4          6           0       -1.849405    0.074697   -0.088274
      5          1           0        2.786375    0.521992    0.010342
      6          1           0        2.102531   -1.164885   -0.231666
      7          1           0        0.515972    1.554542    0.123195
      8          1           0       -0.372932   -1.398364    0.238639
      9          1           0       -2.149352    1.101877   -0.133592
     10          1           0       -2.644977   -0.603373    0.133933
 ---------------------------------------------------------------------

 SCF Done:  E(RB2PLYPD3) =  -155.682871684     A.U. after   12 cycles
 E2(B2PLYPD3) =    -0.2267730161D+00 E(B2PLYPD3) =    -0.15590964470038D+03

 The electronic state is 1-A.
 Alpha  occ. eigenvalues --  -10.63605 -10.62958 -10.62173 -10.60918  -0.93405
 Alpha  occ. eigenvalues --   -0.84952  -0.70994  -0.62967  -0.54895  -0.53742
 Alpha  occ. eigenvalues --   -0.47158  -0.44957  -0.39609  -0.38189  -0.27930
 Alpha virt. eigenvalues --    0.01002   0.06903   0.07329   0.07735   0.10057
 Alpha virt. eigenvalues --    0.11343   0.12470   0.14930   0.15644   0.16068
 Alpha virt. eigenvalues --    0.19124   0.20006   0.21667   0.21780   0.23211

 Mulliken charges:
               1
     1  C   -0.170059
     2  C   -0.033029
     3  C   -0.016110
     4  C   -0.166461
     5  H    0.077264
     6  H    0.067489
     7  H    0.043399
     8  H    0.051278
     9  H    0.065206
    10  H    0.081023
 Sum of Mulliken charges =   0.00000

 Dipole moment (field-independent basis, Debye):
    X=              0.0617    Y=             -0.0198    Z=              0.1643  Tot=              0.1766
 Quadrupole moment (field-independent basis, Debye-Ang):
   XX=            -23.1364   YY=            -23.6430   ZZ=            -29.1538
   XY=             -0.6544   XZ=             -0.6527   YZ=             -0.1039

 1\1\GINC-NODE05\SP\RB2PLYPD3-FC\def2QZVP\C4H6\BOITTIER\26-Aug-2020\0\\
 #p B2PLYPD3/Def2QZVP\\butadiene\\0,1\C,0,-3.84298,0.247673,-0.037013\C
 ,0,-2.711369,-0.489133,0.111912\C,0,-1.380352,0.007088,0.061735\C,0,-0
 .252751,-0.632334,-0.044978\H,0,-4.891546,-0.213753,0.036414\H,0,-3.90
 7933,1.309746,-0.252068\H,0,-2.850783,-1.643293,0.195558\H,0,-1.432334
 ,1.097168,0.227346\H,0,-0.147465,-1.698114,-0.057155\H,0,0.654081,-0.1
 06054,0.161846\\Version=ES64L-G09RevD.01\State=1-A\HF=-155.6828717\MP2
 =-155.9096447\RMSD=3.331e-09\PG=C01 [X(C4H6)]\\@

 Normal termination of Gaussian 09 at Wed Aug 26 12:34:11 2020.
