 Gaussian 09, Revision D.01,
 Gaussian 09:  ES64L-G09RevD.01 24-Apr-2013

 --------------------
 #p B2PLYPD3/Def2QZVP
 --------------------

 ---------
 butadiene
 ---------
 Symbolic Z-matrix:
 Charge =  0 Multiplicity = 1

                         Standard orientation:
 ---------------------------------------------------------------------
 Center     Atomic      Atomic             Coordinates (Angstroms)
 Number     Number       Type             X           Y           Z
 ---------------------------------------------------------------------
      1          6           0        1.866302    0.082634   -0.027100
      2          6           0        0.611102   -0.369203    0.021449
      3          6           0       -0.628204    0.412359    0.043564
      4          6           0       -1.866379   -0.128730   -0.052534
      5          1           0        2.775478   -0.490421   -0.056803
      6          1           0        1.934160    1.166488   -0.019738
      7          1           0        0.480323   -1.408465   -0.016615
      8          1           0       -0.463663    1.456886    0.158565
      9          1           0       -1.962796   -1.264855    0.197003
     10          1           0       -2.660431    0.558006   -0.174684
 ---------------------------------------------------------------------

 SCF Done:  E(RB2PLYPD3) =  -155.683931369     A.U. after   11 cycles
 E2(B2PLYPD3) =    -0.2267509868D+00 E(B2PLYPD3) =    -0.15591068235625D+03

 The electronic state is 1-A.
 Alpha  occ. eigenvalues --  -10.62874 -10.62661 -10.62033 -10.61500  -0.92810
 Alpha  occ. eigenvalues --   -0.84911  -0.70198  -0.64246  -0.54899  -0.53427
 Alpha  occ. eigenvalues --   -0.46995  -0.45535  -0.41227  -0.37389  -0.27541
 Alpha virt. eigenvalues --    0.01214   0.06937   0.07359   0.08164   0.09377
 Alpha virt. eigenvalues --    0.11631   0.12474   0.14275   0.15483   0.16473
 Alpha virt. eigenvalues --    0.18634   0.19739   0.21489   0.23164   0.24059

 Mulliken charges:
               1
     1  C   -0.178349
     2  C   -0.015344
     3  C   -0.046150
     4  C   -0.184007
     5  H    0.095398
     6  H    0.051087
     7  H    0.049558
     8  H    0.056027
     9  H    0.078353
    10  H    0.093426
 Sum of Mulliken charges =   0.00000

 Dipole moment (field-independent basis, Debye):
    X=              0.0168    Y=              0.0419    Z=              0.1280  Tot=              0.1357
 Quadrupole moment (field-independent basis, Debye-Ang):
   XX=            -23.5809   YY=            -23.3310   ZZ=            -29.2603
   XY=             -0.3391   XZ=             -0.1610   YZ=             -0.1961

 1\1\GINC-NODE28\SP\RB2PLYPD3-FC\def2QZVP\C4H6\BOITTIER\26-Aug-2020\0\\
 #p B2PLYPD3/Def2QZVP\\butadiene\\0,1\C,0,-3.877009,0.196158,0.048437\C
 ,0,-2.721121,-0.470539,0.009967\C,0,-1.363719,0.07998,-0.029967\C,0,-0
 .239704,-0.668339,0.078194\H,0,-4.872712,-0.207105,0.091202\H,0,-3.753
 102,1.274596,0.016573\H,0,-2.775116,-1.515486,0.07151\H,0,-1.342347,1.
 13434,-0.168542\H,0,-0.345749,-1.80896,-0.145596\H,0,0.663302,-0.12955
 6,0.184686\\Version=ES64L-G09RevD.01\State=1-A\HF=-155.6839314\MP2=-15
 5.9106824\RMSD=9.260e-09\PG=C01 [X(C4H6)]\\@

 Normal termination of Gaussian 09 at Wed Aug 26 15:44:40 2020.
