 Gaussian 09, Revision D.01,
 Gaussian 09:  ES64L-G09RevD.01 24-Apr-2013

 --------------------
 #p B2PLYPD3/Def2QZVP
 --------------------

 ---------
 butadiene
 ---------
 Symbolic Z-matrix:
 Charge =  0 Multiplicity = 1

                         Standard orientation:
 ---------------------------------------------------------------------
 Center     Atomic      Atomic             Coordinates (Angstroms)
 Number     Number       Type             X           Y           Z
 ---------------------------------------------------------------------
      1          6           0       -1.827227   -0.104030    0.103918
      2          6           0       -0.596073    0.408140   -0.099662
      3          6           0        0.616647   -0.446620   -0.082258
      4          6           0        1.824918    0.115305    0.049666
      5          1           0       -2.594956    0.489950    0.111831
      6          1           0       -2.098520   -1.113910   -0.027849
      7          1           0       -0.417382    1.509815   -0.048240
      8          1           0        0.449664   -1.494468   -0.153544
      9          1           0        1.797207    1.233676   -0.032667
     10          1           0        2.754397   -0.461837    0.320490
 ---------------------------------------------------------------------

 SCF Done:  E(RB2PLYPD3) =  -155.676748289     A.U. after   12 cycles
 E2(B2PLYPD3) =    -0.2267161669D+00 E(B2PLYPD3) =    -0.15590346445608D+03

 The electronic state is 1-A.
 Alpha  occ. eigenvalues --  -10.63394 -10.62619 -10.62446 -10.59970  -0.92704
 Alpha  occ. eigenvalues --   -0.84949  -0.70235  -0.64277  -0.54790  -0.53574
 Alpha  occ. eigenvalues --   -0.46706  -0.45619  -0.41482  -0.37469  -0.27522
 Alpha virt. eigenvalues --    0.01726   0.06991   0.07364   0.08120   0.08734
 Alpha virt. eigenvalues --    0.11650   0.12689   0.14709   0.15587   0.16218
 Alpha virt. eigenvalues --    0.18791   0.19212   0.22386   0.23436   0.24374

 Mulliken charges:
               1
     1  C   -0.167157
     2  C   -0.039068
     3  C   -0.033009
     4  C   -0.170414
     5  H    0.079048
     6  H    0.061374
     7  H    0.051722
     8  H    0.066281
     9  H    0.060763
    10  H    0.090460
 Sum of Mulliken charges =   0.00000

 Dipole moment (field-independent basis, Debye):
    X=             -0.0480    Y=             -0.0665    Z=              0.0263  Tot=              0.0861
 Quadrupole moment (field-independent basis, Debye-Ang):
   XX=            -23.7509   YY=            -23.0981   ZZ=            -29.1841
   XY=              0.1347   XZ=              0.6505   YZ=              0.0082

 1\1\GINC-NODE11\SP\RB2PLYPD3-FC\def2QZVP\C4H6\BOITTIER\26-Aug-2020\0\\
 #p B2PLYPD3/Def2QZVP\\butadiene\\0,1\C,0,-3.833044,0.217083,-0.077757\
 C,0,-2.714931,-0.507906,0.131328\C,0,-1.36652,0.110134,0.093615\C,0,-0
 .28228,-0.665622,-0.031721\H,0,-4.696468,-0.226479,-0.071808\H,0,-3.91
 4222,1.261757,0.035756\H,0,-2.74103,-1.624424,0.100198\H,0,-1.338617,1
 .171958,0.145586\H,0,-0.51344,-1.758384,0.071895\H,0,0.735191,-0.27322
 3,-0.316584\\Version=ES64L-G09RevD.01\State=1-A\HF=-155.6767483\MP2=-1
 55.9034645\RMSD=4.489e-09\PG=C01 [X(C4H6)]\\@

 Normal termination of Gaussian 09 at Wed Aug 26 13:38:01 2020.
