 Gaussian 09, Revision D.01,
 Gaussian 09:  ES64L-G09RevD.01 24-Apr-2013

 --------------------
 #p B2PLYPD3/Def2QZVP
 --------------------

 ---------
 butadiene
 ---------
 Symbolic Z-matrix:
 Charge =  0 Multiplicity = 1

                         Standard orientation:
 ---------------------------------------------------------------------
 Center     Atomic      Atomic             Coordinates (Angstroms)
 Number     Number       Type             X           Y           Z
 ---------------------------------------------------------------------
      1          6           0       -1.797481    0.123265   -0.053237
      2          6           0       -0.608114   -0.390760    0.028938
      3          6           0        0.589762    0.390717    0.071686
      4          6           0        1.809067   -0.113691   -0.094287
      5          1           0       -2.625373   -0.590858    0.032534
      6          1           0       -2.103898    1.164744   -0.176502
      7          1           0       -0.525345   -1.484752    0.259196
      8          1           0        0.582604    1.590444    0.188369
      9          1           0        1.929873   -1.170163   -0.121304
     10          1           0        2.782735    0.433404    0.099109
 ---------------------------------------------------------------------

 SCF Done:  E(RB2PLYPD3) =  -155.679494145     A.U. after   11 cycles
 E2(B2PLYPD3) =    -0.2265181152D+00 E(B2PLYPD3) =    -0.15590601226010D+03

 The electronic state is 1-A.
 Alpha  occ. eigenvalues --  -10.63397 -10.62457 -10.61483 -10.61334  -0.93606
 Alpha  occ. eigenvalues --   -0.85329  -0.69685  -0.62715  -0.54413  -0.53991
 Alpha  occ. eigenvalues --   -0.46699  -0.43926  -0.40214  -0.38137  -0.28203
 Alpha virt. eigenvalues --    0.01863   0.06746   0.07080   0.07706   0.09765
 Alpha virt. eigenvalues --    0.11318   0.12473   0.14702   0.15307   0.16541
 Alpha virt. eigenvalues --    0.18689   0.19409   0.21624   0.22356   0.23839

 Mulliken charges:
               1
     1  C   -0.168440
     2  C   -0.024275
     3  C   -0.038246
     4  C   -0.153859
     5  H    0.071367
     6  H    0.078790
     7  H    0.060255
     8  H    0.047130
     9  H    0.053394
    10  H    0.073884
 Sum of Mulliken charges =   0.00000

 Dipole moment (field-independent basis, Debye):
    X=             -0.1208    Y=             -0.0516    Z=              0.2956  Tot=              0.3235
 Quadrupole moment (field-independent basis, Debye-Ang):
   XX=            -23.5994   YY=            -23.2965   ZZ=            -29.1318
   XY=             -0.2607   XZ=              0.3368   YZ=             -0.1899

 1\1\GINC-NODE15\SP\RB2PLYPD3-FC\def2QZVP\C4H6\BOITTIER\26-Aug-2020\0\\
 #p B2PLYPD3/Def2QZVP\\butadiene\\0,1\C,0,-3.7988,0.220559,-0.035157\C,
 0,-2.718605,-0.491494,0.073133\C,0,-1.401544,0.067511,0.090551\C,0,-0.
 290746,-0.65029,-0.049346\H,0,-4.739508,-0.332323,0.074948\H,0,-3.9169
 28,1.293981,-0.201219\H,0,-2.829638,-1.572834,0.347111\H,0,-1.196643,1
 .253381,0.159396\H,0,-0.358303,-1.711727,-0.033745\H,0,0.764612,-0.276
 228,0.126838\\Version=ES64L-G09RevD.01\State=1-A\HF=-155.6794941\MP2=-
 155.9060123\RMSD=7.411e-09\PG=C01 [X(C4H6)]\\@

 Normal termination of Gaussian 09 at Wed Aug 26 15:20:23 2020.
