 Gaussian 09, Revision D.01,
 Gaussian 09:  ES64L-G09RevD.01 24-Apr-2013

 --------------------
 #p B2PLYPD3/Def2QZVP
 --------------------

 ---------
 butadiene
 ---------
 Symbolic Z-matrix:
 Charge =  0 Multiplicity = 1

                         Standard orientation:
 ---------------------------------------------------------------------
 Center     Atomic      Atomic             Coordinates (Angstroms)
 Number     Number       Type             X           Y           Z
 ---------------------------------------------------------------------
      1          6           0       -1.790754   -0.126341    0.096521
      2          6           0       -0.576482    0.447469   -0.066251
      3          6           0        0.564739   -0.385110   -0.098034
      4          6           0        1.828070    0.090068    0.059177
      5          1           0       -2.817099    0.448131    0.073822
      6          1           0       -1.936470   -1.197557   -0.055319
      7          1           0       -0.452582    1.573348   -0.072469
      8          1           0        0.377370   -1.447876   -0.129119
      9          1           0        2.117380    1.104359   -0.017398
     10          1           0        2.557955   -0.636921    0.252007
 ---------------------------------------------------------------------

 SCF Done:  E(RB2PLYPD3) =  -155.681861555     A.U. after   12 cycles
 E2(B2PLYPD3) =    -0.2278593775D+00 E(B2PLYPD3) =    -0.15590972093214D+03

 The electronic state is 1-A.
 Alpha  occ. eigenvalues --  -10.63215 -10.62700 -10.62545 -10.61148  -0.93522
 Alpha  occ. eigenvalues --   -0.84137  -0.70199  -0.64080  -0.54369  -0.53571
 Alpha  occ. eigenvalues --   -0.45909  -0.45529  -0.41469  -0.38147  -0.26842
 Alpha virt. eigenvalues --    0.01009   0.06959   0.07158   0.07933   0.09089
 Alpha virt. eigenvalues --    0.11681   0.12433   0.14811   0.15779   0.16404
 Alpha virt. eigenvalues --    0.18644   0.19629   0.21715   0.22592   0.24540

 Mulliken charges:
               1
     1  C   -0.162048
     2  C   -0.027907
     3  C   -0.030144
     4  C   -0.187264
     5  H    0.064461
     6  H    0.060506
     7  H    0.059543
     8  H    0.061388
     9  H    0.080103
    10  H    0.081364
 Sum of Mulliken charges =   0.00000

 Dipole moment (field-independent basis, Debye):
    X=              0.0483    Y=             -0.0092    Z=             -0.0921  Tot=              0.1044
 Quadrupole moment (field-independent basis, Debye-Ang):
   XX=            -24.0833   YY=            -22.9852   ZZ=            -29.3500
   XY=              0.5180   XZ=              0.6123   YZ=             -0.0625

 1\1\GINC-NODE12\SP\RB2PLYPD3-FC\def2QZVP\C4H6\BOITTIER\26-Aug-2020\0\\
 #p B2PLYPD3/Def2QZVP\\butadiene\\0,1\C,0,-3.788894,0.25058,-0.072508\C
 ,0,-2.70503,-0.538218,0.109825\C,0,-1.425469,0.061184,0.105002\C,0,-0.
 277928,-0.652711,-0.036484\H,0,-4.905813,-0.115549,-0.023929\H,0,-3.72
 5632,1.334963,0.036595\H,0,-2.798509,-1.665891,0.160907\H,0,-1.405959,
 1.140555,0.093902\H,0,-0.187,-1.699861,0.079961\H,0,0.575388,-0.086887
 ,-0.260364\\Version=ES64L-G09RevD.01\State=1-A\HF=-155.6818616\MP2=-15
 5.9097209\RMSD=4.464e-09\PG=C01 [X(C4H6)]\\@

 Normal termination of Gaussian 09 at Wed Aug 26 15:00:48 2020.
