 Gaussian 09, Revision D.01,
 Gaussian 09:  ES64L-G09RevD.01 24-Apr-2013

 --------------------
 #p B2PLYPD3/Def2QZVP
 --------------------

 ---------
 butadiene
 ---------
 Symbolic Z-matrix:
 Charge =  0 Multiplicity = 1

                         Standard orientation:
 ---------------------------------------------------------------------
 Center     Atomic      Atomic             Coordinates (Angstroms)
 Number     Number       Type             X           Y           Z
 ---------------------------------------------------------------------
      1          6           0       -1.834609    0.127334    0.031028
      2          6           0       -0.619232   -0.421569   -0.022426
      3          6           0        0.596844    0.385854   -0.064703
      4          6           0        1.839267   -0.106428    0.018990
      5          1           0       -2.713232   -0.542574    0.062827
      6          1           0       -1.979524    1.186595    0.083482
      7          1           0       -0.445248   -1.488257   -0.112745
      8          1           0        0.480980    1.496938   -0.059474
      9          1           0        2.112464   -1.145709    0.119753
     10          1           0        2.650939    0.581863    0.128825
 ---------------------------------------------------------------------

 SCF Done:  E(RB2PLYPD3) =  -155.697316777     A.U. after   11 cycles
 E2(B2PLYPD3) =    -0.2260308605D+00 E(B2PLYPD3) =    -0.15592334763790D+03

 The electronic state is 1-A.
 Alpha  occ. eigenvalues --  -10.62864 -10.62617 -10.61725 -10.61303  -0.92811
 Alpha  occ. eigenvalues --   -0.84852  -0.70103  -0.63841  -0.54334  -0.53899
 Alpha  occ. eigenvalues --   -0.46661  -0.45715  -0.40792  -0.37981  -0.27684
 Alpha virt. eigenvalues --    0.01748   0.06983   0.07355   0.07998   0.09429
 Alpha virt. eigenvalues --    0.11648   0.12337   0.14920   0.15593   0.16129
 Alpha virt. eigenvalues --    0.18766   0.20386   0.21697   0.22544   0.23923

 Mulliken charges:
               1
     1  C   -0.175416
     2  C   -0.037055
     3  C   -0.025941
     4  C   -0.176383
     5  H    0.083043
     6  H    0.074934
     7  H    0.062567
     8  H    0.049059
     9  H    0.065810
    10  H    0.079381
 Sum of Mulliken charges =   0.00000

 Dipole moment (field-independent basis, Debye):
    X=             -0.0082    Y=             -0.0141    Z=              0.1518  Tot=              0.1526
 Quadrupole moment (field-independent basis, Debye-Ang):
   XX=            -23.7670   YY=            -22.9606   ZZ=            -29.2843
   XY=             -0.3517   XZ=              0.3483   YZ=              0.1094

 1\1\GINC-NODE24\SP\RB2PLYPD3-FC\def2QZVP\C4H6\BOITTIER\26-Aug-2020\0\\
 #p B2PLYPD3/Def2QZVP\\butadiene\\0,1\C,0,-3.830797,0.244454,0.048915\C
 ,0,-2.734986,-0.516527,0.011529\C,0,-1.392678,0.056191,-0.041045\C,0,-
 0.260121,-0.651286,0.057707\H,0,-4.816309,-0.254404,0.089836\H,0,-3.78
 1378,1.313271,0.080125\H,0,-2.757132,-1.598668,-0.057265\H,0,-1.305257
 ,1.169758,-0.05793\H,0,-0.17989,-1.720648,0.179864\H,0,0.662761,-0.119
 401,0.157738\\Version=ES64L-G09RevD.01\State=1-A\HF=-155.6973168\MP2=-
 155.9233476\RMSD=4.939e-09\PG=C01 [X(C4H6)]\\@

 Normal termination of Gaussian 09 at Wed Aug 26 08:47:41 2020.
