 Gaussian 09, Revision D.01,
 Gaussian 09:  ES64L-G09RevD.01 24-Apr-2013

 --------------------
 #p B2PLYPD3/Def2QZVP
 --------------------

 ---------
 butadiene
 ---------
 Symbolic Z-matrix:
 Charge =  0 Multiplicity = 1

                         Standard orientation:
 ---------------------------------------------------------------------
 Center     Atomic      Atomic             Coordinates (Angstroms)
 Number     Number       Type             X           Y           Z
 ---------------------------------------------------------------------
      1          6           0       -1.831110    0.093922    0.035219
      2          6           0       -0.607631   -0.380591   -0.067619
      3          6           0        0.598297    0.432900   -0.024785
      4          6           0        1.815670   -0.127755    0.040901
      5          1           0       -2.654849   -0.544993    0.117019
      6          1           0       -1.981660    1.123105    0.016998
      7          1           0       -0.417059   -1.431124   -0.019962
      8          1           0        0.561427    1.548082   -0.070921
      9          1           0        1.922530   -1.238524   -0.014225
     10          1           0        2.718258    0.432599    0.068794
 ---------------------------------------------------------------------

 SCF Done:  E(RB2PLYPD3) =  -155.695610387     A.U. after   11 cycles
 E2(B2PLYPD3) =    -0.2253595464D+00 E(B2PLYPD3) =    -0.15592096993319D+03

 The electronic state is 1-A.
 Alpha  occ. eigenvalues --  -10.62884 -10.62016 -10.61648 -10.60299  -0.93216
 Alpha  occ. eigenvalues --   -0.85216  -0.70248  -0.64042  -0.55079  -0.54237
 Alpha  occ. eigenvalues --   -0.46712  -0.45450  -0.41373  -0.38184  -0.27732
 Alpha virt. eigenvalues --    0.01980   0.07110   0.07372   0.08120   0.09491
 Alpha virt. eigenvalues --    0.11724   0.12583   0.14637   0.15714   0.16453
 Alpha virt. eigenvalues --    0.18739   0.20148   0.21674   0.23320   0.24021

 Mulliken charges:
               1
     1  C   -0.176568
     2  C   -0.024092
     3  C   -0.033155
     4  C   -0.174859
     5  H    0.087382
     6  H    0.070272
     7  H    0.056991
     8  H    0.051165
     9  H    0.056057
    10  H    0.086807
 Sum of Mulliken charges =   0.00000

 Dipole moment (field-independent basis, Debye):
    X=              0.0128    Y=              0.0229    Z=              0.0243  Tot=              0.0358
 Quadrupole moment (field-independent basis, Debye-Ang):
   XX=            -23.4895   YY=            -23.0797   ZZ=            -29.1492
   XY=              0.0094   XZ=             -0.2706   YZ=             -0.0894

 1\1\GINC-NODE14\SP\RB2PLYPD3-FC\def2QZVP\C4H6\BOITTIER\26-Aug-2020\0\\
 #p B2PLYPD3/Def2QZVP\\butadiene\\0,1\C,0,-3.834104,0.205355,0.058282\C
 ,0,-2.716291,-0.484644,-0.025588\C,0,-1.383794,0.100352,-0.015748\C,0,
 -0.286182,-0.666559,0.072237\H,0,-4.758398,-0.271669,0.165881\H,0,-3.7
 97867,1.243309,-0.001326\H,0,-2.716764,-1.5496,0.064284\H,0,-1.220512,
 1.201342,-0.106731\H,0,-0.380567,-1.779775,0.061849\H,0,0.702411,-0.27
 6564,0.077391\\Version=ES64L-G09RevD.01\State=1-A\HF=-155.6956104\MP2=
 -155.9209699\RMSD=4.719e-09\PG=C01 [X(C4H6)]\\@

 Normal termination of Gaussian 09 at Wed Aug 26 08:54:21 2020.
