 Gaussian 09, Revision D.01,
 Gaussian 09:  ES64L-G09RevD.01 24-Apr-2013

 --------------------
 #p B2PLYPD3/Def2QZVP
 --------------------

 ---------
 butadiene
 ---------
 Symbolic Z-matrix:
 Charge =  0 Multiplicity = 1

                         Standard orientation:
 ---------------------------------------------------------------------
 Center     Atomic      Atomic             Coordinates (Angstroms)
 Number     Number       Type             X           Y           Z
 ---------------------------------------------------------------------
      1          6           0        1.821929   -0.126400    0.052878
      2          6           0        0.577607    0.431611   -0.073124
      3          6           0       -0.581346   -0.377560   -0.098656
      4          6           0       -1.836992    0.085216    0.095567
      5          1           0        2.638902    0.492433    0.285119
      6          1           0        1.944088   -1.175989    0.018982
      7          1           0        0.522924    1.506643   -0.179819
      8          1           0       -0.301005   -1.433253   -0.117411
      9          1           0       -2.038731    1.122368    0.011770
     10          1           0       -2.653365   -0.589401    0.121362
 ---------------------------------------------------------------------

 SCF Done:  E(RB2PLYPD3) =  -155.689901574     A.U. after   11 cycles
 E2(B2PLYPD3) =    -0.2269700449D+00 E(B2PLYPD3) =    -0.15591687161921D+03

 The electronic state is 1-A.
 Alpha  occ. eigenvalues --  -10.62595 -10.62514 -10.61365 -10.61249  -0.93435
 Alpha  occ. eigenvalues --   -0.84451  -0.71208  -0.64446  -0.54716  -0.54151
 Alpha  occ. eigenvalues --   -0.46722  -0.45988  -0.42403  -0.37767  -0.26804
 Alpha virt. eigenvalues --    0.00913   0.07104   0.07437   0.08156   0.09324
 Alpha virt. eigenvalues --    0.11732   0.12572   0.14980   0.15580   0.16464
 Alpha virt. eigenvalues --    0.18753   0.19695   0.21601   0.23407   0.24207

 Mulliken charges:
               1
     1  C   -0.190724
     2  C   -0.020370
     3  C   -0.034717
     4  C   -0.177320
     5  H    0.086940
     6  H    0.067928
     7  H    0.059494
     8  H    0.052426
     9  H    0.072332
    10  H    0.084011
 Sum of Mulliken charges =   0.00000

 Dipole moment (field-independent basis, Debye):
    X=              0.0704    Y=              0.0299    Z=              0.0074  Tot=              0.0768
 Quadrupole moment (field-independent basis, Debye-Ang):
   XX=            -23.8693   YY=            -23.0578   ZZ=            -29.1632
   XY=             -0.2582   XZ=              0.4627   YZ=             -0.0140

 1\1\GINC-NODE35\SP\RB2PLYPD3-FC\def2QZVP\C4H6\BOITTIER\26-Aug-2020\0\\
 #p B2PLYPD3/Def2QZVP\\butadiene\\0,1\C,0,-3.818682,0.256169,0.080021\C
 ,0,-2.703045,-0.529198,-0.0389\C,0,-1.411968,0.045387,-0.078338\C,0,-0
 .265858,-0.643851,0.121445\H,0,-4.737075,-0.193223,0.322785\H,0,-3.740
 051,1.309276,0.030096\H,0,-2.853328,-1.596603,-0.129075\H,0,-1.48744,1
 .134667,-0.113022\H,0,-0.26448,-1.701572,0.0534\H,0,0.663574,-0.13573,
 0.135826\\Version=ES64L-G09RevD.01\State=1-A\HF=-155.6899016\MP2=-155.
 9168716\RMSD=7.086e-09\PG=C01 [X(C4H6)]\\@

 Normal termination of Gaussian 09 at Wed Aug 26 14:12:52 2020.
