 Gaussian 09, Revision D.01,
 Gaussian 09:  ES64L-G09RevD.01 24-Apr-2013

 --------------------
 #p B2PLYPD3/Def2QZVP
 --------------------

 ---------
 butadiene
 ---------
 Symbolic Z-matrix:
 Charge =  0 Multiplicity = 1

                         Standard orientation:
 ---------------------------------------------------------------------
 Center     Atomic      Atomic             Coordinates (Angstroms)
 Number     Number       Type             X           Y           Z
 ---------------------------------------------------------------------
      1          6           0        1.856453    0.104967    0.019645
      2          6           0        0.626147   -0.387907   -0.018676
      3          6           0       -0.629707    0.409499   -0.033794
      4          6           0       -1.844801   -0.137776    0.033519
      5          1           0        2.746326   -0.520692   -0.075446
      6          1           0        1.971916    1.199412    0.136713
      7          1           0        0.519352   -1.451998   -0.001482
      8          1           0       -0.558607    1.505347   -0.073895
      9          1           0       -2.006191   -1.173051    0.026365
     10          1           0       -2.721345    0.508286   -0.016417
 ---------------------------------------------------------------------

 SCF Done:  E(RB2PLYPD3) =  -155.697272757     A.U. after   11 cycles
 E2(B2PLYPD3) =    -0.2255323126D+00 E(B2PLYPD3) =    -0.15592280506932D+03

 The electronic state is 1-A.
 Alpha  occ. eigenvalues --  -10.63004 -10.62449 -10.61689 -10.61265  -0.92563
 Alpha  occ. eigenvalues --   -0.85231  -0.69607  -0.64060  -0.54496  -0.53933
 Alpha  occ. eigenvalues --   -0.46848  -0.45480  -0.40970  -0.37678  -0.28010
 Alpha virt. eigenvalues --    0.01949   0.06964   0.07521   0.07964   0.09483
 Alpha virt. eigenvalues --    0.11680   0.12387   0.14530   0.15794   0.16170
 Alpha virt. eigenvalues --    0.18930   0.20375   0.21293   0.22720   0.24029

 Mulliken charges:
               1
     1  C   -0.174405
     2  C   -0.033651
     3  C   -0.037850
     4  C   -0.171899
     5  H    0.090213
     6  H    0.061871
     7  H    0.057346
     8  H    0.055288
     9  H    0.072080
    10  H    0.081008
 Sum of Mulliken charges =   0.00000

 Dipole moment (field-independent basis, Debye):
    X=             -0.0460    Y=             -0.0481    Z=             -0.0399  Tot=              0.0776
 Quadrupole moment (field-independent basis, Debye-Ang):
   XX=            -23.4799   YY=            -23.0878   ZZ=            -29.2715
   XY=             -0.0700   XZ=              0.0588   YZ=              0.0864

 1\1\GINC-NODE39\SP\RB2PLYPD3-FC\def2QZVP\C4H6\BOITTIER\26-Aug-2020\0\\
 #p B2PLYPD3/Def2QZVP\\butadiene\\0,1\C,0,-3.862529,0.205477,-0.002574\
 C,0,-2.734143,-0.488418,0.054866\C,0,-1.360696,0.083281,0.047275\C,0,-
 0.256893,-0.665023,0.000864\H,0,-4.845742,-0.255898,0.110521\H,0,-3.79
 0084,1.299204,-0.155419\H,0,-2.810362,-1.555128,0.072511\H,0,-1.243822
 ,1.175924,0.051583\H,0,-0.27433,-1.711872,0.042048\H,0,0.717104,-0.176
 577,0.032022\\Version=ES64L-G09RevD.01\State=1-A\HF=-155.6972728\MP2=-
 155.9228051\RMSD=6.847e-09\PG=C01 [X(C4H6)]\\@

 Normal termination of Gaussian 09 at Wed Aug 26 10:19:31 2020.
