 Gaussian 09, Revision D.01,
 Gaussian 09:  ES64L-G09RevD.01 24-Apr-2013

 --------------------
 #p B2PLYPD3/Def2QZVP
 --------------------

 ---------
 butadiene
 ---------
 Symbolic Z-matrix:
 Charge =  0 Multiplicity = 1

                         Standard orientation:
 ---------------------------------------------------------------------
 Center     Atomic      Atomic             Coordinates (Angstroms)
 Number     Number       Type             X           Y           Z
 ---------------------------------------------------------------------
      1          6           0        1.848502   -0.085723    0.056471
      2          6           0        0.611806    0.333642   -0.072163
      3          6           0       -0.637631   -0.435114   -0.037469
      4          6           0       -1.834447    0.147553    0.018832
      5          1           0        2.682367    0.581240    0.150399
      6          1           0        2.101137   -1.094539   -0.161890
      7          1           0        0.566360    1.445596   -0.010424
      8          1           0       -0.578255   -1.455914    0.115432
      9          1           0       -2.032516    1.253940    0.018845
     10          1           0       -2.668475   -0.492471    0.093615
 ---------------------------------------------------------------------

 SCF Done:  E(RB2PLYPD3) =  -155.688443154     A.U. after   11 cycles
 E2(B2PLYPD3) =    -0.2252742894D+00 E(B2PLYPD3) =    -0.15591371744334D+03

 The electronic state is 1-A.
 Alpha  occ. eigenvalues --  -10.62389 -10.62327 -10.61811 -10.60577  -0.93031
 Alpha  occ. eigenvalues --   -0.85686  -0.70188  -0.64020  -0.54989  -0.54225
 Alpha  occ. eigenvalues --   -0.47344  -0.44972  -0.40673  -0.38005  -0.28025
 Alpha virt. eigenvalues --    0.01816   0.07043   0.07639   0.07984   0.09433
 Alpha virt. eigenvalues --    0.11619   0.12396   0.14763   0.15619   0.16514
 Alpha virt. eigenvalues --    0.18950   0.19551   0.21782   0.23102   0.24019

 Mulliken charges:
               1
     1  C   -0.171499
     2  C   -0.020813
     3  C   -0.057442
     4  C   -0.161415
     5  H    0.076750
     6  H    0.062574
     7  H    0.044184
     8  H    0.071764
     9  H    0.074753
    10  H    0.081144
 Sum of Mulliken charges =   0.00000

 Dipole moment (field-independent basis, Debye):
    X=             -0.1022    Y=             -0.0254    Z=              0.0944  Tot=              0.1414
 Quadrupole moment (field-independent basis, Debye-Ang):
   XX=            -23.3731   YY=            -23.1860   ZZ=            -29.0420
   XY=              0.0482   XZ=             -0.3027   YZ=              0.1162

 1\1\GINC-NODE28\SP\RB2PLYPD3-FC\def2QZVP\C4H6\BOITTIER\26-Aug-2020\0\\
 #p B2PLYPD3/Def2QZVP\\butadiene\\0,1\C,0,-3.860227,0.189079,0.073643\C
 ,0,-2.715492,-0.44375,-0.030943\C,0,-1.351495,0.097313,-0.024311\C,0,-
 0.273789,-0.681145,0.062828\H,0,-4.796887,-0.3183,0.192923\H,0,-3.9346
 4,1.215857,-0.189803\H,0,-2.863518,-1.542925,0.079616\H,0,-1.232326,1.
 118643,0.083491\H,0,-0.270738,-1.804034,0.112163\H,0,0.658891,-0.19289
 3,0.113276\\Version=ES64L-G09RevD.01\State=1-A\HF=-155.6884432\MP2=-15
 5.9137174\RMSD=7.816e-09\PG=C01 [X(C4H6)]\\@

 Normal termination of Gaussian 09 at Wed Aug 26 14:17:14 2020.
