 Gaussian 09, Revision D.01,
 Gaussian 09:  ES64L-G09RevD.01 24-Apr-2013

 --------------------
 #p B2PLYPD3/Def2QZVP
 --------------------

 ---------
 butadiene
 ---------
 Symbolic Z-matrix:
 Charge =  0 Multiplicity = 1

                         Standard orientation:
 ---------------------------------------------------------------------
 Center     Atomic      Atomic             Coordinates (Angstroms)
 Number     Number       Type             X           Y           Z
 ---------------------------------------------------------------------
      1          6           0       -1.840711    0.095836   -0.008125
      2          6           0       -0.598099   -0.397023    0.017513
      3          6           0        0.599808    0.414732    0.000797
      4          6           0        1.835700   -0.113594   -0.012203
      5          1           0       -2.710088   -0.532506   -0.012775
      6          1           0       -2.006021    1.188597   -0.078974
      7          1           0       -0.404550   -1.452872    0.063207
      8          1           0        0.471647    1.484328    0.096988
      9          1           0        1.954395   -1.198847   -0.058377
     10          1           0        2.714425    0.511588    0.002036
 ---------------------------------------------------------------------

 SCF Done:  E(RB2PLYPD3) =  -155.699944967     A.U. after   11 cycles
 E2(B2PLYPD3) =    -0.2260483695D+00 E(B2PLYPD3) =    -0.15592599333607D+03

 The electronic state is 1-A.
 Alpha  occ. eigenvalues --  -10.62483 -10.62387 -10.61736 -10.61730  -0.93069
 Alpha  occ. eigenvalues --   -0.84677  -0.70180  -0.64172  -0.54716  -0.53621
 Alpha  occ. eigenvalues --   -0.46756  -0.45551  -0.41323  -0.38069  -0.27548
 Alpha virt. eigenvalues --    0.01607   0.07055   0.07348   0.08116   0.09494
 Alpha virt. eigenvalues --    0.11706   0.12432   0.14655   0.15758   0.16099
 Alpha virt. eigenvalues --    0.18710   0.20404   0.21526   0.23037   0.23766

 Mulliken charges:
               1
     1  C   -0.175861
     2  C   -0.031677
     3  C   -0.026035
     4  C   -0.181508
     5  H    0.088467
     6  H    0.063199
     7  H    0.054472
     8  H    0.056223
     9  H    0.064139
    10  H    0.088582
 Sum of Mulliken charges =   0.00000

 Dipole moment (field-independent basis, Debye):
    X=              0.0161    Y=             -0.0009    Z=              0.0205  Tot=              0.0261
 Quadrupole moment (field-independent basis, Debye-Ang):
   XX=            -23.5418   YY=            -23.1283   ZZ=            -29.3001
   XY=             -0.1044   XZ=              0.1280   YZ=              0.0364

 1\1\GINC-NODE22\SP\RB2PLYPD3-FC\def2QZVP\C4H6\BOITTIER\26-Aug-2020\0\\
 #p B2PLYPD3/Def2QZVP\\butadiene\\0,1\C,0,-3.843816,0.216193,0.009621\C
 ,0,-2.71246,-0.495094,0.051513\C,0,-1.386163,0.082813,0.017331\C,0,-0.
 267983,-0.663097,0.021492\H,0,-4.813586,-0.242192,0.018662\H,0,-3.8063
 01,1.318543,-0.089827\H,0,-2.715501,-1.566992,0.124944\H,0,-1.316054,1
 .159911,0.085571\H,0,-0.350172,-1.752556,0.003629\H,0,0.710416,-0.2092
 82,0.022145\\Version=ES64L-G09RevD.01\State=1-A\HF=-155.699945\MP2=-15
 5.9259933\RMSD=4.742e-09\PG=C01 [X(C4H6)]\\@

 Normal termination of Gaussian 09 at Wed Aug 26 19:24:32 2020.
