 Gaussian 09, Revision D.01,
 Gaussian 09:  ES64L-G09RevD.01 24-Apr-2013

 --------------------
 #p B2PLYPD3/Def2QZVP
 --------------------

 ---------
 butadiene
 ---------
 Symbolic Z-matrix:
 Charge =  0 Multiplicity = 1

                         Standard orientation:
 ---------------------------------------------------------------------
 Center     Atomic      Atomic             Coordinates (Angstroms)
 Number     Number       Type             X           Y           Z
 ---------------------------------------------------------------------
      1          6           0        1.843693   -0.107214    0.004102
      2          6           0        0.602877    0.390984   -0.013464
      3          6           0       -0.609506   -0.411824   -0.022484
      4          6           0       -1.842366    0.115812    0.015021
      5          1           0        2.661929    0.569494    0.053051
      6          1           0        2.081951   -1.147328    0.059907
      7          1           0        0.461986    1.459663   -0.011902
      8          1           0       -0.488622   -1.495971   -0.070259
      9          1           0       -1.984207    1.214235   -0.025295
     10          1           0       -2.701226   -0.526647    0.095449
 ---------------------------------------------------------------------

 SCF Done:  E(RB2PLYPD3) =  -155.699601806     A.U. after   11 cycles
 E2(B2PLYPD3) =    -0.2258188793D+00 E(B2PLYPD3) =    -0.15592542068567D+03

 The electronic state is 1-A.
 Alpha  occ. eigenvalues --  -10.62626 -10.62460 -10.61823 -10.61147  -0.92873
 Alpha  occ. eigenvalues --   -0.84881  -0.70277  -0.64006  -0.54608  -0.53941
 Alpha  occ. eigenvalues --   -0.46594  -0.45819  -0.41293  -0.37952  -0.27579
 Alpha virt. eigenvalues --    0.01646   0.07007   0.07408   0.08083   0.09546
 Alpha virt. eigenvalues --    0.11688   0.12357   0.14800   0.15805   0.16121
 Alpha virt. eigenvalues --    0.18773   0.20544   0.21539   0.22773   0.23952

 Mulliken charges:
               1
     1  C   -0.177340
     2  C   -0.030341
     3  C   -0.032736
     4  C   -0.177972
     5  H    0.082215
     6  H    0.070390
     7  H    0.055486
     8  H    0.055821
     9  H    0.065841
    10  H    0.088637
 Sum of Mulliken charges =   0.00000

 Dipole moment (field-independent basis, Debye):
    X=              0.0039    Y=             -0.0215    Z=              0.0712  Tot=              0.0744
 Quadrupole moment (field-independent basis, Debye-Ang):
   XX=            -23.6261   YY=            -22.9797   ZZ=            -29.2831
   XY=             -0.1821   XZ=              0.0770   YZ=             -0.0663

 1\1\GINC-NODE04\SP\RB2PLYPD3-FC\def2QZVP\C4H6\BOITTIER\26-Aug-2020\0\\
 #p B2PLYPD3/Def2QZVP\\butadiene\\0,1\C,0,-3.846771,0.223555,0.025989\C
 ,0,-2.716834,-0.491547,0.02325\C,0,-1.37911,0.077715,-0.006561\C,0,-0.
 26211,-0.663393,0.046548\H,0,-4.773868,-0.292089,0.092643\H,0,-3.89241
 2,1.290748,0.053092\H,0,-2.771893,-1.567622,0.05418\H,0,-1.301758,1.16
 4121,-0.08409\H,0,-0.321791,-1.770015,0.03643\H,0,0.699252,-0.185277,0
 .110198\\Version=ES64L-G09RevD.01\State=1-A\HF=-155.6996018\MP2=-155.9
 254207\RMSD=2.828e-09\PG=C01 [X(C4H6)]\\@

 Normal termination of Gaussian 09 at Wed Aug 26 10:28:13 2020.
