 Gaussian 09, Revision D.01,
 Gaussian 09:  ES64L-G09RevD.01 24-Apr-2013

 --------------------
 #p B2PLYPD3/Def2QZVP
 --------------------

 ---------
 butadiene
 ---------
 Symbolic Z-matrix:
 Charge =  0 Multiplicity = 1

                         Standard orientation:
 ---------------------------------------------------------------------
 Center     Atomic      Atomic             Coordinates (Angstroms)
 Number     Number       Type             X           Y           Z
 ---------------------------------------------------------------------
      1          6           0        1.853562    0.102539   -0.029357
      2          6           0        0.610754   -0.381720    0.036482
      3          6           0       -0.603744    0.416176    0.005375
      4          6           0       -1.838269   -0.132344   -0.043450
      5          1           0        2.654058   -0.614133    0.001771
      6          1           0        2.022189    1.160091   -0.098448
      7          1           0        0.443524   -1.429475    0.104236
      8          1           0       -0.482083    1.510382    0.172842
      9          1           0       -2.041125   -1.211843   -0.030518
     10          1           0       -2.730385    0.557078    0.035812
 ---------------------------------------------------------------------

 SCF Done:  E(RB2PLYPD3) =  -155.694986203     A.U. after   11 cycles
 E2(B2PLYPD3) =    -0.2265194991D+00 E(B2PLYPD3) =    -0.15592150570196D+03

 The electronic state is 1-A.
 Alpha  occ. eigenvalues --  -10.63085 -10.62533 -10.62130 -10.61323  -0.92826
 Alpha  occ. eigenvalues --   -0.84630  -0.69934  -0.63892  -0.54453  -0.53373
 Alpha  occ. eigenvalues --   -0.46525  -0.45811  -0.41011  -0.37716  -0.27606
 Alpha virt. eigenvalues --    0.01514   0.06971   0.07323   0.07917   0.09485
 Alpha virt. eigenvalues --    0.11713   0.12172   0.14805   0.15526   0.16008
 Alpha virt. eigenvalues --    0.18721   0.20170   0.21415   0.22681   0.24009

 Mulliken charges:
               1
     1  C   -0.182032
     2  C   -0.028357
     3  C   -0.033934
     4  C   -0.178709
     5  H    0.088948
     6  H    0.073022
     7  H    0.055019
     8  H    0.056779
     9  H    0.071596
    10  H    0.077669
 Sum of Mulliken charges =   0.00000

 Dipole moment (field-independent basis, Debye):
    X=             -0.0135    Y=             -0.0471    Z=              0.1882  Tot=              0.1945
 Quadrupole moment (field-independent basis, Debye-Ang):
   XX=            -23.9231   YY=            -22.9431   ZZ=            -29.3646
   XY=              0.2495   XZ=             -0.3132   YZ=              0.0471

 1\1\GINC-NODE14\SP\RB2PLYPD3-FC\def2QZVP\C4H6\BOITTIER\26-Aug-2020\0\\
 #p B2PLYPD3/Def2QZVP\\butadiene\\0,1\C,0,-3.854374,0.220151,0.047292\C
 ,0,-2.719576,-0.482171,-0.0016\C,0,-1.381074,0.084418,-0.000599\C,0,-0
 .265159,-0.675458,0.067458\H,0,-4.771026,-0.341197,0.043008\H,0,-3.829
 331,1.292567,0.077679\H,0,-2.744218,-1.544656,-0.031009\H,0,-1.304957,
 1.175899,-0.207986\H,0,-0.260075,-1.773596,0.093973\H,0,0.735904,-0.16
 1372,-0.037638\\Version=ES64L-G09RevD.01\State=1-A\HF=-155.6949862\MP2
 =-155.9215057\RMSD=4.623e-09\PG=C01 [X(C4H6)]\\@

 Normal termination of Gaussian 09 at Wed Aug 26 11:05:21 2020.
