 Gaussian 09, Revision D.01,
 Gaussian 09:  ES64L-G09RevD.01 24-Apr-2013

 --------------------
 #p B2PLYPD3/Def2QZVP
 --------------------

 ---------
 butadiene
 ---------
 Symbolic Z-matrix:
 Charge =  0 Multiplicity = 1

                         Standard orientation:
 ---------------------------------------------------------------------
 Center     Atomic      Atomic             Coordinates (Angstroms)
 Number     Number       Type             X           Y           Z
 ---------------------------------------------------------------------
      1          6           0        1.836977    0.100322   -0.001514
      2          6           0        0.593411   -0.396751    0.009630
      3          6           0       -0.606881    0.416475    0.000059
      4          6           0       -1.826755   -0.122352   -0.013105
      5          1           0        2.723867   -0.532658   -0.001734
      6          1           0        2.037159    1.155727   -0.009277
      7          1           0        0.436058   -1.440483    0.006582
      8          1           0       -0.486829    1.491592   -0.015508
      9          1           0       -1.979456   -1.171375   -0.018529
     10          1           0       -2.711314    0.511031    0.068049
 ---------------------------------------------------------------------

 SCF Done:  E(RB2PLYPD3) =  -155.700344365     A.U. after   11 cycles
 E2(B2PLYPD3) =    -0.2254798492D+00 E(B2PLYPD3) =    -0.15592582421464D+03

 The electronic state is 1-A.
 Alpha  occ. eigenvalues --  -10.62399 -10.62215 -10.61499 -10.61316  -0.93145
 Alpha  occ. eigenvalues --   -0.84833  -0.70239  -0.64692  -0.54541  -0.54146
 Alpha  occ. eigenvalues --   -0.46685  -0.45854  -0.41339  -0.38133  -0.27574
 Alpha virt. eigenvalues --    0.01736   0.06997   0.07503   0.08116   0.09525
 Alpha virt. eigenvalues --    0.11732   0.12504   0.14810   0.15892   0.16136
 Alpha virt. eigenvalues --    0.18786   0.20486   0.21803   0.23013   0.23762

 Mulliken charges:
               1
     1  C   -0.175952
     2  C   -0.035076
     3  C   -0.028382
     4  C   -0.176509
     5  H    0.081652
     6  H    0.065464
     7  H    0.060626
     8  H    0.058585
     9  H    0.067875
    10  H    0.081717
 Sum of Mulliken charges =   0.00000

 Dipole moment (field-independent basis, Debye):
    X=             -0.0175    Y=             -0.0039    Z=              0.0342  Tot=              0.0386
 Quadrupole moment (field-independent basis, Debye-Ang):
   XX=            -23.5134   YY=            -23.0475   ZZ=            -29.2215
   XY=              0.2748   XZ=             -0.1946   YZ=              0.0333

 1\1\GINC-NODE16\SP\RB2PLYPD3-FC\def2QZVP\C4H6\BOITTIER\26-Aug-2020\0\\
 #p B2PLYPD3/Def2QZVP\\butadiene\\0,1\C,0,-3.840643,0.218086,0.022011\C
 ,0,-2.708233,-0.496958,0.026475\C,0,-1.380075,0.084335,0.011567\C,0,-0
 .278424,-0.666707,0.041595\H,0,-4.827809,-0.24275,0.041297\H,0,-3.8455
 9,1.292044,-0.002563\H,0,-2.743222,-1.551328,0.061484\H,0,-1.302604,1.
 163329,-0.005784\H,0,-0.318937,-1.72536,0.07914\H,0,0.706098,-0.207489
 ,-0.058599\\Version=ES64L-G09RevD.01\State=1-A\HF=-155.7003444\MP2=-15
 5.9258242\RMSD=2.915e-09\PG=C01 [X(C4H6)]\\@

 Normal termination of Gaussian 09 at Wed Aug 26 20:26:23 2020.
