 Gaussian 09, Revision D.01,
 Gaussian 09:  ES64L-G09RevD.01 24-Apr-2013

 --------------------
 #p B2PLYPD3/Def2QZVP
 --------------------

 ---------
 butadiene
 ---------
 Symbolic Z-matrix:
 Charge =  0 Multiplicity = 1

                         Standard orientation:
 ---------------------------------------------------------------------
 Center     Atomic      Atomic             Coordinates (Angstroms)
 Number     Number       Type             X           Y           Z
 ---------------------------------------------------------------------
      1          6           0       -1.854785   -0.093299    0.002365
      2          6           0       -0.595678    0.328934    0.001544
      3          6           0        0.603646   -0.423640   -0.022833
      4          6           0        1.848335    0.135161   -0.037171
      5          1           0       -2.628737    0.702800    0.002302
      6          1           0       -2.157954   -1.090372   -0.087408
      7          1           0       -0.550898    1.433569    0.172194
      8          1           0        0.481462   -1.443459    0.137059
      9          1           0        2.055825    1.145520   -0.080623
     10          1           0        2.791195   -0.430992    0.193041
 ---------------------------------------------------------------------

 SCF Done:  E(RB2PLYPD3) =  -155.684701212     A.U. after   11 cycles
 E2(B2PLYPD3) =    -0.2264526654D+00 E(B2PLYPD3) =    -0.15591115387755D+03

 The electronic state is 1-A.
 Alpha  occ. eigenvalues --  -10.62599 -10.62275 -10.62155 -10.61257  -0.93355
 Alpha  occ. eigenvalues --   -0.84856  -0.71316  -0.64335  -0.54992  -0.54254
 Alpha  occ. eigenvalues --   -0.46961  -0.45112  -0.41154  -0.37907  -0.27433
 Alpha virt. eigenvalues --    0.00860   0.06874   0.07710   0.07766   0.09792
 Alpha virt. eigenvalues --    0.11568   0.12477   0.15027   0.15576   0.16329
 Alpha virt. eigenvalues --    0.18984   0.19406   0.21909   0.22559   0.24129

 Mulliken charges:
               1
     1  C   -0.181131
     2  C   -0.009732
     3  C   -0.052178
     4  C   -0.163887
     5  H    0.077493
     6  H    0.069677
     7  H    0.046131
     8  H    0.070994
     9  H    0.072578
    10  H    0.070054
 Sum of Mulliken charges =   0.00000

 Dipole moment (field-independent basis, Debye):
    X=              0.0532    Y=              0.0163    Z=              0.2537  Tot=              0.2597
 Quadrupole moment (field-independent basis, Debye-Ang):
   XX=            -23.3973   YY=            -23.3035   ZZ=            -29.1273
   XY=              0.4575   XZ=              0.6168   YZ=             -0.0853

 1\1\GINC-NODE34\SP\RB2PLYPD3-FC\def2QZVP\C4H6\BOITTIER\26-Aug-2020\0\\
 #p B2PLYPD3/Def2QZVP\\butadiene\\0,1\C,0,-3.861168,0.205781,0.01789\C,
 0,-2.698733,-0.436296,0.028523\C,0,-1.383316,0.088114,0.024872\C,0,-0.
 259539,-0.685203,0.053478\H,0,-4.765807,-0.437343,0.046077\H,0,-3.9790
 07,1.243485,0.076282\H,0,-2.855134,-1.535692,-0.106433\H,0,-1.321247,1
 .107743,-0.167558\H,0,-0.237026,-1.714553,0.128963\H,0,0.767794,-0.305
 792,-0.197812\\Version=ES64L-G09RevD.01\State=1-A\HF=-155.6847012\MP2=
 -155.9111539\RMSD=7.402e-09\PG=C01 [X(C4H6)]\\@

 Normal termination of Gaussian 09 at Wed Aug 26 16:03:28 2020.
