 Gaussian 09, Revision D.01,
 Gaussian 09:  ES64L-G09RevD.01 24-Apr-2013

 --------------------
 #p B2PLYPD3/Def2QZVP
 --------------------

 ---------
 butadiene
 ---------
 Symbolic Z-matrix:
 Charge =  0 Multiplicity = 1

                         Standard orientation:
 ---------------------------------------------------------------------
 Center     Atomic      Atomic             Coordinates (Angstroms)
 Number     Number       Type             X           Y           Z
 ---------------------------------------------------------------------
      1          6           0       -1.849929   -0.132464   -0.100995
      2          6           0       -0.623280    0.405267    0.072288
      3          6           0        0.611867   -0.351149    0.026052
      4          6           0        1.870941    0.081374   -0.057002
      5          1           0       -2.626122    0.548405    0.063407
      6          1           0       -2.134381   -1.149750   -0.073653
      7          1           0       -0.387322    1.493346    0.249700
      8          1           0        0.385512   -1.388404    0.286903
      9          1           0        2.015729    1.136546   -0.210715
     10          1           0        2.688988   -0.658313    0.042296
 ---------------------------------------------------------------------

 SCF Done:  E(RB2PLYPD3) =  -155.683197168     A.U. after   12 cycles
 E2(B2PLYPD3) =    -0.2268201078D+00 E(B2PLYPD3) =    -0.15591001727588D+03

 The electronic state is 1-A.
 Alpha  occ. eigenvalues --  -10.63428 -10.62124 -10.61860 -10.61393  -0.92920
 Alpha  occ. eigenvalues --   -0.85020  -0.71163  -0.63276  -0.54636  -0.53594
 Alpha  occ. eigenvalues --   -0.47905  -0.45950  -0.40235  -0.36898  -0.27965
 Alpha virt. eigenvalues --    0.01091   0.07030   0.07335   0.07920   0.09693
 Alpha virt. eigenvalues --    0.11579   0.12324   0.14945   0.15521   0.15810
 Alpha virt. eigenvalues --    0.19019   0.19650   0.20994   0.22360   0.23813

 Mulliken charges:
               1
     1  C   -0.163620
     2  C   -0.052191
     3  C   -0.001608
     4  C   -0.200450
     5  H    0.079224
     6  H    0.074606
     7  H    0.048224
     8  H    0.048007
     9  H    0.070769
    10  H    0.097039
 Sum of Mulliken charges =   0.00000

 Dipole moment (field-independent basis, Debye):
    X=             -0.0555    Y=             -0.0335    Z=              0.3580  Tot=              0.3639
 Quadrupole moment (field-independent basis, Debye-Ang):
   XX=            -23.6641   YY=            -23.3804   ZZ=            -29.1463
   XY=              0.5794   XZ=             -0.2841   YZ=             -0.1775

 1\1\GINC-NODE32\SP\RB2PLYPD3-FC\def2QZVP\C4H6\BOITTIER\26-Aug-2020\0\\
 #p B2PLYPD3/Def2QZVP\\butadiene\\0,1\C,0,-3.846111,0.260976,0.103414\C
 ,0,-2.740573,-0.500506,-0.044167\C,0,-1.386646,0.015411,-0.019607\C,0,
 -0.229252,-0.639324,0.08529\H,0,-4.735269,-0.270045,-0.039768\H,0,-3.9
 37359,1.311627,0.037554\H,0,-2.710497,-1.619236,-0.180571\H,0,-1.41757
 2,1.066328,-0.319264\H,0,-0.282014,-1.696681,0.278142\H,0,0.711398,-0.
 06799,-0.036995\\Version=ES64L-G09RevD.01\State=1-A\HF=-155.6831972\MP
 2=-155.9100173\RMSD=3.256e-09\PG=C01 [X(C4H6)]\\@

 Normal termination of Gaussian 09 at Wed Aug 26 13:15:09 2020.
