 Gaussian 09, Revision D.01,
 Gaussian 09:  ES64L-G09RevD.01 24-Apr-2013

 --------------------
 #p B2PLYPD3/Def2QZVP
 --------------------

 ---------
 butadiene
 ---------
 Symbolic Z-matrix:
 Charge =  0 Multiplicity = 1

                         Standard orientation:
 ---------------------------------------------------------------------
 Center     Atomic      Atomic             Coordinates (Angstroms)
 Number     Number       Type             X           Y           Z
 ---------------------------------------------------------------------
      1          6           0        1.857128    0.092773   -0.001788
      2          6           0        0.613082   -0.379316   -0.022939
      3          6           0       -0.609029    0.402045   -0.035167
      4          6           0       -1.832689   -0.119071    0.015435
      5          1           0        2.659201   -0.554472    0.028909
      6          1           0        2.016671    1.158707    0.117850
      7          1           0        0.380258   -1.433419    0.067812
      8          1           0       -0.502093    1.499610   -0.021696
      9          1           0       -2.022995   -1.173070   -0.008922
     10          1           0       -2.701991    0.524057    0.082806
 ---------------------------------------------------------------------

 SCF Done:  E(RB2PLYPD3) =  -155.697043356     A.U. after   11 cycles
 E2(B2PLYPD3) =    -0.2254334653D+00 E(B2PLYPD3) =    -0.15592247682091D+03

 The electronic state is 1-A.
 Alpha  occ. eigenvalues --  -10.62527 -10.62352 -10.61455 -10.61004  -0.93119
 Alpha  occ. eigenvalues --   -0.85239  -0.70743  -0.63849  -0.55204  -0.53821
 Alpha  occ. eigenvalues --   -0.47172  -0.45989  -0.40795  -0.38071  -0.27792
 Alpha virt. eigenvalues --    0.01630   0.07039   0.07413   0.08158   0.09712
 Alpha virt. eigenvalues --    0.11729   0.12448   0.14848   0.15667   0.16220
 Alpha virt. eigenvalues --    0.18811   0.20406   0.21721   0.23010   0.23780

 Mulliken charges:
               1
     1  C   -0.179045
     2  C   -0.030008
     3  C   -0.020527
     4  C   -0.178784
     5  H    0.092380
     6  H    0.068098
     7  H    0.049753
     8  H    0.047143
     9  H    0.066680
    10  H    0.084310
 Sum of Mulliken charges =   0.00000

 Dipole moment (field-independent basis, Debye):
    X=             -0.0622    Y=             -0.0242    Z=              0.2055  Tot=              0.2160
 Quadrupole moment (field-independent basis, Debye-Ang):
   XX=            -23.4153   YY=            -23.2142   ZZ=            -29.1533
   XY=              0.2189   XZ=              0.1439   YZ=              0.0971

 1\1\GINC-NODE35\SP\RB2PLYPD3-FC\def2QZVP\C4H6\BOITTIER\26-Aug-2020\0\\
 #p B2PLYPD3/Def2QZVP\\butadiene\\0,1\C,0,-3.857997,0.21473,0.012498\C,
 0,-2.720804,-0.475281,0.053041\C,0,-1.3767,0.070175,0.043484\C,0,-0.26
 8695,-0.666653,0.013857\H,0,-4.764708,-0.276108,0.000519\H,0,-3.820891
 ,1.287375,-0.14254\H,0,-2.684308,-1.556565,-0.002354\H,0,-1.281795,1.1
 67799,-0.006316\H,0,-0.273654,-1.736306,0.073371\H,0,0.703084,-0.19533
 6,-0.071833\\Version=ES64L-G09RevD.01\State=1-A\HF=-155.6970434\MP2=-1
 55.9224768\RMSD=2.657e-09\PG=C01 [X(C4H6)]\\@

 Normal termination of Gaussian 09 at Wed Aug 26 09:47:15 2020.
