 Gaussian 09, Revision D.01,
 Gaussian 09:  ES64L-G09RevD.01 24-Apr-2013

 --------------------
 #p B2PLYPD3/Def2QZVP
 --------------------

 ---------
 butadiene
 ---------
 Symbolic Z-matrix:
 Charge =  0 Multiplicity = 1

                         Standard orientation:
 ---------------------------------------------------------------------
 Center     Atomic      Atomic             Coordinates (Angstroms)
 Number     Number       Type             X           Y           Z
 ---------------------------------------------------------------------
      1          6           0       -1.851216   -0.116218    0.015283
      2          6           0       -0.604891    0.403107   -0.026381
      3          6           0        0.613649   -0.372665   -0.012509
      4          6           0        1.846617    0.101531   -0.003221
      5          1           0       -2.721646    0.495491    0.163471
      6          1           0       -2.011842   -1.140014   -0.085355
      7          1           0       -0.473344    1.475847   -0.082039
      8          1           0        0.418436   -1.444538    0.007393
      9          1           0        2.117234    1.125119    0.056259
     10          1           0        2.646207   -0.606440    0.101237
 ---------------------------------------------------------------------

 SCF Done:  E(RB2PLYPD3) =  -155.696382401     A.U. after   11 cycles
 E2(B2PLYPD3) =    -0.2254670154D+00 E(B2PLYPD3) =    -0.15592184941621D+03

 The electronic state is 1-A.
 Alpha  occ. eigenvalues --  -10.62558 -10.62312 -10.61317 -10.61062  -0.93110
 Alpha  occ. eigenvalues --   -0.85124  -0.70999  -0.64243  -0.54821  -0.54277
 Alpha  occ. eigenvalues --   -0.47116  -0.46266  -0.40965  -0.37963  -0.27590
 Alpha virt. eigenvalues --    0.01401   0.06965   0.07571   0.08142   0.09723
 Alpha virt. eigenvalues --    0.11692   0.12499   0.14998   0.15766   0.16131
 Alpha virt. eigenvalues --    0.18889   0.20522   0.21875   0.22732   0.23778

 Mulliken charges:
               1
     1  C   -0.182930
     2  C   -0.030831
     3  C   -0.026616
     4  C   -0.174172
     5  H    0.086868
     6  H    0.068702
     7  H    0.055491
     8  H    0.050808
     9  H    0.072055
    10  H    0.080625
 Sum of Mulliken charges =   0.00000

 Dipole moment (field-independent basis, Debye):
    X=             -0.0159    Y=              0.0059    Z=              0.1182  Tot=              0.1194
 Quadrupole moment (field-independent basis, Debye-Ang):
   XX=            -23.3593   YY=            -23.2126   ZZ=            -29.1111
   XY=              0.4253   XZ=              0.1377   YZ=              0.1034

 1\1\GINC-NODE21\SP\RB2PLYPD3-FC\def2QZVP\C4H6\BOITTIER\26-Aug-2020\0\\
 #p B2PLYPD3/Def2QZVP\\butadiene\\0,1\C,0,-3.851121,0.239011,0.002348\C
 ,0,-2.720695,-0.498341,0.059012\C,0,-1.380847,0.040587,0.024105\C,0,-0
 .255531,-0.651369,0.028575\H,0,-4.819472,-0.20686,-0.129151\H,0,-3.821
 215,1.27728,0.07438\H,0,-2.787418,-1.575096,0.144565\H,0,-1.376707,1.1
 29126,-0.02571\H,0,-0.177075,-1.708438,-0.002271\H,0,0.659617,-0.10486
 6,-0.095185\\Version=ES64L-G09RevD.01\State=1-A\HF=-155.6963824\MP2=-1
 55.9218494\RMSD=5.368e-09\PG=C01 [X(C4H6)]\\@

 Normal termination of Gaussian 09 at Wed Aug 26 08:38:43 2020.
