 Gaussian 09, Revision D.01,
 Gaussian 09:  ES64L-G09RevD.01 24-Apr-2013

 --------------------
 #p B2PLYPD3/Def2QZVP
 --------------------

 ---------
 butadiene
 ---------
 Symbolic Z-matrix:
 Charge =  0 Multiplicity = 1

                         Standard orientation:
 ---------------------------------------------------------------------
 Center     Atomic      Atomic             Coordinates (Angstroms)
 Number     Number       Type             X           Y           Z
 ---------------------------------------------------------------------
      1          6           0       -1.802746   -0.138562   -0.027930
      2          6           0       -0.613604    0.448509   -0.062293
      3          6           0        0.607383   -0.357813   -0.030780
      4          6           0        1.853421    0.064279    0.024754
      5          1           0       -2.769871    0.443765    0.286142
      6          1           0       -1.879504   -1.277380    0.026513
      7          1           0       -0.575554    1.480639    0.104384
      8          1           0        0.320203   -1.417959    0.096631
      9          1           0        1.923601    1.200218   -0.004734
     10          1           0        2.714398   -0.527755    0.068560
 ---------------------------------------------------------------------

 SCF Done:  E(RB2PLYPD3) =  -155.679948315     A.U. after   11 cycles
 E2(B2PLYPD3) =    -0.2267344846D+00 E(B2PLYPD3) =    -0.15590668279974D+03

 The electronic state is 1-A.
 Alpha  occ. eigenvalues --  -10.63028 -10.62597 -10.62246 -10.61555  -0.93378
 Alpha  occ. eigenvalues --   -0.85140  -0.69170  -0.64113  -0.54989  -0.52850
 Alpha  occ. eigenvalues --   -0.47572  -0.43654  -0.40623  -0.38062  -0.28212
 Alpha virt. eigenvalues --    0.01762   0.06982   0.07169   0.07964   0.09315
 Alpha virt. eigenvalues --    0.11711   0.12482   0.14162   0.15424   0.16289
 Alpha virt. eigenvalues --    0.18620   0.19485   0.21310   0.23444   0.23808

 Mulliken charges:
               1
     1  C   -0.154474
     2  C   -0.030596
     3  C   -0.020065
     4  C   -0.175891
     5  H    0.069779
     6  H    0.052463
     7  H    0.062877
     8  H    0.041928
     9  H    0.053318
    10  H    0.100661
 Sum of Mulliken charges =   0.00000

 Dipole moment (field-independent basis, Debye):
    X=             -0.0073    Y=              0.0069    Z=              0.4554  Tot=              0.4555
 Quadrupole moment (field-independent basis, Debye-Ang):
   XX=            -23.8149   YY=            -23.4760   ZZ=            -29.1846
   XY=             -0.1549   XZ=             -0.7494   YZ=              0.0953

 1\1\GINC-NODE28\SP\RB2PLYPD3-FC\def2QZVP\C4H6\BOITTIER\26-Aug-2020\0\\
 #p B2PLYPD3/Def2QZVP\\butadiene\\0,1\C,0,-3.805545,0.245118,0.021371\C
 ,0,-2.740359,-0.543163,0.083695\C,0,-1.394995,0.03118,0.038054\C,0,-0.
 244121,-0.607818,0.005991\H,0,-4.860134,-0.165057,-0.283056\H,0,-3.677
 689,1.377092,-0.068347\H,0,-2.886613,-1.570267,-0.051173\H,0,-1.488006
 ,1.120999,-0.123991\H,0,-0.377863,-1.736573,0.070622\H,0,0.70881,-0.18
 0431,-0.04848\\Version=ES64L-G09RevD.01\State=1-A\HF=-155.6799483\MP2=
 -155.9066828\RMSD=8.416e-09\PG=C01 [X(C4H6)]\\@

 Normal termination of Gaussian 09 at Wed Aug 26 16:11:21 2020.
