 Gaussian 09, Revision D.01,
 Gaussian 09:  ES64L-G09RevD.01 24-Apr-2013

 --------------------
 #p B2PLYPD3/Def2QZVP
 --------------------

 ---------
 butadiene
 ---------
 Symbolic Z-matrix:
 Charge =  0 Multiplicity = 1

                         Standard orientation:
 ---------------------------------------------------------------------
 Center     Atomic      Atomic             Coordinates (Angstroms)
 Number     Number       Type             X           Y           Z
 ---------------------------------------------------------------------
      1          6           0        1.804738   -0.136240    0.043075
      2          6           0        0.592033    0.460573   -0.062269
      3          6           0       -0.598878   -0.352633   -0.035900
      4          6           0       -1.840675    0.052715    0.080787
      5          1           0        2.811842    0.344699   -0.081166
      6          1           0        1.971523   -1.255860    0.216787
      7          1           0        0.539602    1.526895   -0.034089
      8          1           0       -0.397596   -1.342151   -0.190791
      9          1           0       -1.930029    1.102716    0.103390
     10          1           0       -2.738643   -0.522793   -0.168287
 ---------------------------------------------------------------------

 SCF Done:  E(RB2PLYPD3) =  -155.681284574     A.U. after   12 cycles
 E2(B2PLYPD3) =    -0.2263943796D+00 E(B2PLYPD3) =    -0.15590767895348D+03

 The electronic state is 1-A.
 Alpha  occ. eigenvalues --  -10.63224 -10.62953 -10.61333 -10.60667  -0.93614
 Alpha  occ. eigenvalues --   -0.84816  -0.69949  -0.65104  -0.54952  -0.53543
 Alpha  occ. eigenvalues --   -0.47558  -0.44295  -0.41185  -0.37904  -0.27732
 Alpha virt. eigenvalues --    0.01231   0.06941   0.07475   0.08141   0.09466
 Alpha virt. eigenvalues --    0.11647   0.12712   0.14325   0.15728   0.16354
 Alpha virt. eigenvalues --    0.18922   0.20141   0.21612   0.22336   0.23525

 Mulliken charges:
               1
     1  C   -0.159812
     2  C   -0.052600
     3  C   -0.012633
     4  C   -0.170830
     5  H    0.075818
     6  H    0.055256
     7  H    0.066388
     8  H    0.064780
     9  H    0.051783
    10  H    0.081849
 Sum of Mulliken charges =   0.00000

 Dipole moment (field-independent basis, Debye):
    X=              0.1922    Y=              0.0037    Z=             -0.2318  Tot=              0.3012
 Quadrupole moment (field-independent basis, Debye-Ang):
   XX=            -23.3013   YY=            -23.5114   ZZ=            -29.0817
   XY=             -0.2202   XZ=              0.6293   YZ=              0.1002

 1\1\GINC-NODE14\SP\RB2PLYPD3-FC\def2QZVP\C4H6\BOITTIER\26-Aug-2020\0\\
 #p B2PLYPD3/Def2QZVP\\butadiene\\0,1\C,0,-3.805313,0.251613,0.065382\C
 ,0,-2.722572,-0.558764,-0.02894\C,0,-1.403154,0.023806,-0.024997\C,0,-
 0.255353,-0.598608,0.098028\H,0,-4.884081,-0.040145,-0.044773\H,0,-3.7
 63872,1.386541,0.212907\H,0,-2.865331,-1.615817,0.024403\H,0,-1.42163,
 1.029637,-0.202803\H,0,-0.35887,-1.646485,0.145313\H,0,0.730785,-0.202
 509,-0.166984\\Version=ES64L-G09RevD.01\State=1-A\HF=-155.6812846\MP2=
 -155.907679\RMSD=4.026e-09\PG=C01 [X(C4H6)]\\@

 Normal termination of Gaussian 09 at Wed Aug 26 15:05:37 2020.
