 Gaussian 09, Revision D.01,
 Gaussian 09:  ES64L-G09RevD.01 24-Apr-2013

 --------------------
 #p B2PLYPD3/Def2QZVP
 --------------------

 ---------
 butadiene
 ---------
 Symbolic Z-matrix:
 Charge =  0 Multiplicity = 1

                         Standard orientation:
 ---------------------------------------------------------------------
 Center     Atomic      Atomic             Coordinates (Angstroms)
 Number     Number       Type             X           Y           Z
 ---------------------------------------------------------------------
      1          6           0        1.863931    0.059412   -0.033380
      2          6           0        0.601567   -0.383188    0.001591
      3          6           0       -0.594755    0.502894    0.009229
      4          6           0       -1.831230   -0.160237    0.012177
      5          1           0        2.640405   -0.595425    0.109698
      6          1           0        1.958764    1.169411   -0.137844
      7          1           0        0.344430   -1.454493    0.152177
      8          1           0       -0.487122    1.571356    0.184963
      9          1           0       -1.978142   -1.197568   -0.159452
     10          1           0       -2.715416    0.393435   -0.087248
 ---------------------------------------------------------------------

 SCF Done:  E(RB2PLYPD3) =  -155.680804359     A.U. after   12 cycles
 E2(B2PLYPD3) =    -0.2278695863D+00 E(B2PLYPD3) =    -0.15590867394509D+03

 The electronic state is 1-A.
 Alpha  occ. eigenvalues --  -10.64147 -10.62897 -10.61995 -10.61142  -0.92079
 Alpha  occ. eigenvalues --   -0.84200  -0.70444  -0.63950  -0.55103  -0.52979
 Alpha  occ. eigenvalues --   -0.47426  -0.44790  -0.41584  -0.37095  -0.27168
 Alpha virt. eigenvalues --    0.01097   0.07195   0.07207   0.07971   0.08694
 Alpha virt. eigenvalues --    0.11702   0.12424   0.14613   0.15600   0.16101
 Alpha virt. eigenvalues --    0.18583   0.19758   0.21624   0.23642   0.23859

 Mulliken charges:
               1
     1  C   -0.190777
     2  C   -0.015002
     3  C   -0.060171
     4  C   -0.172329
     5  H    0.098625
     6  H    0.064373
     7  H    0.053782
     8  H    0.073733
     9  H    0.070717
    10  H    0.077050
 Sum of Mulliken charges =   0.00000

 Dipole moment (field-independent basis, Debye):
    X=             -0.1160    Y=             -0.0020    Z=              0.0703  Tot=              0.1356
 Quadrupole moment (field-independent basis, Debye-Ang):
   XX=            -24.0201   YY=            -22.8711   ZZ=            -29.4293
   XY=              0.2777   XZ=              0.6689   YZ=             -0.0123

 1\1\GINC-NODE37\SP\RB2PLYPD3-FC\def2QZVP\C4H6\BOITTIER\26-Aug-2020\0\\
 #p B2PLYPD3/Def2QZVP\\butadiene\\0,1\C,0,-3.868972,0.18792,0.041907\C,
 0,-2.710518,-0.481792,0.029585\C,0,-1.370674,0.166576,0.000904\C,0,-0.
 278552,-0.713867,0.027596\H,0,-4.753323,-0.316117,-0.084836\H,0,-3.756
 439,1.299118,0.109567\H,0,-2.65637,-1.586587,-0.084374\H,0,-1.278316,1
 .230051,-0.210211\H,0,-0.32654,-1.75418,0.233851\H,0,0.692907,-0.33059
 ,0.114705\\Version=ES64L-G09RevD.01\State=1-A\HF=-155.6808044\MP2=-155
 .9086739\RMSD=3.732e-09\PG=C01 [X(C4H6)]\\@

 Normal termination of Gaussian 09 at Wed Aug 26 14:03:02 2020.
