 Gaussian 09, Revision D.01,
 Gaussian 09:  ES64L-G09RevD.01 24-Apr-2013

 --------------------
 #p B2PLYPD3/Def2QZVP
 --------------------

 ---------
 butadiene
 ---------
 Symbolic Z-matrix:
 Charge =  0 Multiplicity = 1

                         Standard orientation:
 ---------------------------------------------------------------------
 Center     Atomic      Atomic             Coordinates (Angstroms)
 Number     Number       Type             X           Y           Z
 ---------------------------------------------------------------------
      1          6           0       -1.853557    0.097600   -0.032219
      2          6           0       -0.607291   -0.378859   -0.000071
      3          6           0        0.617243    0.416480    0.037633
      4          6           0        1.841237   -0.136808   -0.015510
      5          1           0       -2.713051   -0.549965   -0.006262
      6          1           0       -2.047974    1.153562    0.034947
      7          1           0       -0.498327   -1.481261    0.101483
      8          1           0        0.507596    1.513589    0.021781
      9          1           0        2.070841   -1.163076   -0.020204
     10          1           0        2.695126    0.536678   -0.070745
 ---------------------------------------------------------------------

 SCF Done:  E(RB2PLYPD3) =  -155.697416272     A.U. after   11 cycles
 E2(B2PLYPD3) =    -0.2259975552D+00 E(B2PLYPD3) =    -0.15592341382742D+03

 The electronic state is 1-A.
 Alpha  occ. eigenvalues --  -10.63112 -10.62767 -10.61559 -10.61278  -0.92662
 Alpha  occ. eigenvalues --   -0.84934  -0.70320  -0.63783  -0.54485  -0.54070
 Alpha  occ. eigenvalues --   -0.46929  -0.45359  -0.40975  -0.37850  -0.27675
 Alpha virt. eigenvalues --    0.01602   0.06985   0.07411   0.07953   0.09497
 Alpha virt. eigenvalues --    0.11602   0.12413   0.14840   0.15692   0.16293
 Alpha virt. eigenvalues --    0.18833   0.20318   0.21850   0.22756   0.23695

 Mulliken charges:
               1
     1  C   -0.176693
     2  C   -0.024275
     3  C   -0.039965
     4  C   -0.171389
     5  H    0.085442
     6  H    0.062572
     7  H    0.051131
     8  H    0.057979
     9  H    0.077077
    10  H    0.078120
 Sum of Mulliken charges =   0.00000

 Dipole moment (field-independent basis, Debye):
    X=              0.0580    Y=             -0.0120    Z=              0.0850  Tot=              0.1036
 Quadrupole moment (field-independent basis, Debye-Ang):
   XX=            -23.4376   YY=            -23.0577   ZZ=            -29.3130
   XY=             -0.2693   XZ=             -0.3924   YZ=             -0.0873

 1\1\GINC-NODE05\SP\RB2PLYPD3-FC\def2QZVP\C4H6\BOITTIER\26-Aug-2020\0\\
 #p B2PLYPD3/Def2QZVP\\butadiene\\0,1\C,0,-3.858864,0.210252,-0.007353\
 C,0,-2.717033,-0.47909,0.040125\C,0,-1.370302,0.086344,0.048505\C,0,-0
 .264681,-0.67752,0.013469\H,0,-4.819632,-0.272661,0.042291\H,0,-3.8618
 34,1.285632,0.022893\H,0,-2.805173,-1.579126,0.180221\H,0,-1.283146,1.
 184242,-0.005755\H,0,-0.221345,-1.727815,0.044573\H,0,0.694968,-0.1691
 24,-0.06634\\Version=ES64L-G09RevD.01\State=1-A\HF=-155.6974163\MP2=-1
 55.9234138\RMSD=6.498e-09\PG=C01 [X(C4H6)]\\@

 Normal termination of Gaussian 09 at Wed Aug 26 10:06:04 2020.
