 Gaussian 09, Revision D.01,
 Gaussian 09:  ES64L-G09RevD.01 24-Apr-2013

 --------------------
 #p B2PLYPD3/Def2QZVP
 --------------------

 ---------
 butadiene
 ---------
 Symbolic Z-matrix:
 Charge =  0 Multiplicity = 1

                         Standard orientation:
 ---------------------------------------------------------------------
 Center     Atomic      Atomic             Coordinates (Angstroms)
 Number     Number       Type             X           Y           Z
 ---------------------------------------------------------------------
      1          6           0        1.846937   -0.102865   -0.031620
      2          6           0        0.605714    0.379081    0.065098
      3          6           0       -0.605511   -0.408941    0.034559
      4          6           0       -1.854582    0.109848   -0.038229
      5          1           0        2.636531    0.601025   -0.078990
      6          1           0        2.076666   -1.136277   -0.042752
      7          1           0        0.477488    1.461262   -0.036909
      8          1           0       -0.394121   -1.468481    0.029381
      9          1           0       -2.023253    1.208041    0.007025
     10          1           0       -2.728665   -0.528305   -0.056597
 ---------------------------------------------------------------------

 SCF Done:  E(RB2PLYPD3) =  -155.696672794     A.U. after   11 cycles
 E2(B2PLYPD3) =    -0.2262361340D+00 E(B2PLYPD3) =    -0.15592290892843D+03

 The electronic state is 1-A.
 Alpha  occ. eigenvalues --  -10.62789 -10.62356 -10.62291 -10.61071  -0.92942
 Alpha  occ. eigenvalues --   -0.84744  -0.70657  -0.63945  -0.54583  -0.53885
 Alpha  occ. eigenvalues --   -0.46709  -0.45987  -0.40964  -0.38042  -0.27517
 Alpha virt. eigenvalues --    0.01337   0.07002   0.07413   0.08114   0.09569
 Alpha virt. eigenvalues --    0.11699   0.12321   0.14889   0.15610   0.16082
 Alpha virt. eigenvalues --    0.18806   0.20075   0.21816   0.22850   0.24038

 Mulliken charges:
               1
     1  C   -0.182996
     2  C   -0.015215
     3  C   -0.041685
     4  C   -0.174612
     5  H    0.085593
     6  H    0.069061
     7  H    0.049317
     8  H    0.054025
     9  H    0.067887
    10  H    0.088624
 Sum of Mulliken charges =   0.00000

 Dipole moment (field-independent basis, Debye):
    X=              0.0355    Y=             -0.0260    Z=             -0.0907  Tot=              0.1008
 Quadrupole moment (field-independent basis, Debye-Ang):
   XX=            -23.5023   YY=            -23.1173   ZZ=            -29.3106
   XY=             -0.3068   XZ=             -0.2243   YZ=             -0.0570

 1\1\GINC-NODE34\SP\RB2PLYPD3-FC\def2QZVP\C4H6\BOITTIER\26-Aug-2020\0\\
 #p B2PLYPD3/Def2QZVP\\butadiene\\0,1\C,0,-3.850012,0.22309,-0.018771\C
 ,0,-2.71864,-0.476768,0.092833\C,0,-1.383082,0.073991,0.04895\C,0,-0.2
 50902,-0.667316,-0.008066\H,0,-4.755715,-0.32434,-0.053208\H,0,-3.8856
 02,1.280616,-0.053595\H,0,-2.791879,-1.566073,0.015283\H,0,-1.395832,1
 .15395,0.019561\H,0,-0.287226,-1.776498,0.062101\H,0,0.725698,-0.20150
 7,-0.037605\\Version=ES64L-G09RevD.01\State=1-A\HF=-155.6966728\MP2=-1
 55.9229089\RMSD=6.289e-09\PG=C01 [X(C4H6)]\\@

 Normal termination of Gaussian 09 at Wed Aug 26 09:10:22 2020.
