 Gaussian 09, Revision D.01,
 Gaussian 09:  ES64L-G09RevD.01 24-Apr-2013

 --------------------
 #p B2PLYPD3/Def2QZVP
 --------------------

 ---------
 butadiene
 ---------
 Symbolic Z-matrix:
 Charge =  0 Multiplicity = 1

                         Standard orientation:
 ---------------------------------------------------------------------
 Center     Atomic      Atomic             Coordinates (Angstroms)
 Number     Number       Type             X           Y           Z
 ---------------------------------------------------------------------
      1          6           0       -1.836041   -0.127249    0.004713
      2          6           0       -0.609224    0.422057   -0.030361
      3          6           0        0.609257   -0.385963   -0.058375
      4          6           0        1.864630    0.093191    0.029374
      5          1           0       -2.778825    0.505891    0.138169
      6          1           0       -1.969292   -1.224717    0.056190
      7          1           0       -0.500646    1.516668   -0.018997
      8          1           0        0.373559   -1.412675    0.031569
      9          1           0        1.992071    1.172876    0.040260
     10          1           0        2.711402   -0.570260    0.080696
 ---------------------------------------------------------------------

 SCF Done:  E(RB2PLYPD3) =  -155.693957087     A.U. after   11 cycles
 E2(B2PLYPD3) =    -0.2268178666D+00 E(B2PLYPD3) =    -0.15592077495386D+03

 The electronic state is 1-A.
 Alpha  occ. eigenvalues --  -10.62978 -10.62654 -10.62485 -10.61842  -0.92786
 Alpha  occ. eigenvalues --   -0.84490  -0.69829  -0.64106  -0.54326  -0.53234
 Alpha  occ. eigenvalues --   -0.46712  -0.45459  -0.40917  -0.37926  -0.27620
 Alpha virt. eigenvalues --    0.01462   0.06937   0.07325   0.08020   0.09333
 Alpha virt. eigenvalues --    0.11687   0.12345   0.14488   0.15561   0.16186
 Alpha virt. eigenvalues --    0.18677   0.20040   0.21477   0.23291   0.23603

 Mulliken charges:
               1
     1  C   -0.171284
     2  C   -0.029464
     3  C   -0.030559
     4  C   -0.181439
     5  H    0.079753
     6  H    0.061713
     7  H    0.052089
     8  H    0.057503
     9  H    0.068882
    10  H    0.092806
 Sum of Mulliken charges =   0.00000

 Dipole moment (field-independent basis, Debye):
    X=             -0.0124    Y=             -0.0110    Z=              0.2382  Tot=              0.2388
 Quadrupole moment (field-independent basis, Debye-Ang):
   XX=            -23.6535   YY=            -23.1717   ZZ=            -29.4195
   XY=              0.1209   XZ=             -0.1613   YZ=             -0.0685

 1\1\GINC-NODE10\SP\RB2PLYPD3-FC\def2QZVP\C4H6\BOITTIER\26-Aug-2020\0\\
 #p B2PLYPD3/Def2QZVP\\butadiene\\0,1\C,0,-3.838647,0.239499,0.002599\C
 ,0,-2.7302,-0.519303,0.062701\C,0,-1.386415,0.057425,0.064269\C,0,-0.2
 37707,-0.642195,-0.000924\H,0,-4.88019,-0.218785,-0.110012\H,0,-3.7729
 76,1.340311,-0.0909\H,0,-2.819845,-1.615261,0.093211\H,0,-1.434356,1.1
 05607,-0.06534\H,0,-0.306114,-1.726847,0.029564\H,0,0.714193,-0.14389,
 -0.074436\\Version=ES64L-G09RevD.01\State=1-A\HF=-155.6939571\MP2=-155
 .920775\RMSD=5.393e-09\PG=C01 [X(C4H6)]\\@

 Normal termination of Gaussian 09 at Wed Aug 26 09:14:31 2020.
