 Gaussian 09, Revision D.01,
 Gaussian 09:  ES64L-G09RevD.01 24-Apr-2013

 --------------------
 #p B2PLYPD3/Def2QZVP
 --------------------

 ---------
 butadiene
 ---------
 Symbolic Z-matrix:
 Charge =  0 Multiplicity = 1

                         Standard orientation:
 ---------------------------------------------------------------------
 Center     Atomic      Atomic             Coordinates (Angstroms)
 Number     Number       Type             X           Y           Z
 ---------------------------------------------------------------------
      1          6           0       -1.835071   -0.122379   -0.001115
      2          6           0       -0.615164    0.418766   -0.021541
      3          6           0        0.602043   -0.392901   -0.019474
      4          6           0        1.849908    0.099919    0.015901
      5          1           0       -2.726508    0.501704    0.078150
      6          1           0       -1.995705   -1.184581    0.029515
      7          1           0       -0.501056    1.510544   -0.005738
      8          1           0        0.448407   -1.460936    0.025423
      9          1           0        2.059730    1.136868    0.033209
     10          1           0        2.704841   -0.524030   -0.003191
 ---------------------------------------------------------------------

 SCF Done:  E(RB2PLYPD3) =  -155.700023845     A.U. after   11 cycles
 E2(B2PLYPD3) =    -0.2256127786D+00 E(B2PLYPD3) =    -0.15592563662362D+03

 The electronic state is 1-A.
 Alpha  occ. eigenvalues --  -10.62779 -10.62657 -10.61559 -10.61066  -0.92780
 Alpha  occ. eigenvalues --   -0.84909  -0.70365  -0.64229  -0.54673  -0.54030
 Alpha  occ. eigenvalues --   -0.46779  -0.45815  -0.41152  -0.37951  -0.27660
 Alpha virt. eigenvalues --    0.01708   0.07013   0.07453   0.08096   0.09468
 Alpha virt. eigenvalues --    0.11661   0.12533   0.14781   0.15848   0.16247
 Alpha virt. eigenvalues --    0.18841   0.20344   0.21993   0.23004   0.23627

 Mulliken charges:
               1
     1  C   -0.171912
     2  C   -0.031915
     3  C   -0.033441
     4  C   -0.176520
     5  H    0.082162
     6  H    0.066717
     7  H    0.056817
     8  H    0.057402
     9  H    0.066075
    10  H    0.084615
 Sum of Mulliken charges =   0.00000

 Dipole moment (field-independent basis, Debye):
    X=             -0.0128    Y=              0.0056    Z=              0.1156  Tot=              0.1165
 Quadrupole moment (field-independent basis, Debye-Ang):
   XX=            -23.3553   YY=            -23.0877   ZZ=            -29.2638
   XY=              0.2914   XZ=             -0.2299   YZ=              0.0159

 1\1\GINC-NODE20\SP\RB2PLYPD3-FC\def2QZVP\C4H6\BOITTIER\26-Aug-2020\0\\
 #p B2PLYPD3/Def2QZVP\\butadiene\\0,1\C,0,-3.835066,0.236167,0.012598\C
 ,0,-2.732618,-0.515056,0.053837\C,0,-1.389071,0.063544,0.031377\C,0,-0
 .250524,-0.646913,0.015469\H,0,-4.824534,-0.219199,-0.050791\H,0,-3.80
 1704,1.308484,-0.050944\H,0,-2.817166,-1.609488,0.071704\H,0,-1.347802
 ,1.139898,-0.046578\H,0,-0.231048,-1.704733,0.030502\H,0,0.702893,-0.1
 86943,0.018588\\Version=ES64L-G09RevD.01\State=1-A\HF=-155.7000238\MP2
 =-155.9256366\RMSD=3.406e-09\PG=C01 [X(C4H6)]\\@

 Normal termination of Gaussian 09 at Wed Aug 26 18:54:30 2020.
