 Gaussian 09, Revision D.01,
 Gaussian 09:  ES64L-G09RevD.01 24-Apr-2013

 --------------------
 #p B2PLYPD3/Def2QZVP
 --------------------

 ---------
 butadiene
 ---------
 Symbolic Z-matrix:
 Charge =  0 Multiplicity = 1

                         Standard orientation:
 ---------------------------------------------------------------------
 Center     Atomic      Atomic             Coordinates (Angstroms)
 Number     Number       Type             X           Y           Z
 ---------------------------------------------------------------------
      1          6           0       -1.845629    0.083241    0.078171
      2          6           0       -0.573138   -0.345886   -0.108826
      3          6           0        0.604493    0.421722   -0.039546
      4          6           0        1.804866   -0.123784    0.056036
      5          1           0       -2.531258   -0.617594   -0.034115
      6          1           0       -2.041261    1.077254    0.136130
      7          1           0       -0.369067   -1.389244   -0.055891
      8          1           0        0.497515    1.534913   -0.105282
      9          1           0        1.822581   -1.275087    0.157518
     10          1           0        2.677947    0.458002   -0.013366
 ---------------------------------------------------------------------

 SCF Done:  E(RB2PLYPD3) =  -155.677599504     A.U. after   12 cycles
 E2(B2PLYPD3) =    -0.2261384453D+00 E(B2PLYPD3) =    -0.15590373794926D+03

 The electronic state is 1-A.
 Alpha  occ. eigenvalues --  -10.62092 -10.61830 -10.61809 -10.59948  -0.93919
 Alpha  occ. eigenvalues --   -0.85389  -0.71479  -0.63832  -0.55235  -0.54772
 Alpha  occ. eigenvalues --   -0.46658  -0.46143  -0.41413  -0.38363  -0.27361
 Alpha virt. eigenvalues --    0.01141   0.07085   0.07351   0.08159   0.09902
 Alpha virt. eigenvalues --    0.11869   0.12448   0.14874   0.15700   0.16137
 Alpha virt. eigenvalues --    0.18775   0.19527   0.21860   0.22396   0.24688

 Mulliken charges:
               1
     1  C   -0.182741
     2  C   -0.027574
     3  C   -0.016580
     4  C   -0.177555
     5  H    0.090703
     6  H    0.072509
     7  H    0.048804
     8  H    0.041458
     9  H    0.054923
    10  H    0.096054
 Sum of Mulliken charges =   0.00000

 Dipole moment (field-independent basis, Debye):
    X=              0.0600    Y=              0.0651    Z=             -0.0215  Tot=              0.0911
 Quadrupole moment (field-independent basis, Debye-Ang):
   XX=            -23.8441   YY=            -23.0997   ZZ=            -29.0442
   XY=              0.0627   XZ=             -0.0616   YZ=             -0.0935

 1\1\GINC-NODE37\SP\RB2PLYPD3-FC\def2QZVP\C4H6\BOITTIER\26-Aug-2020\0\\
 #p B2PLYPD3/Def2QZVP\\butadiene\\0,1\C,0,-3.849552,0.209817,0.097224\C
 ,0,-2.680349,-0.457246,-0.065079\C,0,-1.380269,0.081035,-0.035371\C,0,
 -0.30105,-0.671973,0.090618\H,0,-4.654172,-0.356517,0.021614\H,0,-3.85
 7002,1.224517,0.101881\H,0,-2.67279,-1.516097,0.043641\H,0,-1.279586,1
 .189715,-0.160476\H,0,-0.496199,-1.799603,0.253342\H,0,0.664116,-0.266
 798,-0.008626\\Version=ES64L-G09RevD.01\State=1-A\HF=-155.6775995\MP2=
 -155.9037379\RMSD=5.070e-09\PG=C01 [X(C4H6)]\\@

 Normal termination of Gaussian 09 at Wed Aug 26 14:12:10 2020.
