 Gaussian 09, Revision D.01,
 Gaussian 09:  ES64L-G09RevD.01 24-Apr-2013

 --------------------
 #p B2PLYPD3/Def2QZVP
 --------------------

 ---------
 butadiene
 ---------
 Symbolic Z-matrix:
 Charge =  0 Multiplicity = 1

                         Standard orientation:
 ---------------------------------------------------------------------
 Center     Atomic      Atomic             Coordinates (Angstroms)
 Number     Number       Type             X           Y           Z
 ---------------------------------------------------------------------
      1          6           0        1.848344   -0.137718    0.039660
      2          6           0        0.607355    0.422820   -0.033130
      3          6           0       -0.599483   -0.373162   -0.067272
      4          6           0       -1.849564    0.088929    0.021710
      5          1           0        2.702996    0.505733    0.050331
      6          1           0        2.021613   -1.171912   -0.001980
      7          1           0        0.499392    1.537347   -0.020350
      8          1           0       -0.460103   -1.432587    0.035268
      9          1           0       -2.075569    1.109124    0.062065
     10          1           0       -2.728239   -0.552918    0.108855
 ---------------------------------------------------------------------

 SCF Done:  E(RB2PLYPD3) =  -155.695446587     A.U. after   11 cycles
 E2(B2PLYPD3) =    -0.2262277949D+00 E(B2PLYPD3) =    -0.15592167438181D+03

 The electronic state is 1-A.
 Alpha  occ. eigenvalues --  -10.63382 -10.62357 -10.61554 -10.61245  -0.92813
 Alpha  occ. eigenvalues --   -0.84717  -0.70800  -0.64240  -0.54607  -0.54193
 Alpha  occ. eigenvalues --   -0.46376  -0.46097  -0.41298  -0.37969  -0.27380
 Alpha virt. eigenvalues --    0.01256   0.07000   0.07518   0.08021   0.09449
 Alpha virt. eigenvalues --    0.11651   0.12534   0.14869   0.15721   0.16274
 Alpha virt. eigenvalues --    0.18900   0.20190   0.21989   0.23052   0.23676

 Mulliken charges:
               1
     1  C   -0.178976
     2  C   -0.040077
     3  C   -0.023753
     4  C   -0.173115
     5  H    0.084661
     6  H    0.074239
     7  H    0.053720
     8  H    0.058662
     9  H    0.064508
    10  H    0.080129
 Sum of Mulliken charges =   0.00000

 Dipole moment (field-independent basis, Debye):
    X=              0.0048    Y=              0.0073    Z=              0.1379  Tot=              0.1382
 Quadrupole moment (field-independent basis, Debye-Ang):
   XX=            -23.3060   YY=            -23.1350   ZZ=            -29.2944
   XY=             -0.3193   XZ=             -0.3765   YZ=             -0.0523

 1\1\GINC-NODE10\SP\RB2PLYPD3-FC\def2QZVP\C4H6\BOITTIER\26-Aug-2020\0\\
 #p B2PLYPD3/Def2QZVP\\butadiene\\0,1\C,0,-3.844349,0.25424,0.057293\C,
 0,-2.72478,-0.52234,0.002111\C,0,-1.394116,0.042029,-0.042951\C,0,-0.2
 47987,-0.635917,0.061587\H,0,-4.801068,-0.224151,0.077368\H,0,-3.82816
 6,1.301592,-0.006778\H,0,-2.819665,-1.63753,0.038699\H,0,-1.340175,1.1
 11168,0.036758\H,0,-0.209773,-1.679041,0.12433\H,0,0.731985,-0.16134,0
 .139453\\Version=ES64L-G09RevD.01\State=1-A\HF=-155.6954466\MP2=-155.9
 216744\RMSD=7.019e-09\PG=C01 [X(C4H6)]\\@

 Normal termination of Gaussian 09 at Wed Aug 26 09:17:12 2020.
