 Gaussian 09, Revision D.01,
 Gaussian 09:  ES64L-G09RevD.01 24-Apr-2013

 --------------------
 #p B2PLYPD3/Def2QZVP
 --------------------

 ---------
 butadiene
 ---------
 Symbolic Z-matrix:
 Charge =  0 Multiplicity = 1

                         Standard orientation:
 ---------------------------------------------------------------------
 Center     Atomic      Atomic             Coordinates (Angstroms)
 Number     Number       Type             X           Y           Z
 ---------------------------------------------------------------------
      1          6           0        1.830892    0.110148   -0.029641
      2          6           0        0.595109   -0.404880    0.032398
      3          6           0       -0.599665    0.397482    0.005152
      4          6           0       -1.834917   -0.107997   -0.014787
      5          1           0        2.701332   -0.536915    0.015537
      6          1           0        2.009132    1.181762   -0.048310
      7          1           0        0.445553   -1.463824    0.056073
      8          1           0       -0.425547    1.477632    0.087792
      9          1           0       -1.975772   -1.184258   -0.076441
     10          1           0       -2.703220    0.557087    0.006619
 ---------------------------------------------------------------------

 SCF Done:  E(RB2PLYPD3) =  -155.700008973     A.U. after   11 cycles
 E2(B2PLYPD3) =    -0.2259862067D+00 E(B2PLYPD3) =    -0.15592599518012D+03

 The electronic state is 1-A.
 Alpha  occ. eigenvalues --  -10.62411 -10.62263 -10.61692 -10.61673  -0.93221
 Alpha  occ. eigenvalues --   -0.84735  -0.70162  -0.64119  -0.54389  -0.53873
 Alpha  occ. eigenvalues --   -0.46590  -0.45736  -0.41184  -0.38216  -0.27556
 Alpha virt. eigenvalues --    0.01623   0.07019   0.07352   0.08058   0.09618
 Alpha virt. eigenvalues --    0.11754   0.12341   0.14791   0.15687   0.16114
 Alpha virt. eigenvalues --    0.18686   0.20275   0.21642   0.22833   0.23884

 Mulliken charges:
               1
     1  C   -0.176161
     2  C   -0.032041
     3  C   -0.021534
     4  C   -0.182996
     5  H    0.083817
     6  H    0.066326
     7  H    0.055252
     8  H    0.051619
     9  H    0.067612
    10  H    0.088106
 Sum of Mulliken charges =   0.00000

 Dipole moment (field-independent basis, Debye):
    X=              0.0193    Y=             -0.0070    Z=              0.0595  Tot=              0.0630
 Quadrupole moment (field-independent basis, Debye-Ang):
   XX=            -23.6850   YY=            -23.0598   ZZ=            -29.2819
   XY=              0.1901   XZ=              0.0541   YZ=              0.0808

 1\1\GINC-NODE36\SP\RB2PLYPD3-FC\def2QZVP\C4H6\BOITTIER\26-Aug-2020\0\\
 #p B2PLYPD3/Def2QZVP\\butadiene\\0,1\C,0,-3.832518,0.230497,0.044642\C
 ,0,-2.712337,-0.504218,0.004021\C,0,-1.390635,0.065968,0.0057\C,0,-0.2
 68892,-0.656367,0.046664\H,0,-4.806991,-0.247214,0.020328\H,0,-3.81123
 9,1.316603,0.024767\H,0,-2.759512,-1.572796,0.018372\H,0,-1.364152,1.1
 56119,-0.115713\H,0,-0.327446,-1.737342,0.146884\H,0,0.706513,-0.16291
 6,0.00379\\Version=ES64L-G09RevD.01\State=1-A\HF=-155.700009\MP2=-155.
 9259952\RMSD=4.610e-09\PG=C01 [X(C4H6)]\\@

 Normal termination of Gaussian 09 at Wed Aug 26 10:30:54 2020.
