 Gaussian 09, Revision D.01,
 Gaussian 09:  ES64L-G09RevD.01 24-Apr-2013

 --------------------
 #p B2PLYPD3/Def2QZVP
 --------------------

 ---------
 butadiene
 ---------
 Symbolic Z-matrix:
 Charge =  0 Multiplicity = 1

                         Standard orientation:
 ---------------------------------------------------------------------
 Center     Atomic      Atomic             Coordinates (Angstroms)
 Number     Number       Type             X           Y           Z
 ---------------------------------------------------------------------
      1          6           0        1.808315   -0.091182    0.000457
      2          6           0        0.583161    0.370789   -0.080188
      3          6           0       -0.594591   -0.437554   -0.067888
      4          6           0       -1.807350    0.132774    0.047986
      5          1           0        2.742300    0.602823    0.268378
      6          1           0        2.133615   -1.119816    0.060682
      7          1           0        0.393619    1.468777    0.044088
      8          1           0       -0.503392   -1.484236    0.119871
      9          1           0       -2.004209    1.189247    0.020362
     10          1           0       -2.699146   -0.505754    0.084417
 ---------------------------------------------------------------------

 SCF Done:  E(RB2PLYPD3) =  -155.683734572     A.U. after   11 cycles
 E2(B2PLYPD3) =    -0.2267065472D+00 E(B2PLYPD3) =    -0.15591044111882D+03

 The electronic state is 1-A.
 Alpha  occ. eigenvalues --  -10.62538 -10.62393 -10.62200 -10.61839  -0.93615
 Alpha  occ. eigenvalues --   -0.84718  -0.69867  -0.64186  -0.54921  -0.53306
 Alpha  occ. eigenvalues --   -0.46331  -0.45007  -0.40208  -0.38469  -0.27687
 Alpha virt. eigenvalues --    0.01574   0.06877   0.07269   0.07824   0.09284
 Alpha virt. eigenvalues --    0.11594   0.12380   0.14879   0.15379   0.16338
 Alpha virt. eigenvalues --    0.18735   0.19438   0.22332   0.22959   0.23522

 Mulliken charges:
               1
     1  C   -0.163115
     2  C   -0.018673
     3  C   -0.041343
     4  C   -0.171965
     5  H    0.058194
     6  H    0.065426
     7  H    0.057230
     8  H    0.068669
     9  H    0.070158
    10  H    0.075418
 Sum of Mulliken charges =   0.00000

 Dipole moment (field-independent basis, Debye):
    X=             -0.1309    Y=             -0.0747    Z=              0.4004  Tot=              0.4278
 Quadrupole moment (field-independent basis, Debye-Ang):
   XX=            -23.8233   YY=            -23.2467   ZZ=            -29.1735
   XY=             -0.6820   XZ=              0.5416   YZ=             -0.0222

 1\1\GINC-NODE25\SP\RB2PLYPD3-FC\def2QZVP\C4H6\BOITTIER\26-Aug-2020\0\\
 #p B2PLYPD3/Def2QZVP\\butadiene\\0,1\C,0,-3.813611,0.209601,0.040547\C
 ,0,-2.696668,-0.474922,-0.028659\C,0,-1.389011,0.099815,-0.04812\C,0,-
 0.302473,-0.682347,0.082817\H,0,-4.857736,-0.289074,0.335298\H,0,-3.94
 122,1.282243,0.06682\H,0,-2.713528,-1.584316,0.132308\H,0,-1.282004,1.
 150754,0.104164\H,0,-0.305915,-1.757326,0.090531\H,0,0.692876,-0.22029
 3,0.09428\\Version=ES64L-G09RevD.01\State=1-A\HF=-155.6837346\MP2=-155
 .9104411\RMSD=6.970e-09\PG=C01 [X(C4H6)]\\@

 Normal termination of Gaussian 09 at Wed Aug 26 15:46:42 2020.
