 Gaussian 09, Revision D.01,
 Gaussian 09:  ES64L-G09RevD.01 24-Apr-2013

 --------------------
 #p B2PLYPD3/Def2QZVP
 --------------------

 ---------
 butadiene
 ---------
 Symbolic Z-matrix:
 Charge =  0 Multiplicity = 1

                         Standard orientation:
 ---------------------------------------------------------------------
 Center     Atomic      Atomic             Coordinates (Angstroms)
 Number     Number       Type             X           Y           Z
 ---------------------------------------------------------------------
      1          6           0       -1.837729    0.087727   -0.008898
      2          6           0       -0.591940   -0.380525    0.004166
      3          6           0        0.608834    0.441303    0.037103
      4          6           0        1.824310   -0.134188   -0.032040
      5          1           0       -2.664998   -0.577066   -0.050639
      6          1           0       -2.036022    1.150589   -0.095865
      7          1           0       -0.417156   -1.472304    0.148525
      8          1           0        0.471746    1.500011    0.078134
      9          1           0        1.992335   -1.193431   -0.067243
     10          1           0        2.633237    0.506301   -0.014897
 ---------------------------------------------------------------------

 SCF Done:  E(RB2PLYPD3) =  -155.696253569     A.U. after   11 cycles
 E2(B2PLYPD3) =    -0.2256828947D+00 E(B2PLYPD3) =    -0.15592193646328D+03

 The electronic state is 1-A.
 Alpha  occ. eigenvalues --  -10.62527 -10.62466 -10.61070 -10.61054  -0.92959
 Alpha  occ. eigenvalues --   -0.84979  -0.70510  -0.64030  -0.54780  -0.54066
 Alpha  occ. eigenvalues --   -0.47086  -0.45757  -0.41242  -0.37866  -0.27570
 Alpha virt. eigenvalues --    0.01773   0.07117   0.07347   0.08154   0.09381
 Alpha virt. eigenvalues --    0.11734   0.12386   0.14959   0.15551   0.16263
 Alpha virt. eigenvalues --    0.18706   0.20019   0.21985   0.23009   0.23943

 Mulliken charges:
               1
     1  C   -0.185138
     2  C   -0.018310
     3  C   -0.045082
     4  C   -0.174923
     5  H    0.086825
     6  H    0.063557
     7  H    0.051829
     8  H    0.061391
     9  H    0.075237
    10  H    0.084614
 Sum of Mulliken charges =   0.00000

 Dipole moment (field-independent basis, Debye):
    X=              0.0772    Y=              0.0304    Z=              0.0145  Tot=              0.0843
 Quadrupole moment (field-independent basis, Debye-Ang):
   XX=            -23.7583   YY=            -22.8896   ZZ=            -29.2021
   XY=             -0.2922   XZ=              0.1240   YZ=             -0.0901

 1\1\GINC-NODE23\SP\RB2PLYPD3-FC\def2QZVP\C4H6\BOITTIER\26-Aug-2020\0\\
 #p B2PLYPD3/Def2QZVP\\butadiene\\0,1\C,0,-3.843067,0.209,0.007427\C,0,
 -2.705123,-0.480483,0.04087\C,0,-1.373152,0.106141,0.049185\C,0,-0.285
 062,-0.685932,0.004099\H,0,-4.77899,-0.292657,-0.013911\H,0,-3.841975,
 1.286522,-0.117084\H,0,-2.734477,-1.580071,0.223666\H,0,-1.312269,1.17
 2733,0.05294\H,0,-0.315622,-1.758559,0.006289\H,0,0.628268,-0.205615,0
 .001639\\Version=ES64L-G09RevD.01\State=1-A\HF=-155.6962536\MP2=-155.9
 219365\RMSD=7.043e-09\PG=C01 [X(C4H6)]\\@

 Normal termination of Gaussian 09 at Wed Aug 26 10:58:24 2020.
