 Gaussian 09, Revision D.01,
 Gaussian 09:  ES64L-G09RevD.01 24-Apr-2013

 --------------------
 #p B2PLYPD3/Def2QZVP
 --------------------

 ---------
 butadiene
 ---------
 Symbolic Z-matrix:
 Charge =  0 Multiplicity = 1

                         Standard orientation:
 ---------------------------------------------------------------------
 Center     Atomic      Atomic             Coordinates (Angstroms)
 Number     Number       Type             X           Y           Z
 ---------------------------------------------------------------------
      1          6           0       -1.797575   -0.142806    0.056872
      2          6           0       -0.582575    0.473955   -0.014908
      3          6           0        0.545623   -0.355912   -0.093038
      4          6           0        1.826805    0.064861    0.023408
      5          1           0       -2.670534    0.417575    0.084736
      6          1           0       -1.992539   -1.167826   -0.081959
      7          1           0       -0.463825    1.537132   -0.097540
      8          1           0        0.380547   -1.472367    0.018020
      9          1           0        2.138245    1.063145    0.046853
     10          1           0        2.654439   -0.618248    0.195894
 ---------------------------------------------------------------------

 SCF Done:  E(RB2PLYPD3) =  -155.684790525     A.U. after   12 cycles
 E2(B2PLYPD3) =    -0.2270828383D+00 E(B2PLYPD3) =    -0.15591187336306D+03

 The electronic state is 1-A.
 Alpha  occ. eigenvalues --  -10.62779 -10.62673 -10.61172 -10.61164  -0.93552
 Alpha  occ. eigenvalues --   -0.84274  -0.71435  -0.64423  -0.55266  -0.53910
 Alpha  occ. eigenvalues --   -0.46865  -0.44890  -0.41810  -0.38395  -0.26673
 Alpha virt. eigenvalues --    0.00922   0.07049   0.07405   0.08080   0.09088
 Alpha virt. eigenvalues --    0.11632   0.12715   0.15124   0.15589   0.16681
 Alpha virt. eigenvalues --    0.18712   0.19967   0.22248   0.22699   0.24203

 Mulliken charges:
               1
     1  C   -0.170368
     2  C   -0.042833
     3  C   -0.013179
     4  C   -0.181840
     5  H    0.073973
     6  H    0.072254
     7  H    0.070653
     8  H    0.053046
     9  H    0.063305
    10  H    0.074990
 Sum of Mulliken charges =   0.00000

 Dipole moment (field-independent basis, Debye):
    X=             -0.1051    Y=              0.0811    Z=              0.0587  Tot=              0.1452
 Quadrupole moment (field-independent basis, Debye-Ang):
   XX=            -23.5603   YY=            -23.0464   ZZ=            -29.1973
   XY=              0.6027   XZ=              0.7374   YZ=             -0.1432

 1\1\GINC-NODE34\SP\RB2PLYPD3-FC\def2QZVP\C4H6\BOITTIER\26-Aug-2020\0\\
 #p B2PLYPD3/Def2QZVP\\butadiene\\0,1\C,0,-3.786305,0.274957,-0.035128\
 C,0,-2.713097,-0.561968,0.062613\C,0,-1.44442,0.035585,0.094253\C,0,-0
 .270885,-0.631331,-0.006126\H,0,-4.751661,-0.105742,-0.031175\H,0,-3.7
 76862,1.323833,0.052743\H,0,-2.801643,-1.622658,0.198155\H,0,-1.391377
 ,1.156096,-0.07217\H,0,-0.159297,-1.671048,0.019418\H,0,0.671045,-0.13
 1313,-0.216164\\Version=ES64L-G09RevD.01\State=1-A\HF=-155.6847905\MP2
 =-155.9118734\RMSD=3.440e-09\PG=C01 [X(C4H6)]\\@

 Normal termination of Gaussian 09 at Wed Aug 26 13:50:49 2020.
