 Gaussian 09, Revision D.01,
 Gaussian 09:  ES64L-G09RevD.01 24-Apr-2013

 --------------------
 #p B2PLYPD3/Def2QZVP
 --------------------

 ---------
 butadiene
 ---------
 Symbolic Z-matrix:
 Charge =  0 Multiplicity = 1

                         Standard orientation:
 ---------------------------------------------------------------------
 Center     Atomic      Atomic             Coordinates (Angstroms)
 Number     Number       Type             X           Y           Z
 ---------------------------------------------------------------------
      1          6           0        1.851650   -0.133610    0.050791
      2          6           0        0.601676    0.414800   -0.100756
      3          6           0       -0.630544   -0.359167   -0.025269
      4          6           0       -1.867316    0.094150    0.001681
      5          1           0        2.643101    0.509066    0.032757
      6          1           0        2.027847   -1.204354    0.173888
      7          1           0        0.584702    1.506481   -0.004070
      8          1           0       -0.421916   -1.454929   -0.121269
      9          1           0       -1.975966    1.141024    0.272267
     10          1           0       -2.590567   -0.594321    0.087746
 ---------------------------------------------------------------------

 SCF Done:  E(RB2PLYPD3) =  -155.681541849     A.U. after   11 cycles
 E2(B2PLYPD3) =    -0.2265257259D+00 E(B2PLYPD3) =    -0.15590806757530D+03

 The electronic state is 1-A.
 Alpha  occ. eigenvalues --  -10.63106 -10.62600 -10.61735 -10.60322  -0.92853
 Alpha  occ. eigenvalues --   -0.85430  -0.71046  -0.63317  -0.55421  -0.54110
 Alpha  occ. eigenvalues --   -0.46379  -0.46230  -0.41095  -0.37826  -0.27651
 Alpha virt. eigenvalues --    0.01095   0.07125   0.07390   0.08106   0.09366
 Alpha virt. eigenvalues --    0.11685   0.12353   0.14899   0.15505   0.16545
 Alpha virt. eigenvalues --    0.18750   0.19037   0.22128   0.22568   0.23889

 Mulliken charges:
               1
     1  C   -0.176515
     2  C   -0.039739
     3  C   -0.017345
     4  C   -0.174180
     5  H    0.090054
     6  H    0.068996
     7  H    0.050467
     8  H    0.042150
     9  H    0.067750
    10  H    0.088362
 Sum of Mulliken charges =   0.00000

 Dipole moment (field-independent basis, Debye):
    X=              0.1836    Y=             -0.0400    Z=              0.3614  Tot=              0.4073
 Quadrupole moment (field-independent basis, Debye-Ang):
   XX=            -23.8512   YY=            -23.0983   ZZ=            -29.1261
   XY=              0.1465   XZ=             -0.2426   YZ=              0.2443

 1\1\GINC-NODE07\SP\RB2PLYPD3-FC\def2QZVP\C4H6\BOITTIER\26-Aug-2020\0\\
 #p B2PLYPD3/Def2QZVP\\butadiene\\0,1\C,0,-3.854929,0.249687,0.069856\C
 ,0,-2.722839,-0.518141,-0.052492\C,0,-1.372452,0.027181,-0.005951\C,0,
 -0.235785,-0.637,0.045811\H,0,-4.74802,-0.242342,0.076753\H,0,-3.83764
 7,1.339046,0.145276\H,0,-2.899696,-1.59018,0.09193\H,0,-1.383471,1.137
 307,-0.150642\H,0,-0.313806,-1.673661,0.362376\H,0,0.598585,-0.084857,
 0.104601\\Version=ES64L-G09RevD.01\State=1-A\HF=-155.6815418\MP2=-155.
 9080676\RMSD=8.989e-09\PG=C01 [X(C4H6)]\\@

 Normal termination of Gaussian 09 at Wed Aug 26 14:41:54 2020.
