 Gaussian 09, Revision D.01,
 Gaussian 09:  ES64L-G09RevD.01 24-Apr-2013

 --------------------
 #p B2PLYPD3/Def2QZVP
 --------------------

 ---------
 butadiene
 ---------
 Symbolic Z-matrix:
 Charge =  0 Multiplicity = 1

                         Standard orientation:
 ---------------------------------------------------------------------
 Center     Atomic      Atomic             Coordinates (Angstroms)
 Number     Number       Type             X           Y           Z
 ---------------------------------------------------------------------
      1          6           0        1.848330   -0.109858    0.018457
      2          6           0        0.610034    0.394789   -0.017024
      3          6           0       -0.615756   -0.406696   -0.021841
      4          6           0       -1.844830    0.112983    0.025794
      5          1           0        2.701983    0.536881   -0.057059
      6          1           0        2.029261   -1.168290    0.094351
      7          1           0        0.476887    1.456067   -0.010771
      8          1           0       -0.512137   -1.491229   -0.067192
      9          1           0       -1.957861    1.229893    0.024318
     10          1           0       -2.724801   -0.510630   -0.015961
 ---------------------------------------------------------------------

 SCF Done:  E(RB2PLYPD3) =  -155.699434094     A.U. after   11 cycles
 E2(B2PLYPD3) =    -0.2258266899D+00 E(B2PLYPD3) =    -0.15592526078348D+03

 The electronic state is 1-A.
 Alpha  occ. eigenvalues --  -10.62634 -10.62503 -10.61916 -10.61411  -0.92788
 Alpha  occ. eigenvalues --   -0.84936  -0.69947  -0.63990  -0.54552  -0.53845
 Alpha  occ. eigenvalues --   -0.46758  -0.45481  -0.41174  -0.37910  -0.27750
 Alpha virt. eigenvalues --    0.01730   0.07002   0.07409   0.08049   0.09555
 Alpha virt. eigenvalues --    0.11682   0.12376   0.14577   0.15817   0.16152
 Alpha virt. eigenvalues --    0.18826   0.20410   0.21403   0.22723   0.23968

 Mulliken charges:
               1
     1  C   -0.176962
     2  C   -0.032935
     3  C   -0.032164
     4  C   -0.173099
     5  H    0.086215
     6  H    0.068625
     7  H    0.057169
     8  H    0.053303
     9  H    0.060125
    10  H    0.089723
 Sum of Mulliken charges =   0.00000

 Dipole moment (field-independent basis, Debye):
    X=              0.0074    Y=             -0.0252    Z=             -0.0557  Tot=              0.0616
 Quadrupole moment (field-independent basis, Debye-Ang):
   XX=            -23.5313   YY=            -23.0785   ZZ=            -29.3098
   XY=              0.0175   XZ=              0.0596   YZ=             -0.0510

 1\1\GINC-NODE17\SP\RB2PLYPD3-FC\def2QZVP\C4H6\BOITTIER\26-Aug-2020\0\\
 #p B2PLYPD3/Def2QZVP\\butadiene\\0,1\C,0,-3.852144,0.220278,0.037168\C
 ,0,-2.723004,-0.496626,0.017276\C,0,-1.374627,0.074482,-0.008754\C,0,-
 0.256901,-0.653256,0.054851\H,0,-4.80717,-0.266789,-0.02105\H,0,-3.842
 378,1.29572,0.083031\H,0,-2.779981,-1.564107,0.053555\H,0,-1.284621,1.
 158517,-0.084737\H,0,-0.343563,-1.772117,0.084948\H,0,0.719471,-0.1968
 77,-0.003476\\Version=ES64L-G09RevD.01\State=1-A\HF=-155.6994341\MP2=-
 155.9252608\RMSD=5.004e-09\PG=C01 [X(C4H6)]\\@

 Normal termination of Gaussian 09 at Wed Aug 26 21:14:13 2020.
