 Gaussian 09, Revision D.01,
 Gaussian 09:  ES64L-G09RevD.01 24-Apr-2013

 --------------------
 #p B2PLYPD3/Def2QZVP
 --------------------

 ---------
 butadiene
 ---------
 Symbolic Z-matrix:
 Charge =  0 Multiplicity = 1

                         Standard orientation:
 ---------------------------------------------------------------------
 Center     Atomic      Atomic             Coordinates (Angstroms)
 Number     Number       Type             X           Y           Z
 ---------------------------------------------------------------------
      1          6           0       -1.831803   -0.098111    0.028551
      2          6           0       -0.588741    0.381169   -0.023981
      3          6           0        0.603045   -0.410743   -0.015685
      4          6           0        1.823477    0.112488    0.019510
      5          1           0       -2.683896    0.547210   -0.004486
      6          1           0       -2.026046   -1.150080    0.015504
      7          1           0       -0.458767    1.452000   -0.084316
      8          1           0        0.474865   -1.482265   -0.025532
      9          1           0        1.947367    1.220044    0.086677
     10          1           0        2.710611   -0.495729   -0.038219
 ---------------------------------------------------------------------

 SCF Done:  E(RB2PLYPD3) =  -155.700057553     A.U. after   11 cycles
 E2(B2PLYPD3) =    -0.2255055490D+00 E(B2PLYPD3) =    -0.15592556310227D+03

 The electronic state is 1-A.
 Alpha  occ. eigenvalues --  -10.62185 -10.62116 -10.61739 -10.61109  -0.93457
 Alpha  occ. eigenvalues --   -0.85006  -0.70351  -0.64146  -0.54896  -0.53977
 Alpha  occ. eigenvalues --   -0.46780  -0.45416  -0.41317  -0.38394  -0.27619
 Alpha virt. eigenvalues --    0.01692   0.07034   0.07408   0.08073   0.09794
 Alpha virt. eigenvalues --    0.11726   0.12467   0.14747   0.15832   0.16211
 Alpha virt. eigenvalues --    0.18755   0.20480   0.21603   0.22636   0.23993

 Mulliken charges:
               1
     1  C   -0.179273
     2  C   -0.022665
     3  C   -0.030404
     4  C   -0.172793
     5  H    0.084764
     6  H    0.064159
     7  H    0.051952
     8  H    0.054662
     9  H    0.061396
    10  H    0.088203
 Sum of Mulliken charges =   0.00000

 Dipole moment (field-independent basis, Debye):
    X=              0.0184    Y=             -0.0299    Z=             -0.0753  Tot=              0.0831
 Quadrupole moment (field-independent basis, Debye-Ang):
   XX=            -23.4998   YY=            -23.1372   ZZ=            -29.1778
   XY=              0.0564   XZ=              0.0584   YZ=              0.0453

 1\1\GINC-NODE03\SP\RB2PLYPD3-FC\def2QZVP\C4H6\BOITTIER\26-Aug-2020\0\\
 #p B2PLYPD3/Def2QZVP\\butadiene\\0,1\C,0,-3.836491,0.213736,-0.007244\
 C,0,-2.701626,-0.482904,0.059439\C,0,-1.385343,0.077617,0.031816\C,0,-
 0.281063,-0.660377,0.01193\H,0,-4.791943,-0.264082,0.041683\H,0,-3.835
 391,1.283464,-0.022115\H,0,-2.769096,-1.557521,0.148081\H,0,-1.315733,
 1.154417,0.013316\H,0,-0.361673,-1.773305,-0.025927\H,0,0.702391,-0.22
 3056,0.054758\\Version=ES64L-G09RevD.01\State=1-A\HF=-155.7000576\MP2=
 -155.9255631\RMSD=3.988e-09\PG=C01 [X(C4H6)]\\@

 Normal termination of Gaussian 09 at Wed Aug 26 16:39:47 2020.
