 Gaussian 09, Revision D.01,
 Gaussian 09:  ES64L-G09RevD.01 24-Apr-2013

 --------------------
 #p B2PLYPD3/Def2QZVP
 --------------------

 ---------
 butadiene
 ---------
 Symbolic Z-matrix:
 Charge =  0 Multiplicity = 1

                         Standard orientation:
 ---------------------------------------------------------------------
 Center     Atomic      Atomic             Coordinates (Angstroms)
 Number     Number       Type             X           Y           Z
 ---------------------------------------------------------------------
      1          6           0       -1.839526   -0.131173    0.039998
      2          6           0       -0.625594    0.418392   -0.081081
      3          6           0        0.632012   -0.349509   -0.029553
      4          6           0        1.882523    0.069897    0.008508
      5          1           0       -2.811093    0.369164    0.221705
      6          1           0       -2.010547   -1.164940    0.035354
      7          1           0       -0.672410    1.470967   -0.048832
      8          1           0        0.422291   -1.374736   -0.179610
      9          1           0        2.016275    1.185288    0.079581
     10          1           0        2.758994   -0.531389    0.264576
 ---------------------------------------------------------------------

 SCF Done:  E(RB2PLYPD3) =  -155.683953072     A.U. after   11 cycles
 E2(B2PLYPD3) =    -0.2259888737D+00 E(B2PLYPD3) =    -0.15590994194598D+03

 The electronic state is 1-A.
 Alpha  occ. eigenvalues --  -10.62703 -10.62592 -10.61968 -10.61724  -0.92954
 Alpha  occ. eigenvalues --   -0.85365  -0.70317  -0.64846  -0.55006  -0.53535
 Alpha  occ. eigenvalues --   -0.47775  -0.44422  -0.40854  -0.37575  -0.28142
 Alpha virt. eigenvalues --    0.01491   0.06946   0.07596   0.08119   0.09436
 Alpha virt. eigenvalues --    0.11410   0.12739   0.14249   0.15370   0.16636
 Alpha virt. eigenvalues --    0.19218   0.19626   0.22242   0.22435   0.23219

 Mulliken charges:
               1
     1  C   -0.160903
     2  C   -0.035507
     3  C   -0.036215
     4  C   -0.165722
     5  H    0.074241
     6  H    0.055466
     7  H    0.060564
     8  H    0.064836
     9  H    0.053021
    10  H    0.090218
 Sum of Mulliken charges =   0.00000

 Dipole moment (field-independent basis, Debye):
    X=             -0.1927    Y=             -0.0728    Z=              0.2713  Tot=              0.3406
 Quadrupole moment (field-independent basis, Debye-Ang):
   XX=            -22.8816   YY=            -23.7170   ZZ=            -29.0389
   XY=              0.0203   XZ=              0.1569   YZ=              0.1397

 1\1\GINC-NODE21\SP\RB2PLYPD3-FC\def2QZVP\C4H6\BOITTIER\26-Aug-2020\0\\
 #p B2PLYPD3/Def2QZVP\\butadiene\\0,1\C,0,-3.847037,0.231434,-0.0253\C,
 0,-2.745602,-0.516238,0.109383\C,0,-1.374616,0.021675,0.03905\C,0,-0.2
 15363,-0.608006,0.011437\H,0,-4.891095,-0.098025,-0.194701\H,0,-3.8371
 58,1.279009,-0.046145\H,0,-2.973411,-1.545417,0.103077\H,0,-1.403722,1
 .071049,0.163781\H,0,-0.276309,-1.731138,-0.032119\H,0,0.750612,-0.173
 365,-0.259299\\Version=ES64L-G09RevD.01\State=1-A\HF=-155.6839531\MP2=
 -155.9099419\RMSD=6.315e-09\PG=C01 [X(C4H6)]\\@

 Normal termination of Gaussian 09 at Wed Aug 26 15:33:20 2020.
