 Gaussian 09, Revision D.01,
 Gaussian 09:  ES64L-G09RevD.01 24-Apr-2013

 --------------------
 #p B2PLYPD3/Def2QZVP
 --------------------

 ---------
 butadiene
 ---------
 Symbolic Z-matrix:
 Charge =  0 Multiplicity = 1

                         Standard orientation:
 ---------------------------------------------------------------------
 Center     Atomic      Atomic             Coordinates (Angstroms)
 Number     Number       Type             X           Y           Z
 ---------------------------------------------------------------------
      1          6           0        1.851854    0.101939    0.018223
      2          6           0        0.608388   -0.392316   -0.013957
      3          6           0       -0.623067    0.415665   -0.029811
      4          6           0       -1.845193   -0.126880    0.005276
      5          1           0        2.724590   -0.534592    0.040379
      6          1           0        2.025630    1.174976    0.003832
      7          1           0        0.480604   -1.476052   -0.042178
      8          1           0       -0.469454    1.506308   -0.003058
      9          1           0       -1.995754   -1.184414    0.041211
     10          1           0       -2.717513    0.523323    0.081421
 ---------------------------------------------------------------------

 SCF Done:  E(RB2PLYPD3) =  -155.700170368     A.U. after   11 cycles
 E2(B2PLYPD3) =    -0.2259329853D+00 E(B2PLYPD3) =    -0.15592610335343D+03

 The electronic state is 1-A.
 Alpha  occ. eigenvalues --  -10.62999 -10.62728 -10.61629 -10.61562  -0.92595
 Alpha  occ. eigenvalues --   -0.84872  -0.69948  -0.63882  -0.54337  -0.53889
 Alpha  occ. eigenvalues --   -0.46806  -0.45643  -0.40891  -0.37869  -0.27775
 Alpha virt. eigenvalues --    0.01768   0.06989   0.07375   0.08042   0.09443
 Alpha virt. eigenvalues --    0.11668   0.12393   0.14661   0.15820   0.16082
 Alpha virt. eigenvalues --    0.18821   0.20510   0.21528   0.22925   0.23738

 Mulliken charges:
               1
     1  C   -0.177528
     2  C   -0.028675
     3  C   -0.035080
     4  C   -0.173604
     5  H    0.087426
     6  H    0.062880
     7  H    0.052269
     8  H    0.055221
     9  H    0.072127
    10  H    0.084964
 Sum of Mulliken charges =   0.00000

 Dipole moment (field-independent basis, Debye):
    X=             -0.0185    Y=             -0.0116    Z=              0.0823  Tot=              0.0852
 Quadrupole moment (field-independent basis, Debye-Ang):
   XX=            -23.5123   YY=            -23.0606   ZZ=            -29.3503
   XY=              0.1807   XZ=             -0.2396   YZ=              0.0328

 1\1\GINC-NODE25\SP\RB2PLYPD3-FC\def2QZVP\C4H6\BOITTIER\26-Aug-2020\0\\
 #p B2PLYPD3/Def2QZVP\\butadiene\\0,1\C,0,-3.857533,0.214165,0.001197\C
 ,0,-2.721488,-0.49201,0.048647\C,0,-1.366018,0.084343,0.039486\C,0,-0.
 259923,-0.667586,0.021195\H,0,-4.829573,-0.257495,-0.001247\H,0,-3.837
 843,1.300937,-0.017619\H,0,-2.788104,-1.579833,0.110387\H,0,-1.323585,
 1.183595,-0.021\H,0,-0.299822,-1.735639,0.017998\H,0,0.713595,-0.18539
 8,-0.075037\\Version=ES64L-G09RevD.01\State=1-A\HF=-155.7001704\MP2=-1
 55.9261034\RMSD=4.767e-09\PG=C01 [X(C4H6)]\\@

 Normal termination of Gaussian 09 at Wed Aug 26 21:23:05 2020.
