 Gaussian 09, Revision D.01,
 Gaussian 09:  ES64L-G09RevD.01 24-Apr-2013

 --------------------
 #p B2PLYPD3/Def2QZVP
 --------------------

 ---------
 butadiene
 ---------
 Symbolic Z-matrix:
 Charge =  0 Multiplicity = 1

                         Standard orientation:
 ---------------------------------------------------------------------
 Center     Atomic      Atomic             Coordinates (Angstroms)
 Number     Number       Type             X           Y           Z
 ---------------------------------------------------------------------
      1          6           0        1.808363   -0.125294   -0.060568
      2          6           0        0.588305    0.434140    0.074325
      3          6           0       -0.549795   -0.352203    0.027793
      4          6           0       -1.828340    0.076644   -0.030791
      5          1           0        2.801004    0.445527   -0.059761
      6          1           0        1.896577   -1.177677   -0.209443
      7          1           0        0.352121    1.506995    0.202356
      8          1           0       -0.435663   -1.408471    0.352933
      9          1           0       -2.135859    1.038311   -0.247187
     10          1           0       -2.589379   -0.604406   -0.103456
 ---------------------------------------------------------------------

 SCF Done:  E(RB2PLYPD3) =  -155.680047972     A.U. after   12 cycles
 E2(B2PLYPD3) =    -0.2270460986D+00 E(B2PLYPD3) =    -0.15590709407107D+03

 The electronic state is 1-A.
 Alpha  occ. eigenvalues --  -10.62635 -10.62511 -10.62186 -10.60305  -0.94051
 Alpha  occ. eigenvalues --   -0.84587  -0.71545  -0.64000  -0.54931  -0.54090
 Alpha  occ. eigenvalues --   -0.47051  -0.45262  -0.41794  -0.37724  -0.27139
 Alpha virt. eigenvalues --    0.00853   0.07155   0.07367   0.07840   0.09451
 Alpha virt. eigenvalues --    0.11580   0.12567   0.15084   0.15247   0.16216
 Alpha virt. eigenvalues --    0.18259   0.19609   0.21983   0.22747   0.24262

 Mulliken charges:
               1
     1  C   -0.166788
     2  C   -0.038253
     3  C   -0.018253
     4  C   -0.189232
     5  H    0.080615
     6  H    0.071835
     7  H    0.059369
     8  H    0.061183
     9  H    0.060867
    10  H    0.078656
 Sum of Mulliken charges =   0.00000

 Dipole moment (field-independent basis, Debye):
    X=              0.0384    Y=              0.0081    Z=             -0.0246  Tot=              0.0463
 Quadrupole moment (field-independent basis, Debye-Ang):
   XX=            -23.4369   YY=            -23.5138   ZZ=            -28.9554
   XY=             -0.4897   XZ=              0.1670   YZ=             -0.1215

 1\1\GINC-NODE35\SP\RB2PLYPD3-FC\def2QZVP\C4H6\BOITTIER\26-Aug-2020\0\\
 #p B2PLYPD3/Def2QZVP\\butadiene\\0,1\C,0,-3.799934,0.256323,-0.039274\
 C,0,-2.709283,-0.523034,0.11168\C,0,-1.441646,0.028452,0.042904\C,0,-0
 .269558,-0.639454,-0.003255\H,0,-4.883686,-0.112959,-0.022329\H,0,-3.6
 85245,1.301465,-0.218105\H,0,-2.6828,-1.617263,0.270279\H,0,-1.349113,
 1.095658,0.337781\H,0,-0.153559,-1.647957,-0.192103\H,0,0.607684,-0.11
 9567,-0.095204\\Version=ES64L-G09RevD.01\State=1-A\HF=-155.680048\MP2=
 -155.9070941\RMSD=5.114e-09\PG=C01 [X(C4H6)]\\@

 Normal termination of Gaussian 09 at Wed Aug 26 12:44:56 2020.
