 Gaussian 09, Revision D.01,
 Gaussian 09:  ES64L-G09RevD.01 24-Apr-2013

 --------------------
 #p B2PLYPD3/Def2QZVP
 --------------------

 ---------
 butadiene
 ---------
 Symbolic Z-matrix:
 Charge =  0 Multiplicity = 1

                         Standard orientation:
 ---------------------------------------------------------------------
 Center     Atomic      Atomic             Coordinates (Angstroms)
 Number     Number       Type             X           Y           Z
 ---------------------------------------------------------------------
      1          6           0       -1.820182    0.055085    0.059937
      2          6           0       -0.581665   -0.328313   -0.133092
      3          6           0        0.608741    0.429394   -0.037701
      4          6           0        1.804161   -0.156601    0.031992
      5          1           0       -2.666905   -0.551571    0.251665
      6          1           0       -1.941281    1.148382    0.067785
      7          1           0       -0.412502   -1.430028   -0.048903
      8          1           0        0.447786    1.500091   -0.135750
      9          1           0        1.909759   -1.170713    0.078403
     10          1           0        2.596812    0.506450    0.259981
 ---------------------------------------------------------------------

 SCF Done:  E(RB2PLYPD3) =  -155.684483952     A.U. after   11 cycles
 E2(B2PLYPD3) =    -0.2257413533D+00 E(B2PLYPD3) =    -0.15591022530557D+03

 The electronic state is 1-A.
 Alpha  occ. eigenvalues --  -10.62339 -10.61719 -10.61080 -10.60693  -0.94096
 Alpha  occ. eigenvalues --   -0.85603  -0.71066  -0.63923  -0.55305  -0.54511
 Alpha  occ. eigenvalues --   -0.47873  -0.45242  -0.40392  -0.38608  -0.27718
 Alpha virt. eigenvalues --    0.01592   0.07134   0.07382   0.08153   0.09717
 Alpha virt. eigenvalues --    0.11791   0.12570   0.14976   0.15227   0.16466
 Alpha virt. eigenvalues --    0.18599   0.19491   0.21929   0.23707   0.23784

 Mulliken charges:
               1
     1  C   -0.171779
     2  C   -0.004128
     3  C   -0.030635
     4  C   -0.177447
     5  H    0.094759
     6  H    0.045149
     7  H    0.029971
     8  H    0.052757
     9  H    0.078887
    10  H    0.082465
 Sum of Mulliken charges =   0.00000

 Dipole moment (field-independent basis, Debye):
    X=             -0.0040    Y=             -0.0006    Z=              0.3328  Tot=              0.3328
 Quadrupole moment (field-independent basis, Debye-Ang):
   XX=            -23.8594   YY=            -23.3106   ZZ=            -28.8467
   XY=              0.0125   XZ=             -0.0955   YZ=             -0.2312

 1\1\GINC-NODE17\SP\RB2PLYPD3-FC\def2QZVP\C4H6\BOITTIER\26-Aug-2020\0\\
 #p B2PLYPD3/Def2QZVP\\butadiene\\0,1\C,0,-3.832213,0.178636,0.087553\C
 ,0,-2.687163,-0.436915,-0.080184\C,0,-1.376953,0.093251,-0.029573\C,0,
 -0.308864,-0.697357,0.077203\H,0,-4.774006,-0.249298,0.314773\H,0,-3.7
 50365,1.274016,0.028667\H,0,-2.722397,-1.543865,0.071142\H,0,-1.339485
 ,1.167427,-0.192834\H,0,-0.390865,-1.708938,0.185406\H,0,0.594309,-0.1
 78932,0.265419\\Version=ES64L-G09RevD.01\State=1-A\HF=-155.684484\MP2=
 -155.9102253\RMSD=9.867e-09\PG=C01 [X(C4H6)]\\@

 Normal termination of Gaussian 09 at Wed Aug 26 12:51:20 2020.
