 Gaussian 09, Revision D.01,
 Gaussian 09:  ES64L-G09RevD.01 24-Apr-2013

 --------------------
 #p B2PLYPD3/Def2QZVP
 --------------------

 ---------
 butadiene
 ---------
 Symbolic Z-matrix:
 Charge =  0 Multiplicity = 1

                         Standard orientation:
 ---------------------------------------------------------------------
 Center     Atomic      Atomic             Coordinates (Angstroms)
 Number     Number       Type             X           Y           Z
 ---------------------------------------------------------------------
      1          6           0       -1.853669   -0.138172    0.010323
      2          6           0       -0.650865    0.432387   -0.028401
      3          6           0        0.601776   -0.363418   -0.030082
      4          6           0        1.885279    0.100429    0.040583
      5          1           0       -2.852036    0.370432    0.242354
      6          1           0       -1.810311   -1.230403   -0.166551
      7          1           0       -0.666387    1.512518   -0.057487
      8          1           0        0.564963   -1.396285    0.052052
      9          1           0        2.203818    1.147199   -0.090673
     10          1           0        2.664832   -0.590813    0.065770
 ---------------------------------------------------------------------

 SCF Done:  E(RB2PLYPD3) =  -155.682460875     A.U. after   11 cycles
 E2(B2PLYPD3) =    -0.2269192043D+00 E(B2PLYPD3) =    -0.15590938007884D+03

 The electronic state is 1-A.
 Alpha  occ. eigenvalues --  -10.63027 -10.62928 -10.62471 -10.61688  -0.92460
 Alpha  occ. eigenvalues --   -0.84956  -0.69573  -0.64327  -0.54452  -0.53852
 Alpha  occ. eigenvalues --   -0.46299  -0.44972  -0.41722  -0.37307  -0.27572
 Alpha virt. eigenvalues --    0.01352   0.06949   0.07659   0.07871   0.09104
 Alpha virt. eigenvalues --    0.11400   0.12491   0.14391   0.15764   0.16533
 Alpha virt. eigenvalues --    0.18709   0.19612   0.21634   0.22454   0.24344

 Mulliken charges:
               1
     1  C   -0.166734
     2  C   -0.031815
     3  C   -0.055312
     4  C   -0.171024
     5  H    0.091077
     6  H    0.056718
     7  H    0.063701
     8  H    0.066526
     9  H    0.067275
    10  H    0.079589
 Sum of Mulliken charges =   0.00000

 Dipole moment (field-independent basis, Debye):
    X=             -0.0606    Y=              0.0049    Z=              0.0004  Tot=              0.0608
 Quadrupole moment (field-independent basis, Debye-Ang):
   XX=            -23.1765   YY=            -23.3572   ZZ=            -29.3246
   XY=             -0.3780   XZ=             -0.4541   YZ=              0.0150

 1\1\GINC-NODE07\SP\RB2PLYPD3-FC\def2QZVP\C4H6\BOITTIER\26-Aug-2020\0\\
 #p B2PLYPD3/Def2QZVP\\butadiene\\0,1\C,0,-3.854045,0.232712,-0.00094\C
 ,0,-2.763291,-0.528736,0.064085\C,0,-1.395403,0.046483,0.043537\C,0,-0
 .207392,-0.627224,-0.004169\H,0,-4.923543,-0.110241,-0.219592\H,0,-3.6
 28816,1.308059,0.137025\H,0,-2.958831,-1.589382,0.131652\H,0,-1.25941,
 1.067377,-0.075615\H,0,-0.067877,-1.707045,0.165962\H,0,0.676564,-0.07
 708,-0.050172\\Version=ES64L-G09RevD.01\State=1-A\HF=-155.6824609\MP2=
 -155.9093801\RMSD=8.219e-09\PG=C01 [X(C4H6)]\\@

 Normal termination of Gaussian 09 at Wed Aug 26 11:26:22 2020.
