 Gaussian 09, Revision D.01,
 Gaussian 09:  ES64L-G09RevD.01 24-Apr-2013

 --------------------
 #p B2PLYPD3/Def2QZVP
 --------------------

 ---------
 butadiene
 ---------
 Symbolic Z-matrix:
 Charge =  0 Multiplicity = 1

                         Standard orientation:
 ---------------------------------------------------------------------
 Center     Atomic      Atomic             Coordinates (Angstroms)
 Number     Number       Type             X           Y           Z
 ---------------------------------------------------------------------
      1          6           0        1.841444    0.116821   -0.004431
      2          6           0        0.598218   -0.415267   -0.034617
      3          6           0       -0.608728    0.407226   -0.016875
      4          6           0       -1.822407   -0.117035    0.013760
      5          1           0        2.786558   -0.457433    0.091866
      6          1           0        1.954262    1.169355    0.037619
      7          1           0        0.480022   -1.476116    0.057017
      8          1           0       -0.572936    1.491385    0.036092
      9          1           0       -1.979386   -1.192926    0.011439
     10          1           0       -2.719681    0.515267    0.018948
 ---------------------------------------------------------------------

 SCF Done:  E(RB2PLYPD3) =  -155.696943441     A.U. after   11 cycles
 E2(B2PLYPD3) =    -0.2259756006D+00 E(B2PLYPD3) =    -0.15592291904185D+03

 The electronic state is 1-A.
 Alpha  occ. eigenvalues --  -10.62873 -10.62411 -10.61772 -10.61406  -0.92966
 Alpha  occ. eigenvalues --   -0.84819  -0.69684  -0.64414  -0.54417  -0.54042
 Alpha  occ. eigenvalues --   -0.46340  -0.45206  -0.41519  -0.38015  -0.27642
 Alpha virt. eigenvalues --    0.01805   0.07025   0.07474   0.07935   0.09336
 Alpha virt. eigenvalues --    0.11634   0.12588   0.14468   0.15844   0.16363
 Alpha virt. eigenvalues --    0.18797   0.20277   0.21623   0.22961   0.23914

 Mulliken charges:
               1
     1  C   -0.170484
     2  C   -0.042089
     3  C   -0.027018
     4  C   -0.171117
     5  H    0.080805
     6  H    0.065445
     7  H    0.064317
     8  H    0.057352
     9  H    0.062442
    10  H    0.080347
 Sum of Mulliken charges =   0.00000

 Dipole moment (field-independent basis, Debye):
    X=             -0.0314    Y=              0.0228    Z=              0.1963  Tot=              0.2001
 Quadrupole moment (field-independent basis, Debye-Ang):
   XX=            -23.4704   YY=            -23.1029   ZZ=            -29.2967
   XY=              0.0003   XZ=              0.3140   YZ=             -0.0402

 1\1\GINC-NODE34\SP\RB2PLYPD3-FC\def2QZVP\C4H6\BOITTIER\26-Aug-2020\0\\
 #p B2PLYPD3/Def2QZVP\\butadiene\\0,1\C,0,-3.843623,0.22309,0.013257\C,
 0,-2.712827,-0.517484,0.063177\C,0,-1.380461,0.080084,0.027949\C,0,-0.
 277426,-0.649295,0.016733\H,0,-4.874795,-0.179191,-0.071216\H,0,-3.770
 321,1.277539,-0.058063\H,0,-2.782384,-1.58476,0.001115\H,0,-1.225792,1
 .151864,-0.05483\H,0,-0.31137,-1.735566,0.049163\H,0,0.716745,-0.18431
 6,-0.002029\\Version=ES64L-G09RevD.01\State=1-A\HF=-155.6969434\MP2=-1
 55.922919\RMSD=5.356e-09\PG=C01 [X(C4H6)]\\@

 Normal termination of Gaussian 09 at Wed Aug 26 09:15:16 2020.
