 Gaussian 09, Revision D.01,
 Gaussian 09:  ES64L-G09RevD.01 24-Apr-2013

 --------------------
 #p B2PLYPD3/Def2QZVP
 --------------------

 ---------
 butadiene
 ---------
 Symbolic Z-matrix:
 Charge =  0 Multiplicity = 1

                         Standard orientation:
 ---------------------------------------------------------------------
 Center     Atomic      Atomic             Coordinates (Angstroms)
 Number     Number       Type             X           Y           Z
 ---------------------------------------------------------------------
      1          6           0        1.828275    0.118918   -0.004134
      2          6           0        0.615909   -0.406323    0.003770
      3          6           0       -0.602571    0.381200   -0.008921
      4          6           0       -1.840693   -0.109698    0.002215
      5          1           0        2.727649   -0.497188   -0.041628
      6          1           0        1.966182    1.208228    0.093187
      7          1           0        0.525853   -1.501256   -0.002783
      8          1           0       -0.479360    1.463775   -0.038889
      9          1           0       -2.055261   -1.133471    0.038256
     10          1           0       -2.690587    0.555330   -0.005721
 ---------------------------------------------------------------------

 SCF Done:  E(RB2PLYPD3) =  -155.699915953     A.U. after   11 cycles
 E2(B2PLYPD3) =    -0.2253276378D+00 E(B2PLYPD3) =    -0.15592524359129D+03

 The electronic state is 1-A.
 Alpha  occ. eigenvalues --  -10.62495 -10.62413 -10.61611 -10.60996  -0.93125
 Alpha  occ. eigenvalues --   -0.85206  -0.70139  -0.63920  -0.54678  -0.54148
 Alpha  occ. eigenvalues --   -0.46694  -0.45501  -0.40979  -0.38262  -0.27841
 Alpha virt. eigenvalues --    0.01885   0.06995   0.07431   0.07986   0.09738
 Alpha virt. eigenvalues --    0.11684   0.12426   0.14773   0.15884   0.16178
 Alpha virt. eigenvalues --    0.18777   0.20497   0.21638   0.22661   0.23902

 Mulliken charges:
               1
     1  C   -0.170533
     2  C   -0.030326
     3  C   -0.027553
     4  C   -0.177731
     5  H    0.085176
     6  H    0.062586
     7  H    0.052622
     8  H    0.053053
     9  H    0.069960
    10  H    0.082746
 Sum of Mulliken charges =   0.00000

 Dipole moment (field-independent basis, Debye):
    X=              0.0158    Y=             -0.0322    Z=              0.0423  Tot=              0.0555
 Quadrupole moment (field-independent basis, Debye-Ang):
   XX=            -23.4267   YY=            -23.1199   ZZ=            -29.1955
   XY=              0.0946   XZ=              0.0003   YZ=              0.0524

 1\1\GINC-NODE24\SP\RB2PLYPD3-FC\def2QZVP\C4H6\BOITTIER\26-Aug-2020\0\\
 #p B2PLYPD3/Def2QZVP\\butadiene\\0,1\C,0,-3.829704,0.228143,0.020857\C
 ,0,-2.729837,-0.503927,0.032499\C,0,-1.390898,0.054798,0.021716\C,0,-0
 .259601,-0.648171,0.029051\H,0,-4.823987,-0.216985,0.076794\H,0,-3.772
 486,1.320875,-0.112374\H,0,-2.8355,-1.596654,0.075103\H,0,-1.319912,1.
 142444,0.015954\H,0,-0.230269,-1.694395,0.026991\H,0,0.694848,-0.14466
 ,0.016822\\Version=ES64L-G09RevD.01\State=1-A\HF=-155.699916\MP2=-155.
 9252436\RMSD=5.311e-09\PG=C01 [X(C4H6)]\\@

 Normal termination of Gaussian 09 at Wed Aug 26 16:23:47 2020.
