 Gaussian 09, Revision D.01,
 Gaussian 09:  ES64L-G09RevD.01 24-Apr-2013

 --------------------
 #p B2PLYPD3/Def2QZVP
 --------------------

 ---------
 butadiene
 ---------
 Symbolic Z-matrix:
 Charge =  0 Multiplicity = 1

                         Standard orientation:
 ---------------------------------------------------------------------
 Center     Atomic      Atomic             Coordinates (Angstroms)
 Number     Number       Type             X           Y           Z
 ---------------------------------------------------------------------
      1          6           0        1.858416   -0.116935    0.028963
      2          6           0        0.611175    0.403960   -0.035332
      3          6           0       -0.618592   -0.412681   -0.040338
      4          6           0       -1.852056    0.103025    0.008232
      5          1           0        2.695338    0.556624   -0.053196
      6          1           0        2.064785   -1.177074    0.176208
      7          1           0        0.479118    1.511604   -0.026642
      8          1           0       -0.502981   -1.496900   -0.090458
      9          1           0       -1.982038    1.209529    0.147922
     10          1           0       -2.747881   -0.467995    0.077013
 ---------------------------------------------------------------------

 SCF Done:  E(RB2PLYPD3) =  -155.695892670     A.U. after   11 cycles
 E2(B2PLYPD3) =    -0.2266170339D+00 E(B2PLYPD3) =    -0.15592250970341D+03

 The electronic state is 1-A.
 Alpha  occ. eigenvalues --  -10.63426 -10.62943 -10.61900 -10.61827  -0.92340
 Alpha  occ. eigenvalues --   -0.84653  -0.69916  -0.63563  -0.54558  -0.53487
 Alpha  occ. eigenvalues --   -0.46633  -0.45288  -0.41027  -0.37637  -0.27634
 Alpha virt. eigenvalues --    0.01503   0.06997   0.07289   0.07997   0.09284
 Alpha virt. eigenvalues --    0.11567   0.12352   0.14561   0.15797   0.16304
 Alpha virt. eigenvalues --    0.18890   0.20068   0.21660   0.22680   0.23446

 Mulliken charges:
               1
     1  C   -0.178546
     2  C   -0.036846
     3  C   -0.034512
     4  C   -0.164767
     5  H    0.086495
     6  H    0.073170
     7  H    0.055775
     8  H    0.057567
     9  H    0.054031
    10  H    0.087634
 Sum of Mulliken charges =   0.00000

 Dipole moment (field-independent basis, Debye):
    X=             -0.0060    Y=             -0.0430    Z=              0.1689  Tot=              0.1744
 Quadrupole moment (field-independent basis, Debye-Ang):
   XX=            -23.4714   YY=            -23.1304   ZZ=            -29.4005
   XY=             -0.0948   XZ=             -0.2780   YZ=             -0.0519

 1\1\GINC-NODE29\SP\RB2PLYPD3-FC\def2QZVP\C4H6\BOITTIER\26-Aug-2020\0\\
 #p B2PLYPD3/Def2QZVP\\butadiene\\0,1\C,0,-3.86048,0.229402,0.047007\C,
 0,-2.726024,-0.506911,0.003113\C,0,-1.370505,0.077225,-0.021557\C,0,-0
 .248508,-0.648135,0.047155\H,0,-4.804088,-0.286564,-0.018211\H,0,-3.87
 4554,1.313288,0.161709\H,0,-2.793294,-1.619599,0.045409\H,0,-1.291285,
 1.162699,-0.104501\H,0,-0.317417,-1.755391,0.220349\H,0,0.734783,-0.24
 3912,0.102291\\Version=ES64L-G09RevD.01\State=1-A\HF=-155.6958927\MP2=
 -155.9225097\RMSD=6.389e-09\PG=C01 [X(C4H6)]\\@

 Normal termination of Gaussian 09 at Wed Aug 26 08:42:44 2020.
