 Gaussian 09, Revision D.01,
 Gaussian 09:  ES64L-G09RevD.01 24-Apr-2013

 --------------------
 #p B2PLYPD3/Def2QZVP
 --------------------

 ---------
 butadiene
 ---------
 Symbolic Z-matrix:
 Charge =  0 Multiplicity = 1

                         Standard orientation:
 ---------------------------------------------------------------------
 Center     Atomic      Atomic             Coordinates (Angstroms)
 Number     Number       Type             X           Y           Z
 ---------------------------------------------------------------------
      1          6           0        1.830888    0.103250    0.005044
      2          6           0        0.604420   -0.425687   -0.019077
      3          6           0       -0.590097    0.381386   -0.067231
      4          6           0       -1.830493   -0.096218    0.023793
      5          1           0        2.772237   -0.431628    0.116010
      6          1           0        1.886113    1.221436    0.048603
      7          1           0        0.458432   -1.466751   -0.004275
      8          1           0       -0.412152    1.478138    0.047605
      9          1           0       -2.084679   -1.101243    0.025774
     10          1           0       -2.708260    0.523663    0.111110
 ---------------------------------------------------------------------

 SCF Done:  E(RB2PLYPD3) =  -155.693882759     A.U. after   11 cycles
 E2(B2PLYPD3) =    -0.2259167744D+00 E(B2PLYPD3) =    -0.15591979953358D+03

 The electronic state is 1-A.
 Alpha  occ. eigenvalues --  -10.62790 -10.62206 -10.62012 -10.61024  -0.93298
 Alpha  occ. eigenvalues --   -0.84879  -0.70503  -0.64439  -0.55441  -0.53380
 Alpha  occ. eigenvalues --   -0.47220  -0.44925  -0.40999  -0.38336  -0.27664
 Alpha virt. eigenvalues --    0.01604   0.07006   0.07411   0.08129   0.09482
 Alpha virt. eigenvalues --    0.11619   0.12735   0.14628   0.15629   0.16465
 Alpha virt. eigenvalues --    0.18819   0.19997   0.22346   0.22899   0.23575

 Mulliken charges:
               1
     1  C   -0.163603
     2  C   -0.035821
     3  C   -0.018198
     4  C   -0.174500
     5  H    0.087646
     6  H    0.051391
     7  H    0.059210
     8  H    0.050357
     9  H    0.065489
    10  H    0.078030
 Sum of Mulliken charges =   0.00000

 Dipole moment (field-independent basis, Debye):
    X=             -0.0413    Y=             -0.1122    Z=              0.2523  Tot=              0.2792
 Quadrupole moment (field-independent basis, Debye-Ang):
   XX=            -23.1262   YY=            -23.4097   ZZ=            -29.1787
   XY=              0.2768   XZ=              0.0268   YZ=              0.1252

 1\1\GINC-NODE39\SP\RB2PLYPD3-FC\def2QZVP\C4H6\BOITTIER\26-Aug-2020\0\\
 #p B2PLYPD3/Def2QZVP\\butadiene\\0,1\C,0,-3.830162,0.226621,0.004262\C
 ,0,-2.7219,-0.517616,0.053735\C,0,-1.398981,0.056991,0.070118\C,0,-0.2
 68228,-0.644282,0.002391\H,0,-4.854492,-0.129976,-0.085917\H,0,-3.6788
 57,1.332986,-0.087113\H,0,-2.770127,-1.567435,0.083717\H,0,-1.372643,1
 .161887,-0.091834\H,0,-0.203401,-1.678092,0.043891\H,0,0.70814,-0.2009
 06,-0.109305\\Version=ES64L-G09RevD.01\State=1-A\HF=-155.6938828\MP2=-
 155.9197995\RMSD=4.873e-09\PG=C01 [X(C4H6)]\\@

 Normal termination of Gaussian 09 at Wed Aug 26 10:49:07 2020.
