 Gaussian 09, Revision D.01,
 Gaussian 09:  ES64L-G09RevD.01 24-Apr-2013

 --------------------
 #p B2PLYPD3/Def2QZVP
 --------------------

 ---------
 butadiene
 ---------
 Symbolic Z-matrix:
 Charge =  0 Multiplicity = 1

                         Standard orientation:
 ---------------------------------------------------------------------
 Center     Atomic      Atomic             Coordinates (Angstroms)
 Number     Number       Type             X           Y           Z
 ---------------------------------------------------------------------
      1          6           0        1.841961    0.093230    0.016687
      2          6           0        0.614069   -0.364343   -0.011203
      3          6           0       -0.618465    0.421460   -0.009760
      4          6           0       -1.836219   -0.138400   -0.003966
      5          1           0        2.746936   -0.539959   -0.000063
      6          1           0        2.025823    1.131398    0.068310
      7          1           0        0.520165   -1.431977   -0.119206
      8          1           0       -0.557473    1.514419   -0.059694
      9          1           0       -2.002786   -1.235655    0.144009
     10          1           0       -2.740744    0.490097    0.016097
 ---------------------------------------------------------------------

 SCF Done:  E(RB2PLYPD3) =  -155.696624751     A.U. after   11 cycles
 E2(B2PLYPD3) =    -0.2255889750D+00 E(B2PLYPD3) =    -0.15592221372621D+03

 The electronic state is 1-A.
 Alpha  occ. eigenvalues --  -10.63008 -10.62267 -10.62096 -10.60997  -0.92988
 Alpha  occ. eigenvalues --   -0.85179  -0.69705  -0.63969  -0.54390  -0.54083
 Alpha  occ. eigenvalues --   -0.46776  -0.44936  -0.40807  -0.38143  -0.28019
 Alpha virt. eigenvalues --    0.01896   0.06970   0.07477   0.07868   0.09633
 Alpha virt. eigenvalues --    0.11606   0.12419   0.14566   0.15779   0.16302
 Alpha virt. eigenvalues --    0.18884   0.20303   0.21557   0.22582   0.23694

 Mulliken charges:
               1
     1  C   -0.171671
     2  C   -0.020527
     3  C   -0.048580
     4  C   -0.165843
     5  H    0.082318
     6  H    0.061345
     7  H    0.057187
     8  H    0.058758
     9  H    0.066879
    10  H    0.080134
 Sum of Mulliken charges =   0.00000

 Dipole moment (field-independent basis, Debye):
    X=             -0.0077    Y=              0.0331    Z=              0.0407  Tot=              0.0530
 Quadrupole moment (field-independent basis, Debye-Ang):
   XX=            -23.3425   YY=            -23.2097   ZZ=            -29.2214
   XY=             -0.0044   XZ=             -0.2409   YZ=             -0.0305

 1\1\GINC-NODE26\SP\RB2PLYPD3-FC\def2QZVP\C4H6\BOITTIER\26-Aug-2020\0\\
 #p B2PLYPD3/Def2QZVP\\butadiene\\0,1\C,0,-3.850392,0.195314,0.005992\C
 ,0,-2.720455,-0.467686,0.045276\C,0,-1.370245,0.091841,0.023123\C,0,-0
 .26821,-0.670952,0.03138\H,0,-4.851453,-0.270463,0.039394\H,0,-3.85148
 9,1.247988,-0.072364\H,0,-2.812792,-1.532315,0.180784\H,0,-1.240338,1.
 179695,0.044834\H,0,-0.295364,-1.783857,-0.088264\H,0,0.731578,-0.2098
 ,-0.005213\\Version=ES64L-G09RevD.01\State=1-A\HF=-155.6966248\MP2=-15
 5.9222137\RMSD=6.139e-09\PG=C01 [X(C4H6)]\\@

 Normal termination of Gaussian 09 at Wed Aug 26 09:04:25 2020.
