 Gaussian 09, Revision D.01,
 Gaussian 09:  ES64L-G09RevD.01 24-Apr-2013

 --------------------
 #p B2PLYPD3/Def2QZVP
 --------------------

 ---------
 butadiene
 ---------
 Symbolic Z-matrix:
 Charge =  0 Multiplicity = 1

                         Standard orientation:
 ---------------------------------------------------------------------
 Center     Atomic      Atomic             Coordinates (Angstroms)
 Number     Number       Type             X           Y           Z
 ---------------------------------------------------------------------
      1          6           0        1.827851    0.094753    0.028241
      2          6           0        0.588617   -0.414455   -0.108213
      3          6           0       -0.593004    0.457205   -0.062202
      4          6           0       -1.799854   -0.118979    0.048731
      5          1           0        2.698403   -0.542565    0.209219
      6          1           0        2.050897    1.180436    0.206083
      7          1           0        0.409952   -1.453620    0.017342
      8          1           0       -0.507645    1.499879   -0.127577
      9          1           0       -1.911812   -1.159907    0.056489
     10          1           0       -2.881453    0.364628    0.199102
 ---------------------------------------------------------------------

 SCF Done:  E(RB2PLYPD3) =  -155.681240685     A.U. after   11 cycles
 E2(B2PLYPD3) =    -0.2270698507D+00 E(B2PLYPD3) =    -0.15590831053607D+03

 The electronic state is 1-A.
 Alpha  occ. eigenvalues --  -10.62893 -10.62688 -10.62306 -10.62183  -0.93018
 Alpha  occ. eigenvalues --   -0.84275  -0.69331  -0.65328  -0.54372  -0.53252
 Alpha  occ. eigenvalues --   -0.47056  -0.44431  -0.40830  -0.38003  -0.27486
 Alpha virt. eigenvalues --    0.01707   0.06936   0.07310   0.08006   0.08686
 Alpha virt. eigenvalues --    0.11397   0.12741   0.14225   0.15540   0.16848
 Alpha virt. eigenvalues --    0.18800   0.19957   0.22000   0.22426   0.24114

 Mulliken charges:
               1
     1  C   -0.163718
     2  C   -0.041434
     3  C   -0.036261
     4  C   -0.164935
     5  H    0.073644
     6  H    0.060442
     7  H    0.071299
     8  H    0.075434
     9  H    0.061509
    10  H    0.064020
 Sum of Mulliken charges =   0.00000

 Dipole moment (field-independent basis, Debye):
    X=             -0.0376    Y=             -0.0638    Z=              0.3719  Tot=              0.3793
 Quadrupole moment (field-independent basis, Debye-Ang):
   XX=            -23.7329   YY=            -23.2087   ZZ=            -29.2789
   XY=              0.5148   XZ=              0.4682   YZ=             -0.0901

 1\1\GINC-NODE07\SP\RB2PLYPD3-FC\def2QZVP\C4H6\BOITTIER\26-Aug-2020\0\\
 #p B2PLYPD3/Def2QZVP\\butadiene\\0,1\C,0,-3.829019,0.210925,-0.02521\C
 ,0,-2.704668,-0.514672,0.126303\C,0,-1.382982,0.12436,0.072255\C,0,-0.
 302205,-0.665383,-0.022649\H,0,-4.801384,-0.258791,-0.200315\H,0,-3.84
 8517,1.315875,-0.222161\H,0,-2.71957,-1.570982,0.018896\H,0,-1.275581,
 1.165955,0.119935\H,0,-0.383269,-1.709152,-0.012607\H,0,0.850141,-0.39
 119,-0.175169\\Version=ES64L-G09RevD.01\State=1-A\HF=-155.6812407\MP2=
 -155.9083105\RMSD=5.224e-09\PG=C01 [X(C4H6)]\\@

 Normal termination of Gaussian 09 at Wed Aug 26 15:29:04 2020.
