 Gaussian 09, Revision D.01,
 Gaussian 09:  ES64L-G09RevD.01 24-Apr-2013

 --------------------
 #p B2PLYPD3/Def2QZVP
 --------------------

 ---------
 butadiene
 ---------
 Symbolic Z-matrix:
 Charge =  0 Multiplicity = 1

                         Standard orientation:
 ---------------------------------------------------------------------
 Center     Atomic      Atomic             Coordinates (Angstroms)
 Number     Number       Type             X           Y           Z
 ---------------------------------------------------------------------
      1          6           0       -1.833457    0.104283   -0.002866
      2          6           0       -0.605504   -0.391388   -0.006451
      3          6           0        0.598737    0.416114    0.005972
      4          6           0        1.829186   -0.122585   -0.005570
      5          1           0       -2.680696   -0.574653   -0.008345
      6          1           0       -2.005030    1.163224    0.050234
      7          1           0       -0.425723   -1.462626   -0.029415
      8          1           0        0.487268    1.514898   -0.002012
      9          1           0        1.995176   -1.196914    0.092063
     10          1           0        2.695240    0.517520   -0.049033
 ---------------------------------------------------------------------

 SCF Done:  E(RB2PLYPD3) =  -155.700124862     A.U. after   11 cycles
 E2(B2PLYPD3) =    -0.2257857486D+00 E(B2PLYPD3) =    -0.15592591061055D+03

 The electronic state is 1-A.
 Alpha  occ. eigenvalues --  -10.62726 -10.62251 -10.61648 -10.61249  -0.93075
 Alpha  occ. eigenvalues --   -0.84906  -0.70035  -0.63883  -0.54366  -0.54046
 Alpha  occ. eigenvalues --   -0.46420  -0.45825  -0.41130  -0.38169  -0.27638
 Alpha virt. eigenvalues --    0.01799   0.07027   0.07309   0.08056   0.09566
 Alpha virt. eigenvalues --    0.11760   0.12317   0.14820   0.15858   0.16006
 Alpha virt. eigenvalues --    0.18690   0.20496   0.21448   0.22986   0.23922

 Mulliken charges:
               1
     1  C   -0.178778
     2  C   -0.024087
     3  C   -0.030906
     4  C   -0.179792
     5  H    0.085907
     6  H    0.070014
     7  H    0.053394
     8  H    0.051782
     9  H    0.067604
    10  H    0.084861
 Sum of Mulliken charges =   0.00000

 Dipole moment (field-independent basis, Debye):
    X=              0.0203    Y=              0.0029    Z=              0.0578  Tot=              0.0613
 Quadrupole moment (field-independent basis, Debye-Ang):
   XX=            -23.7387   YY=            -22.9732   ZZ=            -29.2727
   XY=             -0.1811   XZ=             -0.0362   YZ=             -0.0530

 1\1\GINC-NODE30\SP\RB2PLYPD3-FC\def2QZVP\C4H6\BOITTIER\26-Aug-2020\0\\
 #p B2PLYPD3/Def2QZVP\\butadiene\\0,1\C,0,-3.835065,0.219784,0.016358\C
 ,0,-2.717555,-0.490525,0.030593\C,0,-1.386666,0.084817,0.019351\C,0,-0
 .274547,-0.668487,0.027005\H,0,-4.791516,-0.293815,0.031051\H,0,-3.811
 283,1.293414,0.035473\H,0,-2.735374,-1.576781,0.042004\H,0,-1.296796,1
 .184763,-0.023753\H,0,-0.305991,-1.751469,0.159027\H,0,0.693153,-0.198
 017,-0.035338\\Version=ES64L-G09RevD.01\State=1-A\HF=-155.7001249\MP2=
 -155.9259106\RMSD=5.216e-09\PG=C01 [X(C4H6)]\\@

 Normal termination of Gaussian 09 at Wed Aug 26 21:04:36 2020.
