 Gaussian 09, Revision D.01,
 Gaussian 09:  ES64L-G09RevD.01 24-Apr-2013

 --------------------
 #p B2PLYPD3/Def2QZVP
 --------------------

 ---------
 butadiene
 ---------
 Symbolic Z-matrix:
 Charge =  0 Multiplicity = 1

                         Standard orientation:
 ---------------------------------------------------------------------
 Center     Atomic      Atomic             Coordinates (Angstroms)
 Number     Number       Type             X           Y           Z
 ---------------------------------------------------------------------
      1          6           0       -1.862958    0.079959    0.029658
      2          6           0       -0.604801   -0.356414   -0.080676
      3          6           0        0.605834    0.445267   -0.061864
      4          6           0        1.809895   -0.159485    0.073484
      5          1           0       -2.611729   -0.629591    0.345949
      6          1           0       -2.149460    1.065826    0.006102
      7          1           0       -0.363175   -1.388368   -0.189431
      8          1           0        0.606257    1.573912   -0.049379
      9          1           0        2.089060   -1.165099   -0.008985
     10          1           0        2.741221    0.487355    0.132128
 ---------------------------------------------------------------------

 SCF Done:  E(RB2PLYPD3) =  -155.682870019     A.U. after   11 cycles
 E2(B2PLYPD3) =    -0.2266456918D+00 E(B2PLYPD3) =    -0.15590951571109D+03

 The electronic state is 1-A.
 Alpha  occ. eigenvalues --  -10.63497 -10.62514 -10.62061 -10.60840  -0.92906
 Alpha  occ. eigenvalues --   -0.84745  -0.70733  -0.64422  -0.54574  -0.54126
 Alpha  occ. eigenvalues --   -0.46572  -0.45741  -0.41266  -0.37405  -0.27298
 Alpha virt. eigenvalues --    0.01248   0.06881   0.07517   0.07896   0.09212
 Alpha virt. eigenvalues --    0.11576   0.12484   0.14946   0.15625   0.16433
 Alpha virt. eigenvalues --    0.18918   0.19382   0.22293   0.22979   0.23716

 Mulliken charges:
               1
     1  C   -0.179513
     2  C   -0.032171
     3  C   -0.037725
     4  C   -0.169217
     5  H    0.079455
     6  H    0.075680
     7  H    0.069334
     8  H    0.060256
     9  H    0.072934
    10  H    0.060968
 Sum of Mulliken charges =   0.00000

 Dipole moment (field-independent basis, Debye):
    X=              0.1300    Y=             -0.0146    Z=              0.0936  Tot=              0.1609
 Quadrupole moment (field-independent basis, Debye-Ang):
   XX=            -23.7641   YY=            -23.0927   ZZ=            -29.1417
   XY=             -0.6933   XZ=             -0.6519   YZ=             -0.0368

 1\1\GINC-NODE06\SP\RB2PLYPD3-FC\def2QZVP\C4H6\BOITTIER\26-Aug-2020\0\\
 #p B2PLYPD3/Def2QZVP\\butadiene\\0,1\C,0,-3.863457,0.203651,0.061261\C
 ,0,-2.707117,-0.459062,-0.034878\C,0,-1.37056,0.10835,-0.053374\C,0,-0
 .295436,-0.699993,0.103139\H,0,-4.725512,-0.34401,0.409238\H,0,-3.9657
 96,1.223478,-0.002393\H,0,-2.658723,-1.521314,-0.101356\H,0,-1.164393,
 1.217539,-0.087891\H,0,-0.205051,-1.742158,0.061706\H,0,0.738723,-0.23
 2121,0.13179\\Version=ES64L-G09RevD.01\State=1-A\HF=-155.68287\MP2=-15
 5.9095157\RMSD=8.536e-09\PG=C01 [X(C4H6)]\\@

 Normal termination of Gaussian 09 at Wed Aug 26 13:20:26 2020.
