 Gaussian 09, Revision D.01,
 Gaussian 09:  ES64L-G09RevD.01 24-Apr-2013

 --------------------
 #p B2PLYPD3/Def2QZVP
 --------------------

 ---------
 butadiene
 ---------
 Symbolic Z-matrix:
 Charge =  0 Multiplicity = 1

                         Standard orientation:
 ---------------------------------------------------------------------
 Center     Atomic      Atomic             Coordinates (Angstroms)
 Number     Number       Type             X           Y           Z
 ---------------------------------------------------------------------
      1          6           0        1.851031    0.086911    0.017285
      2          6           0        0.626450   -0.375899   -0.009738
      3          6           0       -0.612359    0.420341   -0.043498
      4          6           0       -1.849194   -0.126613    0.042700
      5          1           0        2.749143   -0.536937   -0.014501
      6          1           0        2.016358    1.192894    0.094601
      7          1           0        0.484709   -1.454253   -0.069956
      8          1           0       -0.537950    1.489335   -0.050799
      9          1           0       -2.061990   -1.186573    0.021542
     10          1           0       -2.745840    0.467092   -0.021375
 ---------------------------------------------------------------------

 SCF Done:  E(RB2PLYPD3) =  -155.696839956     A.U. after   11 cycles
 E2(B2PLYPD3) =    -0.2257983601D+00 E(B2PLYPD3) =    -0.15592263831614D+03

 The electronic state is 1-A.
 Alpha  occ. eigenvalues --  -10.63084 -10.62391 -10.61860 -10.61686  -0.92706
 Alpha  occ. eigenvalues --   -0.84999  -0.70011  -0.63985  -0.54744  -0.53565
 Alpha  occ. eigenvalues --   -0.47227  -0.44972  -0.40633  -0.37967  -0.27975
 Alpha virt. eigenvalues --    0.01727   0.06974   0.07447   0.08021   0.09580
 Alpha virt. eigenvalues --    0.11533   0.12451   0.14520   0.15822   0.16355
 Alpha virt. eigenvalues --    0.18996   0.20194   0.21714   0.22617   0.23529

 Mulliken charges:
               1
     1  C   -0.168317
     2  C   -0.023060
     3  C   -0.048690
     4  C   -0.164719
     5  H    0.088564
     6  H    0.056447
     7  H    0.054603
     8  H    0.062479
     9  H    0.064333
    10  H    0.078359
 Sum of Mulliken charges =   0.00000

 Dipole moment (field-independent basis, Debye):
    X=             -0.0384    Y=             -0.0254    Z=             -0.0756  Tot=              0.0885
 Quadrupole moment (field-independent basis, Debye-Ang):
   XX=            -23.1426   YY=            -23.2698   ZZ=            -29.2983
   XY=              0.1185   XZ=              0.1342   YZ=              0.1151

 1\1\GINC-NODE40\SP\RB2PLYPD3-FC\def2QZVP\C4H6\BOITTIER\26-Aug-2020\0\\
 #p B2PLYPD3/Def2QZVP\\butadiene\\0,1\C,0,-3.857085,0.196593,-0.000491\
 C,0,-2.73347,-0.474012,0.047474\C,0,-1.373354,0.091495,0.056041\C,0,-0
 .252917,-0.668189,-0.006012\H,0,-4.85119,-0.25715,0.05123\H,0,-3.82463
 6,1.310794,-0.118856\H,0,-2.784308,-1.557498,0.147663\H,0,-1.257677,1.
 156353,0.023888\H,0,-0.230696,-1.747571,0.0547\H,0,0.734733,-0.24032,0
 .039163\\Version=ES64L-G09RevD.01\State=1-A\HF=-155.69684\MP2=-155.922
 6383\RMSD=6.520e-09\PG=C01 [X(C4H6)]\\@

 Normal termination of Gaussian 09 at Wed Aug 26 09:22:51 2020.
