 Gaussian 09, Revision D.01,
 Gaussian 09:  ES64L-G09RevD.01 24-Apr-2013

 --------------------
 #p B2PLYPD3/Def2QZVP
 --------------------

 ---------
 butadiene
 ---------
 Symbolic Z-matrix:
 Charge =  0 Multiplicity = 1

                         Standard orientation:
 ---------------------------------------------------------------------
 Center     Atomic      Atomic             Coordinates (Angstroms)
 Number     Number       Type             X           Y           Z
 ---------------------------------------------------------------------
      1          6           0        1.835987   -0.118260   -0.025807
      2          6           0        0.598997    0.414383    0.028503
      3          6           0       -0.602379   -0.391386    0.002754
      4          6           0       -1.834011    0.096104   -0.012555
      5          1           0        2.698506    0.497289    0.019396
      6          1           0        1.969024   -1.196313   -0.055541
      7          1           0        0.484141    1.475103    0.061409
      8          1           0       -0.459823   -1.456370    0.086910
      9          1           0       -1.951816    1.193554   -0.088569
     10          1           0       -2.731595   -0.518310    0.019024
 ---------------------------------------------------------------------

 SCF Done:  E(RB2PLYPD3) =  -155.699715815     A.U. after   11 cycles
 E2(B2PLYPD3) =    -0.2257364835D+00 E(B2PLYPD3) =    -0.15592545229854D+03

 The electronic state is 1-A.
 Alpha  occ. eigenvalues --  -10.62461 -10.62146 -10.61618 -10.61512  -0.93170
 Alpha  occ. eigenvalues --   -0.84880  -0.70119  -0.64286  -0.54719  -0.53933
 Alpha  occ. eigenvalues --   -0.46746  -0.45477  -0.41373  -0.38149  -0.27623
 Alpha virt. eigenvalues --    0.01702   0.07055   0.07425   0.08088   0.09589
 Alpha virt. eigenvalues --    0.11695   0.12489   0.14619   0.15792   0.16238
 Alpha virt. eigenvalues --    0.18737   0.20332   0.21536   0.22871   0.23944

 Mulliken charges:
               1
     1  C   -0.176929
     2  C   -0.037150
     3  C   -0.021824
     4  C   -0.176257
     5  H    0.087721
     6  H    0.065925
     7  H    0.056838
     8  H    0.054050
     9  H    0.058673
    10  H    0.088952
 Sum of Mulliken charges =   0.00000

 Dipole moment (field-independent basis, Debye):
    X=              0.0187    Y=             -0.0044    Z=              0.0611  Tot=              0.0641
 Quadrupole moment (field-independent basis, Debye-Ang):
   XX=            -23.5061   YY=            -23.1307   ZZ=            -29.2416
   XY=              0.0404   XZ=              0.0307   YZ=             -0.0764

 1\1\GINC-NODE39\SP\RB2PLYPD3-FC\def2QZVP\C4H6\BOITTIER\26-Aug-2020\0\\
 #p B2PLYPD3/Def2QZVP\\butadiene\\0,1\C,0,-3.836905,0.231446,-0.004916\
 C,0,-2.715973,-0.513944,0.063701\C,0,-1.389159,0.061307,0.020306\C,0,-
 0.265572,-0.640365,0.018239\H,0,-4.796077,-0.217354,0.053833\H,0,-3.77
 3611,1.314812,-0.060533\H,0,-2.794017,-1.576914,0.122052\H,0,-1.33724,
 1.136237,0.078845\H,0,-0.347662,-1.742567,-0.031418\H,0,0.728118,-0.19
 718,0.036323\\Version=ES64L-G09RevD.01\State=1-A\HF=-155.6997158\MP2=-
 155.9254523\RMSD=6.253e-09\PG=C01 [X(C4H6)]\\@

 Normal termination of Gaussian 09 at Wed Aug 26 20:12:56 2020.
