 Gaussian 09, Revision D.01,
 Gaussian 09:  ES64L-G09RevD.01 24-Apr-2013

 --------------------
 #p B2PLYPD3/Def2QZVP
 --------------------

 ---------
 butadiene
 ---------
 Symbolic Z-matrix:
 Charge =  0 Multiplicity = 1

                         Standard orientation:
 ---------------------------------------------------------------------
 Center     Atomic      Atomic             Coordinates (Angstroms)
 Number     Number       Type             X           Y           Z
 ---------------------------------------------------------------------
      1          6           0       -1.833896   -0.154351    0.026245
      2          6           0       -0.602007    0.424423   -0.054872
      3          6           0        0.598775   -0.367657   -0.052396
      4          6           0        1.859096    0.087248    0.085351
      5          1           0       -2.696079    0.562463    0.282662
      6          1           0       -2.091193   -1.147045   -0.054736
      7          1           0       -0.624127    1.566948   -0.151009
      8          1           0        0.398243   -1.429340   -0.056553
      9          1           0        2.192299    1.049756   -0.054862
     10          1           0        2.689049   -0.540759    0.008530
 ---------------------------------------------------------------------

 SCF Done:  E(RB2PLYPD3) =  -155.676599833     A.U. after   11 cycles
 E2(B2PLYPD3) =    -0.2272568510D+00 E(B2PLYPD3) =    -0.15590385668432D+03

 The electronic state is 1-A.
 Alpha  occ. eigenvalues --  -10.63656 -10.62978 -10.62249 -10.60567  -0.92830
 Alpha  occ. eigenvalues --   -0.84661  -0.71317  -0.64250  -0.54558  -0.54448
 Alpha  occ. eigenvalues --   -0.46143  -0.45468  -0.41442  -0.37570  -0.27145
 Alpha virt. eigenvalues --    0.00782   0.06841   0.07465   0.07789   0.09260
 Alpha virt. eigenvalues --    0.11501   0.12622   0.14928   0.15754   0.16593
 Alpha virt. eigenvalues --    0.18834   0.19206   0.22443   0.23213   0.23648

 Mulliken charges:
               1
     1  C   -0.179892
     2  C   -0.023351
     3  C   -0.045664
     4  C   -0.155777
     5  H    0.068046
     6  H    0.080387
     7  H    0.061427
     8  H    0.063301
     9  H    0.063218
    10  H    0.068305
 Sum of Mulliken charges =   0.00000

 Dipole moment (field-independent basis, Debye):
    X=             -0.0703    Y=             -0.0483    Z=             -0.1459  Tot=              0.1690
 Quadrupole moment (field-independent basis, Debye-Ang):
   XX=            -23.4738   YY=            -23.1892   ZZ=            -29.2347
   XY=              0.5688   XZ=             -0.7289   YZ=              0.0551

 1\1\GINC-NODE29\SP\RB2PLYPD3-FC\def2QZVP\C4H6\BOITTIER\26-Aug-2020\0\\
 #p B2PLYPD3/Def2QZVP\\butadiene\\0,1\C,0,-3.830093,0.266407,-0.019796\
 C,0,-2.723464,-0.522379,0.091093\C,0,-1.399088,0.038716,0.069318\C,0,-
 0.241872,-0.641447,-0.042718\H,0,-4.807613,-0.291417,-0.256903\H,0,-3.
 903426,1.291552,0.023807\H,0,-2.952217,-1.637768,0.227752\H,0,-1.40403
 3,1.118595,0.034111\H,0,-0.088615,-1.642603,0.134215\H,0,0.688023,-0.1
 71614,0.017839\\Version=ES64L-G09RevD.01\State=1-A\HF=-155.6765998\MP2
 =-155.9038567\RMSD=8.848e-09\PG=C01 [X(C4H6)]\\@

 Normal termination of Gaussian 09 at Wed Aug 26 14:04:02 2020.
