 Gaussian 09, Revision D.01,
 Gaussian 09:  ES64L-G09RevD.01 24-Apr-2013

 --------------------
 #p B2PLYPD3/Def2QZVP
 --------------------

 ---------
 butadiene
 ---------
 Symbolic Z-matrix:
 Charge =  0 Multiplicity = 1

                         Standard orientation:
 ---------------------------------------------------------------------
 Center     Atomic      Atomic             Coordinates (Angstroms)
 Number     Number       Type             X           Y           Z
 ---------------------------------------------------------------------
      1          6           0        1.847345    0.112612   -0.003470
      2          6           0        0.619043   -0.412709   -0.001039
      3          6           0       -0.608412    0.397517    0.015883
      4          6           0       -1.847065   -0.108611   -0.015278
      5          1           0        2.722911   -0.516600   -0.007728
      6          1           0        2.004929    1.209990   -0.043579
      7          1           0        0.456527   -1.471903    0.061574
      8          1           0       -0.506027    1.478344    0.031041
      9          1           0       -2.040013   -1.171663   -0.032184
     10          1           0       -2.703795    0.538979    0.014295
 ---------------------------------------------------------------------

 SCF Done:  E(RB2PLYPD3) =  -155.700449298     A.U. after   11 cycles
 E2(B2PLYPD3) =    -0.2257493004D+00 E(B2PLYPD3) =    -0.15592619859829D+03

 The electronic state is 1-A.
 Alpha  occ. eigenvalues --  -10.62663 -10.62606 -10.61862 -10.61401  -0.92673
 Alpha  occ. eigenvalues --   -0.84878  -0.69986  -0.64093  -0.54539  -0.53782
 Alpha  occ. eigenvalues --   -0.46809  -0.45602  -0.41031  -0.37878  -0.27775
 Alpha virt. eigenvalues --    0.01798   0.07005   0.07407   0.08093   0.09470
 Alpha virt. eigenvalues --    0.11654   0.12363   0.14653   0.15778   0.16196
 Alpha virt. eigenvalues --    0.18836   0.20374   0.21610   0.22811   0.23844

 Mulliken charges:
               1
     1  C   -0.171509
     2  C   -0.039970
     3  C   -0.028370
     4  C   -0.177677
     5  H    0.086918
     6  H    0.066504
     7  H    0.060305
     8  H    0.054362
     9  H    0.064582
    10  H    0.084854
 Sum of Mulliken charges =   0.00000

 Dipole moment (field-independent basis, Debye):
    X=              0.0051    Y=             -0.0151    Z=              0.0295  Tot=              0.0336
 Quadrupole moment (field-independent basis, Debye-Ang):
   XX=            -23.4722   YY=            -23.0493   ZZ=            -29.3239
   XY=              0.1572   XZ=             -0.0657   YZ=             -0.0484

 1\1\GINC-NODE34\SP\RB2PLYPD3-FC\def2QZVP\C4H6\BOITTIER\26-Aug-2020\0\\
 #p B2PLYPD3/Def2QZVP\\butadiene\\0,1\C,0,-3.847888,0.227468,0.022583\C
 ,0,-2.73345,-0.509131,0.034647\C,0,-1.38087,0.067625,-0.001086\C,0,-0.
 252701,-0.651118,0.044093\H,0,-4.821909,-0.234555,0.04154\H,0,-3.80639
 3,1.335981,0.03513\H,0,-2.763335,-1.581528,-0.001344\H,0,-1.288215,1.1
 48611,-0.043312\H,0,-0.253069,-1.73079,0.087727\H,0,0.705993,-0.168275
 ,-0.000651\\Version=ES64L-G09RevD.01\State=1-A\HF=-155.7004493\MP2=-15
 5.9261986\RMSD=2.388e-09\PG=C01 [X(C4H6)]\\@

 Normal termination of Gaussian 09 at Wed Aug 26 15:56:01 2020.
