 Gaussian 09, Revision D.01,
 Gaussian 09:  ES64L-G09RevD.01 24-Apr-2013

 --------------------
 #p B2PLYPD3/Def2QZVP
 --------------------

 ---------
 butadiene
 ---------
 Symbolic Z-matrix:
 Charge =  0 Multiplicity = 1

                         Standard orientation:
 ---------------------------------------------------------------------
 Center     Atomic      Atomic             Coordinates (Angstroms)
 Number     Number       Type             X           Y           Z
 ---------------------------------------------------------------------
      1          6           0        1.848432    0.132425    0.004072
      2          6           0        0.633276   -0.421830   -0.036178
      3          6           0       -0.619075    0.378715   -0.060510
      4          6           0       -1.856301   -0.104345    0.024743
      5          1           0        2.684840   -0.497131    0.097005
      6          1           0        1.967399    1.224027    0.124208
      7          1           0        0.540577   -1.479533    0.061017
      8          1           0       -0.529803    1.480752   -0.025013
      9          1           0       -1.989737   -1.164161   -0.001621
     10          1           0       -2.711271    0.526255    0.151643
 ---------------------------------------------------------------------

 SCF Done:  E(RB2PLYPD3) =  -155.696162690     A.U. after   11 cycles
 E2(B2PLYPD3) =    -0.2256025702D+00 E(B2PLYPD3) =    -0.15592176526055D+03

 The electronic state is 1-A.
 Alpha  occ. eigenvalues --  -10.62796 -10.62737 -10.61482 -10.61099  -0.92560
 Alpha  occ. eigenvalues --   -0.85300  -0.69860  -0.63927  -0.54668  -0.54168
 Alpha  occ. eigenvalues --   -0.46860  -0.45520  -0.41122  -0.37688  -0.27937
 Alpha virt. eigenvalues --    0.01866   0.07041   0.07458   0.08064   0.09376
 Alpha virt. eigenvalues --    0.11689   0.12466   0.14530   0.15795   0.16293
 Alpha virt. eigenvalues --    0.18879   0.20250   0.21452   0.23090   0.23998

 Mulliken charges:
               1
     1  C   -0.166912
     2  C   -0.048315
     3  C   -0.020947
     4  C   -0.179395
     5  H    0.085659
     6  H    0.068470
     7  H    0.059357
     8  H    0.048094
     9  H    0.064113
    10  H    0.089876
 Sum of Mulliken charges =   0.00000

 Dipole moment (field-independent basis, Debye):
    X=              0.0125    Y=             -0.0432    Z=              0.3159  Tot=              0.3191
 Quadrupole moment (field-independent basis, Debye-Ang):
   XX=            -23.5878   YY=            -23.0606   ZZ=            -29.2254
   XY=             -0.1454   XZ=              0.1208   YZ=              0.1091

 1\1\GINC-NODE06\SP\RB2PLYPD3-FC\def2QZVP\C4H6\BOITTIER\26-Aug-2020\0\\
 #p B2PLYPD3/Def2QZVP\\butadiene\\0,1\C,0,-3.849004,0.234123,0.002499\C
 ,0,-2.747113,-0.518946,0.066877\C,0,-1.375685,0.054666,0.065002\C,0,-0
 .240257,-0.63678,0.001378\H,0,-4.78153,-0.245242,-0.069344\H,0,-3.7789
 3,1.324689,-0.158549\H,0,-2.838007,-1.579706,0.009407\H,0,-1.274263,1.
 153545,-0.011769\H,0,-0.290945,-1.70203,0.067578\H,0,0.709952,-0.16775
 3,-0.146444\\Version=ES64L-G09RevD.01\State=1-A\HF=-155.6961627\MP2=-1
 55.9217653\RMSD=5.584e-09\PG=C01 [X(C4H6)]\\@

 Normal termination of Gaussian 09 at Wed Aug 26 10:48:27 2020.
