 Gaussian 09, Revision D.01,
 Gaussian 09:  ES64L-G09RevD.01 24-Apr-2013

 --------------------
 #p B2PLYPD3/Def2QZVP
 --------------------

 ---------
 butadiene
 ---------
 Symbolic Z-matrix:
 Charge =  0 Multiplicity = 1

                         Standard orientation:
 ---------------------------------------------------------------------
 Center     Atomic      Atomic             Coordinates (Angstroms)
 Number     Number       Type             X           Y           Z
 ---------------------------------------------------------------------
      1          6           0        1.837473    0.122637   -0.028689
      2          6           0        0.613884   -0.415001    0.004302
      3          6           0       -0.596135    0.392991    0.035858
      4          6           0       -1.851519   -0.106155   -0.010237
      5          1           0        2.650134   -0.590830   -0.020188
      6          1           0        2.049131    1.210333   -0.051929
      7          1           0        0.460228   -1.464626    0.172384
      8          1           0       -0.445122    1.486222    0.085558
      9          1           0       -2.012271   -1.168501   -0.130309
     10          1           0       -2.724323    0.560574   -0.062923
 ---------------------------------------------------------------------

 SCF Done:  E(RB2PLYPD3) =  -155.696230029     A.U. after   11 cycles
 E2(B2PLYPD3) =    -0.2265455249D+00 E(B2PLYPD3) =    -0.15592277555381D+03

 The electronic state is 1-A.
 Alpha  occ. eigenvalues --  -10.62821 -10.62490 -10.61939 -10.61845  -0.92793
 Alpha  occ. eigenvalues --   -0.84591  -0.69967  -0.63835  -0.54106  -0.53716
 Alpha  occ. eigenvalues --   -0.46713  -0.45533  -0.41101  -0.37751  -0.27552
 Alpha virt. eigenvalues --    0.01547   0.07016   0.07323   0.07979   0.09331
 Alpha virt. eigenvalues --    0.11690   0.12232   0.14786   0.15390   0.16094
 Alpha virt. eigenvalues --    0.18672   0.20181   0.21500   0.22861   0.23802

 Mulliken charges:
               1
     1  C   -0.178720
     2  C   -0.037457
     3  C   -0.028991
     4  C   -0.180831
     5  H    0.082697
     6  H    0.076419
     7  H    0.063900
     8  H    0.051258
     9  H    0.066014
    10  H    0.085709
 Sum of Mulliken charges =   0.00000

 Dipole moment (field-independent basis, Debye):
    X=              0.0672    Y=             -0.0016    Z=              0.0096  Tot=              0.0679
 Quadrupole moment (field-independent basis, Debye-Ang):
   XX=            -23.8732   YY=            -22.9551   ZZ=            -29.3605
   XY=              0.2479   XZ=              0.3728   YZ=             -0.0616

 1\1\GINC-NODE24\SP\RB2PLYPD3-FC\def2QZVP\C4H6\BOITTIER\26-Aug-2020\0\\
 #p B2PLYPD3/Def2QZVP\\butadiene\\0,1\C,0,-3.835864,0.240671,0.041337\C
 ,0,-2.73038,-0.510996,0.02669\C,0,-1.393632,0.062674,-0.018067\C,0,-0.
 249916,-0.655044,0.0456\H,0,-4.764675,-0.313238,0.045706\H,0,-3.846284
 ,1.34896,0.038127\H,0,-2.770021,-1.574774,-0.116064\H,0,-1.343384,1.16
 3643,-0.09404\H,0,-0.284999,-1.725741,0.191248\H,0,0.729525,-0.156956,
 0.086779\\Version=ES64L-G09RevD.01\State=1-A\HF=-155.69623\MP2=-155.92
 27756\RMSD=2.873e-09\PG=C01 [X(C4H6)]\\@

 Normal termination of Gaussian 09 at Wed Aug 26 08:51:19 2020.
