 Gaussian 09, Revision D.01,
 Gaussian 09:  ES64L-G09RevD.01 24-Apr-2013

 --------------------
 #p B2PLYPD3/Def2QZVP
 --------------------

 ---------
 butadiene
 ---------
 Symbolic Z-matrix:
 Charge =  0 Multiplicity = 1

                         Standard orientation:
 ---------------------------------------------------------------------
 Center     Atomic      Atomic             Coordinates (Angstroms)
 Number     Number       Type             X           Y           Z
 ---------------------------------------------------------------------
      1          6           0        1.837938    0.057491   -0.098885
      2          6           0        0.593850   -0.348515    0.071709
      3          6           0       -0.584186    0.443316    0.061288
      4          6           0       -1.819376   -0.137224   -0.050320
      5          1           0        2.615910   -0.621914    0.077764
      6          1           0        2.070368    1.131925   -0.098368
      7          1           0        0.300965   -1.363891    0.122342
      8          1           0       -0.481532    1.484609    0.220855
      9          1           0       -1.977675   -1.212606   -0.052254
     10          1           0       -2.697394    0.491472   -0.173091
 ---------------------------------------------------------------------

 SCF Done:  E(RB2PLYPD3) =  -155.689071273     A.U. after   12 cycles
 E2(B2PLYPD3) =    -0.2263720070D+00 E(B2PLYPD3) =    -0.15591544328023D+03

 The electronic state is 1-A.
 Alpha  occ. eigenvalues --  -10.62458 -10.62342 -10.61558 -10.60902  -0.93672
 Alpha  occ. eigenvalues --   -0.84672  -0.71007  -0.64671  -0.54857  -0.53648
 Alpha  occ. eigenvalues --   -0.47207  -0.45951  -0.41391  -0.37929  -0.27339
 Alpha virt. eigenvalues --    0.01041   0.07047   0.07468   0.08163   0.09697
 Alpha virt. eigenvalues --    0.11714   0.12436   0.14965   0.15359   0.16524
 Alpha virt. eigenvalues --    0.18651   0.19392   0.21989   0.23112   0.23820

 Mulliken charges:
               1
     1  C   -0.168787
     2  C   -0.026121
     3  C   -0.032893
     4  C   -0.185546
     5  H    0.083657
     6  H    0.058371
     7  H    0.052943
     8  H    0.064331
     9  H    0.070697
    10  H    0.083351
 Sum of Mulliken charges =   0.00000

 Dipole moment (field-independent basis, Debye):
    X=             -0.1723    Y=              0.0085    Z=              0.1965  Tot=              0.2615
 Quadrupole moment (field-independent basis, Debye-Ang):
   XX=            -23.7941   YY=            -23.1754   ZZ=            -29.1066
   XY=              0.3985   XZ=              0.6235   YZ=             -0.0707

 1\1\GINC-NODE15\SP\RB2PLYPD3-FC\def2QZVP\C4H6\BOITTIER\26-Aug-2020\0\\
 #p B2PLYPD3/Def2QZVP\\butadiene\\0,1\C,0,-3.842485,0.194708,0.106711\C
 ,0,-2.699066,-0.448134,-0.03836\C,0,-1.391571,0.104194,-0.054617\C,0,-
 0.289619,-0.695837,0.08971\H,0,-4.736151,-0.330892,-0.045417\H,0,-3.86
 5641,1.29269,0.058431\H,0,-2.6054,-1.501953,-0.043344\H,0,-1.293979,1.
 138007,-0.259547\H,0,-0.33941,-1.78055,0.138978\H,0,0.692471,-0.24139,
 0.190828\\Version=ES64L-G09RevD.01\State=1-A\HF=-155.6890713\MP2=-155.
 9154433\RMSD=3.212e-09\PG=C01 [X(C4H6)]\\@

 Normal termination of Gaussian 09 at Wed Aug 26 13:46:25 2020.
