 Gaussian 09, Revision D.01,
 Gaussian 09:  ES64L-G09RevD.01 24-Apr-2013

 --------------------
 #p B2PLYPD3/Def2QZVP
 --------------------

 ---------
 butadiene
 ---------
 Symbolic Z-matrix:
 Charge =  0 Multiplicity = 1

                         Standard orientation:
 ---------------------------------------------------------------------
 Center     Atomic      Atomic             Coordinates (Angstroms)
 Number     Number       Type             X           Y           Z
 ---------------------------------------------------------------------
      1          6           0       -1.845285    0.082837    0.085302
      2          6           0       -0.614717   -0.371446   -0.051365
      3          6           0        0.629576    0.465373   -0.067060
      4          6           0        1.849719   -0.160647    0.041765
      5          1           0       -2.766645   -0.586913    0.127328
      6          1           0       -2.081533    1.140970   -0.152090
      7          1           0       -0.434022   -1.426126   -0.185028
      8          1           0        0.508176    1.511755   -0.032471
      9          1           0        1.959316   -1.248694   -0.003724
     10          1           0        2.698949    0.512308    0.194137
 ---------------------------------------------------------------------

 SCF Done:  E(RB2PLYPD3) =  -155.685089727     A.U. after   12 cycles
 E2(B2PLYPD3) =    -0.2271976345D+00 E(B2PLYPD3) =    -0.15591228736174D+03

 The electronic state is 1-A.
 Alpha  occ. eigenvalues --  -10.63343 -10.62653 -10.62640 -10.61923  -0.92265
 Alpha  occ. eigenvalues --   -0.84472  -0.69276  -0.64364  -0.53963  -0.53044
 Alpha  occ. eigenvalues --   -0.46959  -0.45738  -0.40856  -0.36890  -0.27624
 Alpha virt. eigenvalues --    0.01563   0.06895   0.07306   0.08010   0.08707
 Alpha virt. eigenvalues --    0.11675   0.12259   0.14531   0.15570   0.16180
 Alpha virt. eigenvalues --    0.18838   0.19958   0.21057   0.23647   0.23774

 Mulliken charges:
               1
     1  C   -0.169580
     2  C   -0.028184
     3  C   -0.057852
     4  C   -0.173425
     5  H    0.071659
     6  H    0.061845
     7  H    0.059087
     8  H    0.071723
     9  H    0.080318
    10  H    0.084409
 Sum of Mulliken charges =   0.00000

 Dipole moment (field-independent basis, Debye):
    X=              0.1062    Y=             -0.0032    Z=             -0.1437  Tot=              0.1787
 Quadrupole moment (field-independent basis, Debye-Ang):
   XX=            -23.9862   YY=            -23.0060   ZZ=            -29.4054
   XY=             -0.1785   XZ=              0.6536   YZ=              0.0400

 1\1\GINC-NODE21\SP\RB2PLYPD3-FC\def2QZVP\C4H6\BOITTIER\26-Aug-2020\0\\
 #p B2PLYPD3/Def2QZVP\\butadiene\\0,1\C,0,-3.856858,0.19371,0.093901\C,
 0,-2.725622,-0.474811,-0.018941\C,0,-1.353279,0.128606,-0.055567\C,0,-
 0.262651,-0.698361,0.082817\H,0,-4.881878,-0.301324,0.153145\H,0,-3.90
 2784,1.267871,-0.181568\H,0,-2.733668,-1.548877,-0.114776\H,0,-1.28830
 3,1.180566,-0.058071\H,0,-0.346589,-1.789613,0.075797\H,0,0.69188,-0.1
 80607,0.217271\\Version=ES64L-G09RevD.01\State=1-A\HF=-155.6850897\MP2
 =-155.9122874\RMSD=2.452e-09\PG=C01 [X(C4H6)]\\@

 Normal termination of Gaussian 09 at Wed Aug 26 15:05:37 2020.
