 Gaussian 09, Revision D.01,
 Gaussian 09:  ES64L-G09RevD.01 24-Apr-2013

 --------------------
 #p B2PLYPD3/Def2QZVP
 --------------------

 ---------
 butadiene
 ---------
 Symbolic Z-matrix:
 Charge =  0 Multiplicity = 1

                         Standard orientation:
 ---------------------------------------------------------------------
 Center     Atomic      Atomic             Coordinates (Angstroms)
 Number     Number       Type             X           Y           Z
 ---------------------------------------------------------------------
      1          6           0       -1.841006    0.101388    0.006870
      2          6           0       -0.593966   -0.402168   -0.027637
      3          6           0        0.605421    0.420225   -0.020580
      4          6           0        1.828775   -0.123692    0.017134
      5          1           0       -2.736781   -0.510076    0.059049
      6          1           0       -2.008409    1.164099    0.044705
      7          1           0       -0.433288   -1.466597   -0.018937
      8          1           0        0.507983    1.517633    0.006579
      9          1           0        1.953075   -1.174177    0.055484
     10          1           0        2.722070    0.494597   -0.001604
 ---------------------------------------------------------------------

 SCF Done:  E(RB2PLYPD3) =  -155.699932193     A.U. after   11 cycles
 E2(B2PLYPD3) =    -0.2259800841D+00 E(B2PLYPD3) =    -0.15592591227758D+03

 The electronic state is 1-A.
 Alpha  occ. eigenvalues --  -10.62761 -10.62657 -10.61593 -10.61333  -0.92922
 Alpha  occ. eigenvalues --   -0.84698  -0.70116  -0.64307  -0.54488  -0.54019
 Alpha  occ. eigenvalues --   -0.46441  -0.45703  -0.41477  -0.38025  -0.27487
 Alpha virt. eigenvalues --    0.01662   0.07028   0.07411   0.08053   0.09393
 Alpha virt. eigenvalues --    0.11684   0.12551   0.14672   0.15908   0.16190
 Alpha virt. eigenvalues --    0.18756   0.20456   0.21761   0.23082   0.23681

 Mulliken charges:
               1
     1  C   -0.174498
     2  C   -0.035484
     3  C   -0.026346
     4  C   -0.177850
     5  H    0.084078
     6  H    0.064765
     7  H    0.058084
     8  H    0.055586
     9  H    0.067175
    10  H    0.084489
 Sum of Mulliken charges =   0.00000

 Dipole moment (field-independent basis, Debye):
    X=              0.0292    Y=             -0.0029    Z=              0.1019  Tot=              0.1061
 Quadrupole moment (field-independent basis, Debye-Ang):
   XX=            -23.4876   YY=            -23.0626   ZZ=            -29.3127
   XY=             -0.1658   XZ=             -0.1653   YZ=             -0.0226

 1\1\GINC-NODE29\SP\RB2PLYPD3-FC\def2QZVP\C4H6\BOITTIER\26-Aug-2020\0\\
 #p B2PLYPD3/Def2QZVP\\butadiene\\0,1\C,0,-3.844613,0.217117,0.030399\C
 ,0,-2.708821,-0.503641,0.011646\C,0,-1.38093,0.089082,-0.005497\C,0,-0
 .275346,-0.664947,0.049142\H,0,-4.835583,-0.221156,0.100543\H,0,-3.817
 726,1.293246,0.036149\H,0,-2.742402,-1.578866,0.052457\H,0,-1.279028,1
 .186405,-0.011429\H,0,-0.342051,-1.719029,0.119154\H,0,0.714579,-0.218
 524,0.012217\\Version=ES64L-G09RevD.01\State=1-A\HF=-155.6999322\MP2=-
 155.9259123\RMSD=2.911e-09\PG=C01 [X(C4H6)]\\@

 Normal termination of Gaussian 09 at Wed Aug 26 09:50:25 2020.
