 Gaussian 09, Revision D.01,
 Gaussian 09:  ES64L-G09RevD.01 24-Apr-2013

 --------------------
 #p B2PLYPD3/Def2QZVP
 --------------------

 ---------
 butadiene
 ---------
 Symbolic Z-matrix:
 Charge =  0 Multiplicity = 1

                         Standard orientation:
 ---------------------------------------------------------------------
 Center     Atomic      Atomic             Coordinates (Angstroms)
 Number     Number       Type             X           Y           Z
 ---------------------------------------------------------------------
      1          6           0       -1.850696   -0.156043   -0.051872
      2          6           0       -0.589061    0.439415    0.001349
      3          6           0        0.612511   -0.352887    0.075811
      4          6           0        1.843854    0.084162   -0.015059
      5          1           0       -2.711466    0.490095    0.009634
      6          1           0       -2.139412   -1.113915   -0.109898
      7          1           0       -0.536639    1.520040    0.255041
      8          1           0        0.496124   -1.465247    0.141859
      9          1           0        2.125689    1.125592   -0.238227
     10          1           0        2.666054   -0.644448   -0.119783
 ---------------------------------------------------------------------

 SCF Done:  E(RB2PLYPD3) =  -155.680578630     A.U. after   12 cycles
 E2(B2PLYPD3) =    -0.2271363395D+00 E(B2PLYPD3) =    -0.15590771497000D+03

 The electronic state is 1-A.
 Alpha  occ. eigenvalues --  -10.63906 -10.62453 -10.61711 -10.61432  -0.92775
 Alpha  occ. eigenvalues --   -0.84612  -0.71175  -0.63594  -0.54737  -0.53821
 Alpha  occ. eigenvalues --   -0.46681  -0.45235  -0.40856  -0.37706  -0.27369
 Alpha virt. eigenvalues --    0.00957   0.06979   0.07477   0.07697   0.09242
 Alpha virt. eigenvalues --    0.11344   0.12616   0.15029   0.15488   0.16400
 Alpha virt. eigenvalues --    0.18775   0.19871   0.22065   0.22469   0.23464

 Mulliken charges:
               1
     1  C   -0.178753
     2  C   -0.050060
     3  C   -0.023277
     4  C   -0.162060
     5  H    0.069495
     6  H    0.078539
     7  H    0.074838
     8  H    0.053075
     9  H    0.063306
    10  H    0.074898
 Sum of Mulliken charges =   0.00000

 Dipole moment (field-independent basis, Debye):
    X=             -0.1100    Y=             -0.0853    Z=             -0.0238  Tot=              0.1412
 Quadrupole moment (field-independent basis, Debye-Ang):
   XX=            -23.4832   YY=            -23.1732   ZZ=            -29.2269
   XY=              0.4625   XZ=             -0.7688   YZ=              0.1989

 1\1\GINC-NODE03\SP\RB2PLYPD3-FC\def2QZVP\C4H6\BOITTIER\26-Aug-2020\0\\
 #p B2PLYPD3/Def2QZVP\\butadiene\\0,1\C,0,-3.845786,0.274951,0.060249\C
 ,0,-2.712485,-0.539539,0.023347\C,0,-1.38693,0.021344,-0.049978\C,0,-0
 .255594,-0.630172,0.055279\H,0,-4.808918,-0.205465,-0.001229\H,0,-3.95
 6684,1.269871,0.10583\H,0,-2.855043,-1.614744,-0.218455\H,0,-1.299655,
 1.135541,-0.128731\H,0,-0.168241,-1.702686,0.291699\H,0,0.68428,-0.061
 16,0.158791\\Version=ES64L-G09RevD.01\State=1-A\HF=-155.6805786\MP2=-1
 55.907715\RMSD=4.068e-09\PG=C01 [X(C4H6)]\\@

 Normal termination of Gaussian 09 at Wed Aug 26 11:27:18 2020.
