 Gaussian 09, Revision D.01,
 Gaussian 09:  ES64L-G09RevD.01 24-Apr-2013

 --------------------
 #p B2PLYPD3/Def2QZVP
 --------------------

 ---------
 butadiene
 ---------
 Symbolic Z-matrix:
 Charge =  0 Multiplicity = 1

                         Standard orientation:
 ---------------------------------------------------------------------
 Center     Atomic      Atomic             Coordinates (Angstroms)
 Number     Number       Type             X           Y           Z
 ---------------------------------------------------------------------
      1          6           0       -1.831387    0.110908   -0.020460
      2          6           0       -0.608251   -0.421553    0.015716
      3          6           0        0.598003    0.400136    0.018731
      4          6           0        1.836558   -0.100675   -0.029446
      5          1           0       -2.755606   -0.476291    0.015977
      6          1           0       -1.946270    1.199494   -0.069171
      7          1           0       -0.463167   -1.494266    0.069756
      8          1           0        0.457612    1.489999    0.088111
      9          1           0        2.044048   -1.166469   -0.035852
     10          1           0        2.693842    0.514642    0.023934
 ---------------------------------------------------------------------

 SCF Done:  E(RB2PLYPD3) =  -155.699978777     A.U. after   11 cycles
 E2(B2PLYPD3) =    -0.2258370723D+00 E(B2PLYPD3) =    -0.15592581584912D+03

 The electronic state is 1-A.
 Alpha  occ. eigenvalues --  -10.62786 -10.62606 -10.61819 -10.61239  -0.92895
 Alpha  occ. eigenvalues --   -0.84811  -0.70044  -0.64017  -0.54772  -0.53636
 Alpha  occ. eigenvalues --   -0.46889  -0.45291  -0.41115  -0.38015  -0.27706
 Alpha virt. eigenvalues --    0.01807   0.07049   0.07330   0.08069   0.09457
 Alpha virt. eigenvalues --    0.11634   0.12524   0.14618   0.15905   0.16170
 Alpha virt. eigenvalues --    0.18806   0.20497   0.21687   0.22760   0.23731

 Mulliken charges:
               1
     1  C   -0.169981
     2  C   -0.032989
     3  C   -0.029636
     4  C   -0.175184
     5  H    0.085612
     6  H    0.062044
     7  H    0.058990
     8  H    0.053849
     9  H    0.062506
    10  H    0.084789
 Sum of Mulliken charges =   0.00000

 Dipole moment (field-independent basis, Debye):
    X=             -0.0024    Y=             -0.0167    Z=              0.1094  Tot=              0.1107
 Quadrupole moment (field-independent basis, Debye-Ang):
   XX=            -23.3803   YY=            -23.1440   ZZ=            -29.2928
   XY=             -0.2142   XZ=              0.0935   YZ=             -0.0160

 1\1\GINC-NODE37\SP\RB2PLYPD3-FC\def2QZVP\C4H6\BOITTIER\26-Aug-2020\0\\
 #p B2PLYPD3/Def2QZVP\\butadiene\\0,1\C,0,-3.831995,0.227447,-0.001574\
 C,0,-2.725958,-0.517183,0.054046\C,0,-1.390405,0.071175,0.035035\C,0,-
 0.263706,-0.64773,0.005414\H,0,-4.847461,-0.180519,0.050424\H,0,-3.747
 178,1.316769,-0.083875\H,0,-2.778176,-1.596233,0.141266\H,0,-1.330082,
 1.17,0.070665\H,0,-0.253483,-1.733174,0.032166\H,0,0.691325,-0.197212,
 0.042156\\Version=ES64L-G09RevD.01\State=1-A\HF=-155.6999788\MP2=-155.
 9258158\RMSD=3.128e-09\PG=C01 [X(C4H6)]\\@

 Normal termination of Gaussian 09 at Wed Aug 26 16:22:57 2020.
