 Gaussian 09, Revision D.01,
 Gaussian 09:  ES64L-G09RevD.01 24-Apr-2013

 --------------------
 #p B2PLYPD3/Def2QZVP
 --------------------

 ---------
 butadiene
 ---------
 Symbolic Z-matrix:
 Charge =  0 Multiplicity = 1

                         Standard orientation:
 ---------------------------------------------------------------------
 Center     Atomic      Atomic             Coordinates (Angstroms)
 Number     Number       Type             X           Y           Z
 ---------------------------------------------------------------------
      1          6           0       -1.847056    0.080868   -0.053736
      2          6           0       -0.610095   -0.386460    0.014918
      3          6           0        0.611526    0.478977    0.079919
      4          6           0        1.823921   -0.157030   -0.072769
      5          1           0       -2.758295   -0.618918    0.012741
      6          1           0       -1.993719    1.164660   -0.177776
      7          1           0       -0.402710   -1.428505    0.333090
      8          1           0        0.483140    1.558364    0.173440
      9          1           0        2.034171   -1.187016   -0.153411
     10          1           0        2.767635    0.413284    0.001926
 ---------------------------------------------------------------------

 SCF Done:  E(RB2PLYPD3) =  -155.683264259     A.U. after   12 cycles
 E2(B2PLYPD3) =    -0.2275835232D+00 E(B2PLYPD3) =    -0.15591084778239D+03

 The electronic state is 1-A.
 Alpha  occ. eigenvalues --  -10.63947 -10.62751 -10.62275 -10.62164  -0.92120
 Alpha  occ. eigenvalues --   -0.84172  -0.69531  -0.63850  -0.53781  -0.53018
 Alpha  occ. eigenvalues --   -0.47433  -0.44983  -0.40248  -0.36924  -0.27756
 Alpha virt. eigenvalues --    0.01668   0.07003   0.07205   0.07637   0.08870
 Alpha virt. eigenvalues --    0.11513   0.12248   0.14540   0.15027   0.16402
 Alpha virt. eigenvalues --    0.18915   0.19607   0.21347   0.22769   0.23338

 Mulliken charges:
               1
     1  C   -0.184508
     2  C   -0.019827
     3  C   -0.062696
     4  C   -0.164380
     5  H    0.083615
     6  H    0.065722
     7  H    0.067372
     8  H    0.070588
     9  H    0.075067
    10  H    0.069047
 Sum of Mulliken charges =   0.00000

 Dipole moment (field-independent basis, Debye):
    X=              0.0967    Y=              0.0096    Z=              0.2261  Tot=              0.2461
 Quadrupole moment (field-independent basis, Debye-Ang):
   XX=            -23.7628   YY=            -23.0951   ZZ=            -29.4082
   XY=             -0.5752   XZ=             -0.1119   YZ=             -0.1880

 1\1\GINC-NODE22\SP\RB2PLYPD3-FC\def2QZVP\C4H6\BOITTIER\26-Aug-2020\0\\
 #p B2PLYPD3/Def2QZVP\\butadiene\\0,1\C,0,-3.852817,0.193741,-0.029941\
 C,0,-2.719801,-0.485914,0.0568\C,0,-1.362183,0.147326,0.094837\C,0,-0.
 284604,-0.701172,-0.033985\H,0,-4.874769,-0.328067,0.058415\H,0,-3.802
 683,1.281451,-0.190801\H,0,-2.701876,-1.536988,0.410385\H,0,-1.293946,
 1.23472,0.151597\H,0,-0.263374,-1.754294,-0.079387\H,0,0.746602,-0.307
 751,0.023185\\Version=ES64L-G09RevD.01\State=1-A\HF=-155.6832643\MP2=-
 155.9108478\RMSD=3.695e-09\PG=C01 [X(C4H6)]\\@

 Normal termination of Gaussian 09 at Wed Aug 26 12:29:14 2020.
