 Gaussian 09, Revision D.01,
 Gaussian 09:  ES64L-G09RevD.01 24-Apr-2013

 --------------------
 #p B2PLYPD3/Def2QZVP
 --------------------

 ---------
 butadiene
 ---------
 Symbolic Z-matrix:
 Charge =  0 Multiplicity = 1

                         Standard orientation:
 ---------------------------------------------------------------------
 Center     Atomic      Atomic             Coordinates (Angstroms)
 Number     Number       Type             X           Y           Z
 ---------------------------------------------------------------------
      1          6           0       -1.842837   -0.101446    0.000304
      2          6           0       -0.599337    0.390361   -0.008595
      3          6           0        0.603873   -0.410387   -0.024182
      4          6           0        1.846372    0.109197    0.015870
      5          1           0       -2.682516    0.531632    0.090287
      6          1           0       -2.066141   -1.149181    0.018140
      7          1           0       -0.478559    1.483569   -0.048920
      8          1           0        0.450017   -1.471296   -0.014057
      9          1           0        1.997013    1.186187    0.001530
     10          1           0        2.731760   -0.507267    0.052638
 ---------------------------------------------------------------------

 SCF Done:  E(RB2PLYPD3) =  -155.699897759     A.U. after   11 cycles
 E2(B2PLYPD3) =    -0.2258584483D+00 E(B2PLYPD3) =    -0.15592575620750D+03

 The electronic state is 1-A.
 Alpha  occ. eigenvalues --  -10.62654 -10.62565 -10.61816 -10.61113  -0.92963
 Alpha  occ. eigenvalues --   -0.84799  -0.70616  -0.64156  -0.54866  -0.53894
 Alpha  occ. eigenvalues --   -0.46771  -0.45707  -0.41318  -0.38068  -0.27504
 Alpha virt. eigenvalues --    0.01472   0.07016   0.07450   0.08105   0.09593
 Alpha virt. eigenvalues --    0.11643   0.12504   0.14792   0.15805   0.16265
 Alpha virt. eigenvalues --    0.18846   0.20362   0.21913   0.22803   0.23740

 Mulliken charges:
               1
     1  C   -0.176926
     2  C   -0.023401
     3  C   -0.036986
     4  C   -0.174002
     5  H    0.084281
     6  H    0.063246
     7  H    0.051708
     8  H    0.058866
     9  H    0.066130
    10  H    0.087083
 Sum of Mulliken charges =   0.00000

 Dipole moment (field-independent basis, Debye):
    X=             -0.0043    Y=             -0.0210    Z=              0.0708  Tot=              0.0740
 Quadrupole moment (field-independent basis, Debye-Ang):
   XX=            -23.3229   YY=            -23.1468   ZZ=            -29.2677
   XY=              0.2367   XZ=             -0.1214   YZ=             -0.0449

 1\1\GINC-NODE32\SP\RB2PLYPD3-FC\def2QZVP\C4H6\BOITTIER\26-Aug-2020\0\\
 #p B2PLYPD3/Def2QZVP\\butadiene\\0,1\C,0,-3.846658,0.220212,0.014006\C
 ,0,-2.713922,-0.489947,0.042804\C,0,-1.384621,0.077554,0.035337\C,0,-0
 .258101,-0.661336,0.016128\H,0,-4.788154,-0.251419,-0.057383\H,0,-3.87
 4834,1.289935,-0.039187\H,0,-2.794782,-1.584875,0.119683\H,0,-1.342086
 ,1.147789,-0.010385\H,0,-0.306721,-1.746645,0.066586\H,0,0.724893,-0.2
 18578,-0.03848\\Version=ES64L-G09RevD.01\State=1-A\HF=-155.6998978\MP2
 =-155.9257562\RMSD=5.254e-09\PG=C01 [X(C4H6)]\\@

 Normal termination of Gaussian 09 at Wed Aug 26 11:44:35 2020.
