 Gaussian 09, Revision D.01,
 Gaussian 09:  ES64L-G09RevD.01 24-Apr-2013

 --------------------
 #p B2PLYPD3/Def2QZVP
 --------------------

 ---------
 butadiene
 ---------
 Symbolic Z-matrix:
 Charge =  0 Multiplicity = 1

                         Standard orientation:
 ---------------------------------------------------------------------
 Center     Atomic      Atomic             Coordinates (Angstroms)
 Number     Number       Type             X           Y           Z
 ---------------------------------------------------------------------
      1          6           0        1.839852   -0.097570    0.021917
      2          6           0        0.594339    0.394852   -0.053100
      3          6           0       -0.603723   -0.427941   -0.008251
      4          6           0       -1.830488    0.127173    0.042086
      5          1           0        2.751494    0.489812    0.122094
      6          1           0        1.945447   -1.172926   -0.020083
      7          1           0        0.477321    1.494353    0.003541
      8          1           0       -0.496403   -1.476936   -0.084413
      9          1           0       -1.985022    1.204160   -0.085478
     10          1           0       -2.692712   -0.517551    0.048425
 ---------------------------------------------------------------------

 SCF Done:  E(RB2PLYPD3) =  -155.696421397     A.U. after   11 cycles
 E2(B2PLYPD3) =    -0.2263866653D+00 E(B2PLYPD3) =    -0.15592280806237D+03

 The electronic state is 1-A.
 Alpha  occ. eigenvalues --  -10.62757 -10.62587 -10.61754 -10.61576  -0.92923
 Alpha  occ. eigenvalues --   -0.84660  -0.69902  -0.64257  -0.54438  -0.53911
 Alpha  occ. eigenvalues --   -0.46702  -0.45131  -0.41584  -0.37920  -0.27432
 Alpha virt. eigenvalues --    0.01571   0.07048   0.07393   0.08038   0.09209
 Alpha virt. eigenvalues --    0.11678   0.12527   0.14591   0.15634   0.16433
 Alpha virt. eigenvalues --    0.18726   0.20094   0.21590   0.23291   0.23835

 Mulliken charges:
               1
     1  C   -0.175821
     2  C   -0.023269
     3  C   -0.042559
     4  C   -0.172921
     5  H    0.088088
     6  H    0.058260
     7  H    0.052348
     8  H    0.063400
     9  H    0.071146
    10  H    0.081329
 Sum of Mulliken charges =   0.00000

 Dipole moment (field-independent basis, Debye):
    X=             -0.0096    Y=             -0.0383    Z=             -0.0643  Tot=              0.0755
 Quadrupole moment (field-independent basis, Debye-Ang):
   XX=            -23.6041   YY=            -23.0755   ZZ=            -29.3211
   XY=              0.0175   XZ=              0.4763   YZ=              0.0970

 1\1\GINC-NODE16\SP\RB2PLYPD3-FC\def2QZVP\C4H6\BOITTIER\26-Aug-2020\0\\
 #p B2PLYPD3/Def2QZVP\\butadiene\\0,1\C,0,-3.844905,0.211146,0.046074\C
 ,0,-2.708358,-0.498909,-0.013015\C,0,-1.382005,0.096898,-0.000645\C,0,
 -0.274077,-0.666934,0.067877\H,0,-4.846113,-0.199348,0.169449\H,0,-3.7
 56603,1.285803,-0.03529\H,0,-2.789623,-1.598826,0.083848\H,0,-1.300405
 ,1.144721,-0.115174\H,0,-0.315945,-1.758051,-0.020237\H,0,0.689672,-0.
 187384,0.048924\\Version=ES64L-G09RevD.01\State=1-A\HF=-155.6964214\MP
 2=-155.9228081\RMSD=6.767e-09\PG=C01 [X(C4H6)]\\@

 Normal termination of Gaussian 09 at Wed Aug 26 10:42:04 2020.
