 Gaussian 09, Revision D.01,
 Gaussian 09:  ES64L-G09RevD.01 24-Apr-2013

 --------------------
 #p B2PLYPD3/Def2QZVP
 --------------------

 ---------
 butadiene
 ---------
 Symbolic Z-matrix:
 Charge =  0 Multiplicity = 1

                         Standard orientation:
 ---------------------------------------------------------------------
 Center     Atomic      Atomic             Coordinates (Angstroms)
 Number     Number       Type             X           Y           Z
 ---------------------------------------------------------------------
      1          6           0        1.818230   -0.121667   -0.049786
      2          6           0        0.594716    0.453476    0.023171
      3          6           0       -0.598054   -0.369797    0.049895
      4          6           0       -1.832546    0.082030   -0.058221
      5          1           0        2.819134    0.408613    0.074353
      6          1           0        1.828476   -1.233235   -0.215616
      7          1           0        0.428844    1.480520    0.133059
      8          1           0       -0.272801   -1.376441    0.308556
      9          1           0       -2.112886    1.178503   -0.049515
     10          1           0       -2.584844   -0.722211   -0.041192
 ---------------------------------------------------------------------

 SCF Done:  E(RB2PLYPD3) =  -155.681487538     A.U. after   12 cycles
 E2(B2PLYPD3) =    -0.2272410831D+00 E(B2PLYPD3) =    -0.15590872862076D+03

 The electronic state is 1-A.
 Alpha  occ. eigenvalues --  -10.62891 -10.62223 -10.62153 -10.62058  -0.93341
 Alpha  occ. eigenvalues --   -0.84435  -0.69534  -0.64243  -0.53857  -0.53077
 Alpha  occ. eigenvalues --   -0.47181  -0.45319  -0.40628  -0.37356  -0.27681
 Alpha virt. eigenvalues --    0.01600   0.07025   0.07153   0.07963   0.09261
 Alpha virt. eigenvalues --    0.11679   0.12165   0.14486   0.15041   0.16232
 Alpha virt. eigenvalues --    0.18378   0.19757   0.21221   0.22380   0.24070

 Mulliken charges:
               1
     1  C   -0.178337
     2  C   -0.032394
     3  C   -0.026617
     4  C   -0.184874
     5  H    0.086542
     6  H    0.057827
     7  H    0.059976
     8  H    0.057843
     9  H    0.077948
    10  H    0.082087
 Sum of Mulliken charges =   0.00000

 Dipole moment (field-independent basis, Debye):
    X=              0.0315    Y=              0.0726    Z=              0.2432  Tot=              0.2557
 Quadrupole moment (field-independent basis, Debye-Ang):
   XX=            -24.0030   YY=            -23.2599   ZZ=            -29.2696
   XY=             -0.4409   XZ=              0.0919   YZ=              0.1263

 1\1\GINC-NODE28\SP\RB2PLYPD3-FC\def2QZVP\C4H6\BOITTIER\26-Aug-2020\0\\
 #p B2PLYPD3/Def2QZVP\\butadiene\\0,1\C,0,-3.816059,0.250793,-0.026916\
 C,0,-2.722899,-0.541994,0.071008\C,0,-1.395832,0.041148,0.065212\C,0,-
 0.269784,-0.640078,-0.022841\H,0,-4.898321,-0.07507,0.117787\H,0,-3.61
 7058,1.336563,-0.238315\H,0,-2.753476,-1.57655,0.223213\H,0,-1.523157,
 1.100799,0.281902\H,0,-0.201763,-1.768514,0.031251\H,0,0.621102,0.0073
 3,-0.038039\\Version=ES64L-G09RevD.01\State=1-A\HF=-155.6814875\MP2=-1
 55.9087286\RMSD=3.263e-09\PG=C01 [X(C4H6)]\\@

 Normal termination of Gaussian 09 at Wed Aug 26 11:22:42 2020.
