 Gaussian 09, Revision D.01,
 Gaussian 09:  ES64L-G09RevD.01 24-Apr-2013

 --------------------
 #p B2PLYPD3/Def2QZVP
 --------------------

 ---------
 butadiene
 ---------
 Symbolic Z-matrix:
 Charge =  0 Multiplicity = 1

                         Standard orientation:
 ---------------------------------------------------------------------
 Center     Atomic      Atomic             Coordinates (Angstroms)
 Number     Number       Type             X           Y           Z
 ---------------------------------------------------------------------
      1          6           0        1.846889   -0.097615    0.027480
      2          6           0        0.601700    0.383102   -0.042318
      3          6           0       -0.612184   -0.419961   -0.033464
      4          6           0       -1.843306    0.121097    0.047078
      5          1           0        2.692283    0.514924    0.033104
      6          1           0        2.021166   -1.151310    0.082490
      7          1           0        0.430707    1.468470   -0.097623
      8          1           0       -0.496765   -1.477868   -0.038052
      9          1           0       -1.868124    1.215592    0.101642
     10          1           0       -2.737863   -0.489540   -0.074215
 ---------------------------------------------------------------------

 SCF Done:  E(RB2PLYPD3) =  -155.697307530     A.U. after   11 cycles
 E2(B2PLYPD3) =    -0.2260049756D+00 E(B2PLYPD3) =    -0.15592331250559D+03

 The electronic state is 1-A.
 Alpha  occ. eigenvalues --  -10.62718 -10.62414 -10.61929 -10.61032  -0.92936
 Alpha  occ. eigenvalues --   -0.84898  -0.70292  -0.64211  -0.54885  -0.53848
 Alpha  occ. eigenvalues --   -0.46747  -0.45735  -0.41411  -0.37901  -0.27587
 Alpha virt. eigenvalues --    0.01512   0.07034   0.07451   0.08101   0.09553
 Alpha virt. eigenvalues --    0.11716   0.12561   0.14623   0.15749   0.16171
 Alpha virt. eigenvalues --    0.18849   0.20184   0.21566   0.22772   0.24016

 Mulliken charges:
               1
     1  C   -0.179033
     2  C   -0.026265
     3  C   -0.032172
     4  C   -0.175881
     5  H    0.090024
     6  H    0.064459
     7  H    0.047160
     8  H    0.057361
     9  H    0.062178
    10  H    0.092169
 Sum of Mulliken charges =   0.00000

 Dipole moment (field-independent basis, Debye):
    X=              0.0394    Y=             -0.0542    Z=             -0.0463  Tot=              0.0814
 Quadrupole moment (field-independent basis, Debye-Ang):
   XX=            -23.4884   YY=            -23.1738   ZZ=            -29.2666
   XY=              0.0567   XZ=              0.3131   YZ=              0.0344

 1\1\GINC-NODE37\SP\RB2PLYPD3-FC\def2QZVP\C4H6\BOITTIER\26-Aug-2020\0\\
 #p B2PLYPD3/Def2QZVP\\butadiene\\0,1\C,0,-3.85293,0.210463,0.050106\C,
 0,-2.713983,-0.486797,-0.005418\C,0,-1.376239,0.086482,-0.022613\C,0,-
 0.260956,-0.662982,0.074033\H,0,-4.794015,-0.240802,0.075538\H,0,-3.83
 6018,1.279528,0.072126\H,0,-2.739781,-1.586434,-0.026736\H,0,-1.301037
 ,1.147345,-0.060334\H,0,-0.431518,-1.742112,0.162916\H,0,0.727435,-0.2
 25927,-0.066985\\Version=ES64L-G09RevD.01\State=1-A\HF=-155.6973075\MP
 2=-155.9233125\RMSD=7.047e-09\PG=C01 [X(C4H6)]\\@

 Normal termination of Gaussian 09 at Wed Aug 26 22:23:13 2020.
