 Gaussian 09, Revision D.01,
 Gaussian 09:  ES64L-G09RevD.01 24-Apr-2013

 --------------------
 #p B2PLYPD3/Def2QZVP
 --------------------

 ---------
 butadiene
 ---------
 Symbolic Z-matrix:
 Charge =  0 Multiplicity = 1

                         Standard orientation:
 ---------------------------------------------------------------------
 Center     Atomic      Atomic             Coordinates (Angstroms)
 Number     Number       Type             X           Y           Z
 ---------------------------------------------------------------------
      1          6           0        1.824055   -0.126703    0.011845
      2          6           0        0.606155    0.412396   -0.024578
      3          6           0       -0.597109   -0.377517   -0.013429
      4          6           0       -1.832740    0.097967    0.021028
      5          1           0        2.687680    0.502274    0.055627
      6          1           0        1.965166   -1.176362    0.004201
      7          1           0        0.481671    1.485367   -0.028311
      8          1           0       -0.454235   -1.458670   -0.008561
      9          1           0       -1.977321    1.163691    0.022106
     10          1           0       -2.705127   -0.553154   -0.014255
 ---------------------------------------------------------------------

 SCF Done:  E(RB2PLYPD3) =  -155.700910687     A.U. after   11 cycles
 E2(B2PLYPD3) =    -0.2252301065D+00 E(B2PLYPD3) =    -0.15592614079351D+03

 The electronic state is 1-A.
 Alpha  occ. eigenvalues --  -10.62285 -10.62091 -10.61227 -10.61123  -0.93391
 Alpha  occ. eigenvalues --   -0.85177  -0.70329  -0.64202  -0.54621  -0.54364
 Alpha  occ. eigenvalues --   -0.46789  -0.45764  -0.41195  -0.38384  -0.27708
 Alpha virt. eigenvalues --    0.01827   0.07028   0.07446   0.08084   0.09798
 Alpha virt. eigenvalues --    0.11773   0.12473   0.14830   0.15857   0.16113
 Alpha virt. eigenvalues --    0.18708   0.20447   0.21661   0.22937   0.24026

 Mulliken charges:
               1
     1  C   -0.177814
     2  C   -0.031094
     3  C   -0.018777
     4  C   -0.180134
     5  H    0.085633
     6  H    0.070336
     7  H    0.053348
     8  H    0.047759
     9  H    0.062559
    10  H    0.088184
 Sum of Mulliken charges =   0.00000

 Dipole moment (field-independent basis, Debye):
    X=              0.0534    Y=             -0.0008    Z=              0.0001  Tot=              0.0534
 Quadrupole moment (field-independent basis, Debye-Ang):
   XX=            -23.5620   YY=            -23.0800   ZZ=            -29.1552
   XY=             -0.0657   XZ=              0.1816   YZ=              0.0463

 1\1\GINC-NODE36\SP\RB2PLYPD3-FC\def2QZVP\C4H6\BOITTIER\26-Aug-2020\0\\
 #p B2PLYPD3/Def2QZVP\\butadiene\\0,1\C,0,-3.823193,0.238784,0.032294\C
 ,0,-2.722406,-0.511635,0.012954\C,0,-1.396582,0.048693,0.000603\C,0,-0
 .26655,-0.640238,0.050178\H,0,-4.785689,-0.222811,0.094811\H,0,-3.7731
 18,1.295982,-0.007448\H,0,-2.793089,-1.589103,0.042027\H,0,-1.34251,1.
 13755,-0.027595\H,0,-0.316136,-1.714054,0.083849\H,0,0.708593,-0.15819
 3,-0.004516\\Version=ES64L-G09RevD.01\State=1-A\HF=-155.7009107\MP2=-1
 55.9261408\RMSD=5.501e-09\PG=C01 [X(C4H6)]\\@

 Normal termination of Gaussian 09 at Wed Aug 26 19:14:11 2020.
