 Gaussian 09, Revision D.01,
 Gaussian 09:  ES64L-G09RevD.01 24-Apr-2013

 --------------------
 #p B2PLYPD3/Def2QZVP
 --------------------

 ---------
 butadiene
 ---------
 Symbolic Z-matrix:
 Charge =  0 Multiplicity = 1

                         Standard orientation:
 ---------------------------------------------------------------------
 Center     Atomic      Atomic             Coordinates (Angstroms)
 Number     Number       Type             X           Y           Z
 ---------------------------------------------------------------------
      1          6           0        1.832898   -0.119887    0.046016
      2          6           0        0.609440    0.394329   -0.048020
      3          6           0       -0.609697   -0.363028   -0.035056
      4          6           0       -1.845065    0.088104    0.035271
      5          1           0        2.696904    0.493968    0.152123
      6          1           0        2.055344   -1.151513   -0.105938
      7          1           0        0.537514    1.446225   -0.105772
      8          1           0       -0.495597   -1.425421   -0.012594
      9          1           0       -2.021312    1.182484    0.020057
     10          1           0       -2.698311   -0.542852    0.062857
 ---------------------------------------------------------------------

 SCF Done:  E(RB2PLYPD3) =  -155.696344396     A.U. after   11 cycles
 E2(B2PLYPD3) =    -0.2248977859D+00 E(B2PLYPD3) =    -0.15592124218215D+03

 The electronic state is 1-A.
 Alpha  occ. eigenvalues --  -10.62107 -10.61832 -10.61266 -10.61169  -0.93481
 Alpha  occ. eigenvalues --   -0.85464  -0.70780  -0.64380  -0.55310  -0.54208
 Alpha  occ. eigenvalues --   -0.47489  -0.45377  -0.41145  -0.38174  -0.27785
 Alpha virt. eigenvalues --    0.01629   0.07004   0.07630   0.08103   0.09941
 Alpha virt. eigenvalues --    0.11646   0.12537   0.14777   0.15811   0.16532
 Alpha virt. eigenvalues --    0.18912   0.20141   0.21694   0.22907   0.23913

 Mulliken charges:
               1
     1  C   -0.172234
     2  C   -0.036512
     3  C   -0.023655
     4  C   -0.172878
     5  H    0.079094
     6  H    0.068820
     7  H    0.058669
     8  H    0.051782
     9  H    0.056565
    10  H    0.090347
 Sum of Mulliken charges =   0.00000

 Dipole moment (field-independent basis, Debye):
    X=              0.0617    Y=             -0.0186    Z=             -0.0601  Tot=              0.0881
 Quadrupole moment (field-independent basis, Debye-Ang):
   XX=            -23.1427   YY=            -23.3353   ZZ=            -29.0040
   XY=              0.0190   XZ=             -0.0552   YZ=              0.0878

 1\1\GINC-NODE29\SP\RB2PLYPD3-FC\def2QZVP\C4H6\BOITTIER\26-Aug-2020\0\\
 #p B2PLYPD3/Def2QZVP\\butadiene\\0,1\C,0,-3.8351,0.232557,0.062226\C,0
 ,-2.723839,-0.495233,-0.012147\C,0,-1.388726,0.031514,-0.020242\C,0,-0
 .253927,-0.631133,0.067677\H,0,-4.794744,-0.212896,0.185664\H,0,-3.869
 646,1.281959,-0.12321\H,0,-2.841675,-1.544298,-0.036052\H,0,-1.310614,
 1.097328,-0.032055\H,0,-0.276604,-1.739301,0.087918\H,0,0.698619,-0.16
 2669,0.077289\\Version=ES64L-G09RevD.01\State=1-A\HF=-155.6963444\MP2=
 -155.9212422\RMSD=6.894e-09\PG=C01 [X(C4H6)]\\@

 Normal termination of Gaussian 09 at Wed Aug 26 09:21:27 2020.
