 Gaussian 09, Revision D.01,
 Gaussian 09:  ES64L-G09RevD.01 24-Apr-2013

 --------------------
 #p B2PLYPD3/Def2QZVP
 --------------------

 ---------
 butadiene
 ---------
 Symbolic Z-matrix:
 Charge =  0 Multiplicity = 1

                         Standard orientation:
 ---------------------------------------------------------------------
 Center     Atomic      Atomic             Coordinates (Angstroms)
 Number     Number       Type             X           Y           Z
 ---------------------------------------------------------------------
      1          6           0       -1.857364   -0.084951    0.091518
      2          6           0       -0.621890    0.341011   -0.068606
      3          6           0        0.619183   -0.438469   -0.058597
      4          6           0        1.861315    0.121014    0.060961
      5          1           0       -2.694365    0.686773   -0.170616
      6          1           0       -2.129175   -1.158772    0.233829
      7          1           0       -0.502652    1.448717   -0.166193
      8          1           0        0.439355   -1.471241   -0.241086
      9          1           0        1.966723    1.218198    0.210464
     10          1           0        2.912646   -0.355303   -0.018055
 ---------------------------------------------------------------------

 SCF Done:  E(RB2PLYPD3) =  -155.679171269     A.U. after   12 cycles
 E2(B2PLYPD3) =    -0.2278059081D+00 E(B2PLYPD3) =    -0.15590697717725D+03

 The electronic state is 1-A.
 Alpha  occ. eigenvalues --  -10.63630 -10.63433 -10.62753 -10.62500  -0.92612
 Alpha  occ. eigenvalues --   -0.84374  -0.69653  -0.63334  -0.53743  -0.53038
 Alpha  occ. eigenvalues --   -0.47165  -0.44316  -0.39930  -0.37509  -0.27967
 Alpha virt. eigenvalues --    0.01081   0.06766   0.07304   0.07690   0.09552
 Alpha virt. eigenvalues --    0.11355   0.12173   0.14353   0.15585   0.16074
 Alpha virt. eigenvalues --    0.19170   0.19483   0.21249   0.21396   0.23517

 Mulliken charges:
               1
     1  C   -0.170007
     2  C   -0.016255
     3  C   -0.054174
     4  C   -0.158352
     5  H    0.076731
     6  H    0.063785
     7  H    0.050807
     8  H    0.066720
     9  H    0.059608
    10  H    0.081138
 Sum of Mulliken charges =   0.00000

 Dipole moment (field-independent basis, Debye):
    X=              0.1288    Y=              0.0022    Z=             -0.2085  Tot=              0.2451
 Quadrupole moment (field-independent basis, Debye-Ang):
   XX=            -23.4053   YY=            -23.5579   ZZ=            -29.3982
   XY=              0.4855   XZ=              0.2947   YZ=             -0.0336

 1\1\GINC-NODE17\SP\RB2PLYPD3-FC\def2QZVP\C4H6\BOITTIER\26-Aug-2020\0\\
 #p B2PLYPD3/Def2QZVP\\butadiene\\0,1\C,0,-3.866643,0.190841,-0.062771\
 C,0,-2.725752,-0.44428,0.105955\C,0,-1.366016,0.101864,0.077736\C,0,-0
 .243586,-0.671899,-0.030181\H,0,-4.826192,-0.413977,0.21706\H,0,-3.944
 045,1.29251,-0.228778\H,0,-2.804721,-1.553151,0.228108\H,0,-1.358686,1
 .153884,0.2373\H,0,-0.33544,-1.773347,-0.155281\H,0,0.875989,-0.388365
 ,0.037486\\Version=ES64L-G09RevD.01\State=1-A\HF=-155.6791713\MP2=-155
 .9069772\RMSD=2.912e-09\PG=C01 [X(C4H6)]\\@

 Normal termination of Gaussian 09 at Wed Aug 26 15:04:09 2020.
