 Gaussian 09, Revision D.01,
 Gaussian 09:  ES64L-G09RevD.01 24-Apr-2013

 --------------------
 #p B2PLYPD3/Def2QZVP
 --------------------

 ---------
 butadiene
 ---------
 Symbolic Z-matrix:
 Charge =  0 Multiplicity = 1

                         Standard orientation:
 ---------------------------------------------------------------------
 Center     Atomic      Atomic             Coordinates (Angstroms)
 Number     Number       Type             X           Y           Z
 ---------------------------------------------------------------------
      1          6           0        1.840780    0.118724   -0.053180
      2          6           0        0.601914   -0.423874    0.042881
      3          6           0       -0.594538    0.394723    0.041594
      4          6           0       -1.832989   -0.094573   -0.035471
      5          1           0        2.753515   -0.507353    0.073873
      6          1           0        1.911820    1.192960   -0.112736
      7          1           0        0.404138   -1.447929    0.048037
      8          1           0       -0.453650    1.464043    0.127340
      9          1           0       -1.974056   -1.163226   -0.083505
     10          1           0       -2.732772    0.491501   -0.027954
 ---------------------------------------------------------------------

 SCF Done:  E(RB2PLYPD3) =  -155.696136143     A.U. after   11 cycles
 E2(B2PLYPD3) =    -0.2261989570D+00 E(B2PLYPD3) =    -0.15592233510042D+03

 The electronic state is 1-A.
 Alpha  occ. eigenvalues --  -10.62428 -10.62317 -10.62191 -10.61343  -0.93129
 Alpha  occ. eigenvalues --   -0.84571  -0.70194  -0.64793  -0.54489  -0.53747
 Alpha  occ. eigenvalues --   -0.46938  -0.45701  -0.41411  -0.37922  -0.27466
 Alpha virt. eigenvalues --    0.01437   0.07012   0.07479   0.08120   0.09445
 Alpha virt. eigenvalues --    0.11722   0.12577   0.14603   0.15703   0.16185
 Alpha virt. eigenvalues --    0.18816   0.20113   0.21712   0.22888   0.23859

 Mulliken charges:
               1
     1  C   -0.174202
     2  C   -0.041720
     3  C   -0.019900
     4  C   -0.179043
     5  H    0.086763
     6  H    0.068628
     7  H    0.063520
     8  H    0.051947
     9  H    0.056908
    10  H    0.087101
 Sum of Mulliken charges =   0.00000

 Dipole moment (field-independent basis, Debye):
    X=             -0.0547    Y=             -0.0154    Z=              0.0842  Tot=              0.1015
 Quadrupole moment (field-independent basis, Debye-Ang):
   XX=            -23.5208   YY=            -23.2033   ZZ=            -29.2730
   XY=              0.1220   XZ=              0.2272   YZ=             -0.0280

 1\1\GINC-NODE01\SP\RB2PLYPD3-FC\def2QZVP\C4H6\BOITTIER\26-Aug-2020\0\\
 #p B2PLYPD3/Def2QZVP\\butadiene\\0,1\C,0,-3.838512,0.238028,0.066536\C
 ,0,-2.719135,-0.523369,-0.008961\C,0,-1.393776,0.06373,-0.02737\C,0,-0
 .264813,-0.640075,0.068612\H,0,-4.850095,-0.215152,-0.045389\H,0,-3.71
 2925,1.30856,0.094189\H,0,-2.710879,-1.56601,0.016751\H,0,-1.338019,1.
 137828,-0.145068\H,0,-0.320339,-1.714666,0.148595\H,0,0.726526,-0.2278
 43,0.047156\\Version=ES64L-G09RevD.01\State=1-A\HF=-155.6961361\MP2=-1
 55.9223351\RMSD=8.308e-09\PG=C01 [X(C4H6)]\\@

 Normal termination of Gaussian 09 at Wed Aug 26 09:49:26 2020.
