 Gaussian 09, Revision D.01,
 Gaussian 09:  ES64L-G09RevD.01 24-Apr-2013

 --------------------
 #p B2PLYPD3/Def2QZVP
 --------------------

 ---------
 butadiene
 ---------
 Symbolic Z-matrix:
 Charge =  0 Multiplicity = 1

                         Standard orientation:
 ---------------------------------------------------------------------
 Center     Atomic      Atomic             Coordinates (Angstroms)
 Number     Number       Type             X           Y           Z
 ---------------------------------------------------------------------
      1          6           0       -1.827263    0.098653   -0.026418
      2          6           0       -0.587479   -0.404733    0.034192
      3          6           0        0.599144    0.415513    0.021301
      4          6           0        1.812302   -0.120388   -0.050505
      5          1           0       -2.699152   -0.495356   -0.034909
      6          1           0       -1.999516    1.180435   -0.092035
      7          1           0       -0.467620   -1.454996    0.153070
      8          1           0        0.521742    1.492450    0.112133
      9          1           0        1.996049   -1.170826   -0.095424
     10          1           0        2.668279    0.514018    0.085742
 ---------------------------------------------------------------------

 SCF Done:  E(RB2PLYPD3) =  -155.698632556     A.U. after   11 cycles
 E2(B2PLYPD3) =    -0.2253781691D+00 E(B2PLYPD3) =    -0.15592401072472D+03

 The electronic state is 1-A.
 Alpha  occ. eigenvalues --  -10.62264 -10.62196 -10.61287 -10.60968  -0.93291
 Alpha  occ. eigenvalues --   -0.84969  -0.70255  -0.64483  -0.54783  -0.54354
 Alpha  occ. eigenvalues --   -0.46610  -0.45528  -0.41647  -0.38033  -0.27570
 Alpha virt. eigenvalues --    0.01811   0.07112   0.07469   0.08042   0.09530
 Alpha virt. eigenvalues --    0.11717   0.12525   0.14840   0.15810   0.16386
 Alpha virt. eigenvalues --    0.18823   0.20091   0.21850   0.22745   0.23969

 Mulliken charges:
               1
     1  C   -0.174907
     2  C   -0.038504
     3  C   -0.027996
     4  C   -0.173153
     5  H    0.085312
     6  H    0.060633
     7  H    0.063012
     8  H    0.061037
     9  H    0.066528
    10  H    0.078038
 Sum of Mulliken charges =   0.00000

 Dipole moment (field-independent basis, Debye):
    X=              0.0001    Y=             -0.0251    Z=              0.1565  Tot=              0.1585
 Quadrupole moment (field-independent basis, Debye-Ang):
   XX=            -23.6146   YY=            -22.9993   ZZ=            -29.1223
   XY=             -0.1599   XZ=              0.3517   YZ=              0.0431

 1\1\GINC-NODE02\SP\RB2PLYPD3-FC\def2QZVP\C4H6\BOITTIER\26-Aug-2020\0\\
 #p B2PLYPD3/Def2QZVP\\butadiene\\0,1\C,0,-3.830238,0.215763,-0.009848\
 C,0,-2.703113,-0.503455,0.070466\C,0,-1.386738,0.085885,0.040828\C,0,-
 0.291762,-0.664112,-0.010461\H,0,-4.795885,-0.209232,-0.006265\H,0,-3.
 802211,1.308568,-0.105871\H,0,-2.776888,-1.554245,0.218615\H,0,-1.2662
 93,1.160972,0.101782\H,0,-0.302798,-1.731279,-0.025734\H,0,0.665648,-0
 .192962,0.11248\\Version=ES64L-G09RevD.01\State=1-A\HF=-155.6986326\MP
 2=-155.9240107\RMSD=3.621e-09\PG=C01 [X(C4H6)]\\@

 Normal termination of Gaussian 09 at Wed Aug 26 08:40:46 2020.
