 Gaussian 09, Revision D.01,
 Gaussian 09:  ES64L-G09RevD.01 24-Apr-2013

 --------------------
 #p B2PLYPD3/Def2QZVP
 --------------------

 ---------
 butadiene
 ---------
 Symbolic Z-matrix:
 Charge =  0 Multiplicity = 1

                         Standard orientation:
 ---------------------------------------------------------------------
 Center     Atomic      Atomic             Coordinates (Angstroms)
 Number     Number       Type             X           Y           Z
 ---------------------------------------------------------------------
      1          6           0       -1.828708   -0.142317   -0.050895
      2          6           0       -0.615846    0.410709    0.053529
      3          6           0        0.604483   -0.339767    0.040387
      4          6           0        1.859620    0.107434   -0.081555
      5          1           0       -2.848466    0.422257   -0.130450
      6          1           0       -1.933127   -1.218741   -0.049566
      7          1           0       -0.667091    1.585402    0.244031
      8          1           0        0.544830   -1.437765    0.183553
      9          1           0        2.192096    1.105190   -0.101119
     10          1           0        2.594463   -0.672698    0.084753
 ---------------------------------------------------------------------

 SCF Done:  E(RB2PLYPD3) =  -155.679026551     A.U. after   11 cycles
 E2(B2PLYPD3) =    -0.2273624367D+00 E(B2PLYPD3) =    -0.15590638898776D+03

 The electronic state is 1-A.
 Alpha  occ. eigenvalues --  -10.63688 -10.62971 -10.62650 -10.61210  -0.93004
 Alpha  occ. eigenvalues --   -0.85026  -0.70039  -0.62928  -0.54760  -0.53422
 Alpha  occ. eigenvalues --   -0.45977  -0.44808  -0.40928  -0.37474  -0.27784
 Alpha virt. eigenvalues --    0.01311   0.06826   0.06894   0.07699   0.09838
 Alpha virt. eigenvalues --    0.11243   0.12393   0.14540   0.15717   0.16450
 Alpha virt. eigenvalues --    0.18829   0.19776   0.21440   0.21907   0.23873

 Mulliken charges:
               1
     1  C   -0.161418
     2  C   -0.034774
     3  C   -0.025876
     4  C   -0.170778
     5  H    0.078935
     6  H    0.060969
     7  H    0.052870
     8  H    0.051123
     9  H    0.075643
    10  H    0.073307
 Sum of Mulliken charges =   0.00000

 Dipole moment (field-independent basis, Debye):
    X=             -0.1104    Y=             -0.0383    Z=              0.2562  Tot=              0.2816
 Quadrupole moment (field-independent basis, Debye-Ang):
   XX=            -23.4343   YY=            -23.3294   ZZ=            -29.3292
   XY=              0.0794   XZ=              0.4519   YZ=             -0.1395

 1\1\GINC-NODE15\SP\RB2PLYPD3-FC\def2QZVP\C4H6\BOITTIER\26-Aug-2020\0\\
 #p B2PLYPD3/Def2QZVP\\butadiene\\0,1\C,0,-3.831043,0.241613,0.068992\C
 ,0,-2.730755,-0.512413,-0.023676\C,0,-1.400328,0.019102,-0.030256\C,0,
 -0.239122,-0.632559,0.100768\H,0,-4.931652,-0.138791,0.163492\H,0,-3.7
 50494,1.319745,0.041844\H,0,-2.982475,-1.665321,-0.185728\H,0,-1.27276
 ,1.107516,-0.199778\H,0,-0.081448,-1.671652,0.143946\H,0,0.61701,0.006
 723,-0.085279\\Version=ES64L-G09RevD.01\State=1-A\HF=-155.6790266\MP2=
 -155.906389\RMSD=9.225e-09\PG=C01 [X(C4H6)]\\@

 Normal termination of Gaussian 09 at Wed Aug 26 13:18:50 2020.
