 Gaussian 09, Revision D.01,
 Gaussian 09:  ES64L-G09RevD.01 24-Apr-2013

 --------------------
 #p B2PLYPD3/Def2QZVP
 --------------------

 ---------
 butadiene
 ---------
 Symbolic Z-matrix:
 Charge =  0 Multiplicity = 1

                         Standard orientation:
 ---------------------------------------------------------------------
 Center     Atomic      Atomic             Coordinates (Angstroms)
 Number     Number       Type             X           Y           Z
 ---------------------------------------------------------------------
      1          6           0       -1.841564    0.095410    0.022630
      2          6           0       -0.594946   -0.401598   -0.021353
      3          6           0        0.603521    0.430086   -0.016659
      4          6           0        1.834621   -0.122467    0.008620
      5          1           0       -2.728589   -0.527824   -0.028806
      6          1           0       -1.989199    1.172607    0.076249
      7          1           0       -0.444047   -1.450494   -0.049066
      8          1           0        0.469756    1.504165   -0.062631
      9          1           0        1.980916   -1.197812    0.087709
     10          1           0        2.701367    0.490771    0.017112
 ---------------------------------------------------------------------

 SCF Done:  E(RB2PLYPD3) =  -155.699820333     A.U. after   11 cycles
 E2(B2PLYPD3) =    -0.2260412693D+00 E(B2PLYPD3) =    -0.15592586160233D+03

 The electronic state is 1-A.
 Alpha  occ. eigenvalues --  -10.62814 -10.62335 -10.61609 -10.61586  -0.92826
 Alpha  occ. eigenvalues --   -0.84579  -0.70103  -0.64497  -0.54546  -0.53850
 Alpha  occ. eigenvalues --   -0.46581  -0.45741  -0.41574  -0.37878  -0.27434
 Alpha virt. eigenvalues --    0.01624   0.07044   0.07408   0.08143   0.09309
 Alpha virt. eigenvalues --    0.11699   0.12482   0.14672   0.15900   0.16157
 Alpha virt. eigenvalues --    0.18770   0.20457   0.21590   0.23082   0.23763

 Mulliken charges:
               1
     1  C   -0.177680
     2  C   -0.030341
     3  C   -0.036718
     4  C   -0.177244
     5  H    0.086194
     6  H    0.062269
     7  H    0.060381
     8  H    0.059708
     9  H    0.067833
    10  H    0.085597
 Sum of Mulliken charges =   0.00000

 Dipole moment (field-independent basis, Debye):
    X=              0.0386    Y=             -0.0032    Z=              0.0125  Tot=              0.0407
 Quadrupole moment (field-independent basis, Debye-Ang):
   XX=            -23.5848   YY=            -23.0004   ZZ=            -29.3265
   XY=             -0.1522   XZ=              0.1642   YZ=             -0.0108

 1\1\GINC-NODE31\SP\RB2PLYPD3-FC\def2QZVP\C4H6\BOITTIER\26-Aug-2020\0\\
 #p B2PLYPD3/Def2QZVP\\butadiene\\0,1\C,0,-3.845815,0.21479,0.039049\C,
 0,-2.710637,-0.501997,0.014654\C,0,-1.380778,0.097334,-0.00326\C,0,-0.
 270783,-0.669024,0.043282\H,0,-4.831616,-0.237858,0.004612\H,0,-3.7947
 28,1.302012,0.058116\H,0,-2.753293,-1.561179,0.020595\H,0,-1.316892,1.
 175813,-0.083592\H,0,-0.322489,-1.74998,0.156793\H,0,0.693141,-0.22386
 7,0.035049\\Version=ES64L-G09RevD.01\State=1-A\HF=-155.6998203\MP2=-15
 5.9258616\RMSD=5.713e-09\PG=C01 [X(C4H6)]\\@

 Normal termination of Gaussian 09 at Wed Aug 26 18:42:49 2020.
