 Gaussian 09, Revision D.01,
 Gaussian 09:  ES64L-G09RevD.01 24-Apr-2013

 --------------------
 #p B2PLYPD3/Def2QZVP
 --------------------

 ---------
 butadiene
 ---------
 Symbolic Z-matrix:
 Charge =  0 Multiplicity = 1

                         Standard orientation:
 ---------------------------------------------------------------------
 Center     Atomic      Atomic             Coordinates (Angstroms)
 Number     Number       Type             X           Y           Z
 ---------------------------------------------------------------------
      1          6           0       -1.853540   -0.124482   -0.040214
      2          6           0       -0.610822    0.418987    0.015384
      3          6           0        0.598856   -0.377734    0.037513
      4          6           0        1.853913    0.080098   -0.043652
      5          1           0       -2.713983    0.529659    0.055936
      6          1           0       -2.039804   -1.183913   -0.110033
      7          1           0       -0.469030    1.482170    0.126602
      8          1           0        0.456480   -1.456539    0.174233
      9          1           0        2.084593    1.171685   -0.052134
     10          1           0        2.751297   -0.524278   -0.008793
 ---------------------------------------------------------------------

 SCF Done:  E(RB2PLYPD3) =  -155.696792529     A.U. after   11 cycles
 E2(B2PLYPD3) =    -0.2265489825D+00 E(B2PLYPD3) =    -0.15592334151120D+03

 The electronic state is 1-A.
 Alpha  occ. eigenvalues --  -10.62948 -10.62722 -10.62035 -10.61968  -0.92736
 Alpha  occ. eigenvalues --   -0.84509  -0.70457  -0.63935  -0.54668  -0.53502
 Alpha  occ. eigenvalues --   -0.47025  -0.45390  -0.41014  -0.37634  -0.27545
 Alpha virt. eigenvalues --    0.01260   0.07022   0.07390   0.07972   0.09556
 Alpha virt. eigenvalues --    0.11532   0.12385   0.14669   0.15856   0.16127
 Alpha virt. eigenvalues --    0.19002   0.20355   0.21571   0.22431   0.23395

 Mulliken charges:
               1
     1  C   -0.176979
     2  C   -0.038111
     3  C   -0.030507
     4  C   -0.169303
     5  H    0.084644
     6  H    0.074061
     7  H    0.062488
     8  H    0.054615
     9  H    0.053825
    10  H    0.085268
 Sum of Mulliken charges =   0.00000

 Dipole moment (field-independent basis, Debye):
    X=             -0.0137    Y=             -0.0069    Z=              0.2012  Tot=              0.2018
 Quadrupole moment (field-independent basis, Debye-Ang):
   XX=            -23.2454   YY=            -23.2810   ZZ=            -29.3487
   XY=              0.3073   XZ=             -0.0547   YZ=              0.0981

 1\1\GINC-NODE22\SP\RB2PLYPD3-FC\def2QZVP\C4H6\BOITTIER\26-Aug-2020\0\\
 #p B2PLYPD3/Def2QZVP\\butadiene\\0,1\C,0,-3.850139,0.246119,0.053564\C
 ,0,-2.72778,-0.516425,0.013131\C,0,-1.392919,0.045099,-0.024416\C,0,-0
 .24251,-0.632411,0.069957\H,0,-4.815823,-0.24178,-0.0296\H,0,-3.839518
 ,1.323059,0.098837\H,0,-2.782892,-1.589869,-0.073545\H,0,-1.336012,1.1
 28356,-0.18597\H,0,-0.215187,-1.74729,0.103796\H,0,0.750141,-0.203161,
 0.023362\\Version=ES64L-G09RevD.01\State=1-A\HF=-155.6967925\MP2=-155.
 9233415\RMSD=8.190e-09\PG=C01 [X(C4H6)]\\@

 Normal termination of Gaussian 09 at Wed Aug 26 10:54:29 2020.
