 Gaussian 09, Revision D.01,
 Gaussian 09:  ES64L-G09RevD.01 24-Apr-2013

 --------------------
 #p B2PLYPD3/Def2QZVP
 --------------------

 ---------
 butadiene
 ---------
 Symbolic Z-matrix:
 Charge =  0 Multiplicity = 1

                         Standard orientation:
 ---------------------------------------------------------------------
 Center     Atomic      Atomic             Coordinates (Angstroms)
 Number     Number       Type             X           Y           Z
 ---------------------------------------------------------------------
      1          6           0        1.856133    0.098622   -0.025157
      2          6           0        0.618182   -0.375744    0.015004
      3          6           0       -0.611798    0.406069    0.039311
      4          6           0       -1.851876   -0.108383   -0.048486
      5          1           0        2.703893   -0.543672   -0.025204
      6          1           0        2.056216    1.134330   -0.082514
      7          1           0        0.473073   -1.403586    0.147610
      8          1           0       -0.545947    1.484004    0.107714
      9          1           0       -1.956317   -1.224747   -0.037611
     10          1           0       -2.794762    0.430285    0.005975
 ---------------------------------------------------------------------

 SCF Done:  E(RB2PLYPD3) =  -155.696278512     A.U. after   11 cycles
 E2(B2PLYPD3) =    -0.2255849781D+00 E(B2PLYPD3) =    -0.15592186349006D+03

 The electronic state is 1-A.
 Alpha  occ. eigenvalues --  -10.62765 -10.62197 -10.62146 -10.61029  -0.92966
 Alpha  occ. eigenvalues --   -0.85051  -0.70462  -0.64426  -0.54987  -0.53973
 Alpha  occ. eigenvalues --   -0.47469  -0.45128  -0.41100  -0.37805  -0.27863
 Alpha virt. eigenvalues --    0.01563   0.07017   0.07580   0.08078   0.09682
 Alpha virt. eigenvalues --    0.11543   0.12613   0.14513   0.15695   0.16534
 Alpha virt. eigenvalues --    0.18941   0.20142   0.21841   0.22529   0.23665

 Mulliken charges:
               1
     1  C   -0.175865
     2  C   -0.028243
     3  C   -0.041165
     4  C   -0.163662
     5  H    0.085909
     6  H    0.068838
     7  H    0.062165
     8  H    0.054802
     9  H    0.049489
    10  H    0.087732
 Sum of Mulliken charges =   0.00000

 Dipole moment (field-independent basis, Debye):
    X=              0.0194    Y=              0.0240    Z=              0.1428  Tot=              0.1461
 Quadrupole moment (field-independent basis, Debye-Ang):
   XX=            -22.9908   YY=            -23.4032   ZZ=            -29.1943
   XY=              0.0040   XZ=             -0.1814   YZ=             -0.0998

 1\1\GINC-NODE10\SP\RB2PLYPD3-FC\def2QZVP\C4H6\BOITTIER\26-Aug-2020\0\\
 #p B2PLYPD3/Def2QZVP\\butadiene\\0,1\C,0,-3.860705,0.20855,0.044382\C,
 0,-2.726221,-0.47798,0.016394\C,0,-1.377585,0.073304,-0.027653\C,0,-0.
 247527,-0.649842,0.073294\H,0,-4.808595,-0.27361,0.060666\H,0,-3.87440
 8,1.264421,0.075396\H,0,-2.765568,-1.518279,-0.09005\H,0,-1.252263,1.1
 43857,-0.123419\H,0,-0.342005,-1.76701,0.090787\H,0,0.775445,-0.287817
 ,0.005253\\Version=ES64L-G09RevD.01\State=1-A\HF=-155.6962785\MP2=-155
 .9218635\RMSD=4.911e-09\PG=C01 [X(C4H6)]\\@

 Normal termination of Gaussian 09 at Wed Aug 26 09:25:55 2020.
