 Gaussian 09, Revision D.01,
 Gaussian 09:  ES64L-G09RevD.01 24-Apr-2013

 --------------------
 #p B2PLYPD3/Def2QZVP
 --------------------

 ---------
 butadiene
 ---------
 Symbolic Z-matrix:
 Charge =  0 Multiplicity = 1

                         Standard orientation:
 ---------------------------------------------------------------------
 Center     Atomic      Atomic             Coordinates (Angstroms)
 Number     Number       Type             X           Y           Z
 ---------------------------------------------------------------------
      1          6           0       -1.834614   -0.132842   -0.000914
      2          6           0       -0.595726    0.410610    0.004996
      3          6           0        0.604088   -0.368922   -0.032354
      4          6           0        1.838590    0.094551    0.019953
      5          1           0       -2.691429    0.513225    0.090106
      6          1           0       -1.938874   -1.178303    0.002348
      7          1           0       -0.510645    1.509725   -0.072570
      8          1           0        0.418881   -1.440502   -0.011850
      9          1           0        1.994481    1.147802   -0.013369
     10          1           0        2.653559   -0.572326    0.055242
 ---------------------------------------------------------------------

 SCF Done:  E(RB2PLYPD3) =  -155.697423646     A.U. after   11 cycles
 E2(B2PLYPD3) =    -0.2256433952D+00 E(B2PLYPD3) =    -0.15592306704114D+03

 The electronic state is 1-A.
 Alpha  occ. eigenvalues --  -10.62638 -10.61985 -10.61383 -10.60784  -0.93386
 Alpha  occ. eigenvalues --   -0.85161  -0.70688  -0.63992  -0.54777  -0.54474
 Alpha  occ. eigenvalues --   -0.46371  -0.46287  -0.41406  -0.38269  -0.27528
 Alpha virt. eigenvalues --    0.01524   0.07068   0.07428   0.08096   0.09782
 Alpha virt. eigenvalues --    0.11785   0.12438   0.14896   0.15577   0.16259
 Alpha virt. eigenvalues --    0.18674   0.20017   0.21920   0.23038   0.24158

 Mulliken charges:
               1
     1  C   -0.185279
     2  C   -0.025496
     3  C   -0.019063
     4  C   -0.181989
     5  H    0.088600
     6  H    0.069699
     7  H    0.048556
     8  H    0.045141
     9  H    0.068638
    10  H    0.091194
 Sum of Mulliken charges =   0.00000

 Dipole moment (field-independent basis, Debye):
    X=             -0.0053    Y=             -0.0090    Z=              0.0289  Tot=              0.0307
 Quadrupole moment (field-independent basis, Debye-Ang):
   XX=            -23.6489   YY=            -23.0687   ZZ=            -29.1628
   XY=              0.0070   XZ=             -0.0851   YZ=             -0.0966

 1\1\GINC-NODE26\SP\RB2PLYPD3-FC\def2QZVP\C4H6\BOITTIER\26-Aug-2020\0\\
 #p B2PLYPD3/Def2QZVP\\butadiene\\0,1\C,0,-3.834074,0.246147,0.014717\C
 ,0,-2.713339,-0.511359,0.033593\C,0,-1.392609,0.040181,0.043279\C,0,-0
 .261995,-0.639754,0.01262\H,0,-4.793624,-0.238107,-0.052962\H,0,-3.748
 383,1.292337,-0.030158\H,0,-2.827222,-1.603903,0.154785\H,0,-1.381915,
 1.125942,-0.020073\H,0,-0.298167,-1.701716,0.087977\H,0,0.659571,-0.13
 2483,-0.046844\\Version=ES64L-G09RevD.01\State=1-A\HF=-155.6974236\MP2
 =-155.923067\RMSD=6.147e-09\PG=C01 [X(C4H6)]\\@

 Normal termination of Gaussian 09 at Wed Aug 26 08:54:29 2020.
