 Gaussian 09, Revision D.01,
 Gaussian 09:  ES64L-G09RevD.01 24-Apr-2013

 --------------------
 #p B2PLYPD3/Def2QZVP
 --------------------

 ---------
 butadiene
 ---------
 Symbolic Z-matrix:
 Charge =  0 Multiplicity = 1

                         Standard orientation:
 ---------------------------------------------------------------------
 Center     Atomic      Atomic             Coordinates (Angstroms)
 Number     Number       Type             X           Y           Z
 ---------------------------------------------------------------------
      1          6           0        1.836740    0.123083   -0.016113
      2          6           0        0.613248   -0.417346    0.023022
      3          6           0       -0.602811    0.385258    0.012235
      4          6           0       -1.834292   -0.101159   -0.027791
      5          1           0        2.754460   -0.504847   -0.011271
      6          1           0        1.905526    1.228237   -0.068602
      7          1           0        0.453876   -1.485692    0.043464
      8          1           0       -0.488623    1.458871    0.100781
      9          1           0       -1.999919   -1.168568   -0.015969
     10          1           0       -2.702633    0.532983    0.003478
 ---------------------------------------------------------------------

 SCF Done:  E(RB2PLYPD3) =  -155.699136988     A.U. after   11 cycles
 E2(B2PLYPD3) =    -0.2258158642D+00 E(B2PLYPD3) =    -0.15592495285237D+03

 The electronic state is 1-A.
 Alpha  occ. eigenvalues --  -10.62591 -10.62247 -10.62235 -10.61174  -0.93067
 Alpha  occ. eigenvalues --   -0.84941  -0.69733  -0.64078  -0.54397  -0.53818
 Alpha  occ. eigenvalues --   -0.46753  -0.45352  -0.41091  -0.38098  -0.27812
 Alpha virt. eigenvalues --    0.01869   0.07000   0.07369   0.08014   0.09584
 Alpha virt. eigenvalues --    0.11703   0.12429   0.14549   0.15752   0.16092
 Alpha virt. eigenvalues --    0.18696   0.20417   0.21396   0.22756   0.24099

 Mulliken charges:
               1
     1  C   -0.171893
     2  C   -0.038080
     3  C   -0.019824
     4  C   -0.178748
     5  H    0.089053
     6  H    0.065931
     7  H    0.055532
     8  H    0.050802
     9  H    0.061144
    10  H    0.086084
 Sum of Mulliken charges =   0.00000

 Dipole moment (field-independent basis, Debye):
    X=             -0.0127    Y=             -0.0221    Z=              0.0712  Tot=              0.0757
 Quadrupole moment (field-independent basis, Debye-Ang):
   XX=            -23.5823   YY=            -23.1330   ZZ=            -29.2865
   XY=             -0.0459   XZ=             -0.1929   YZ=              0.0101

 1\1\GINC-NODE31\SP\RB2PLYPD3-FC\def2QZVP\C4H6\BOITTIER\26-Aug-2020\0\\
 #p B2PLYPD3/Def2QZVP\\butadiene\\0,1\C,0,-3.835887,0.233455,0.035317\C
 ,0,-2.728017,-0.516633,0.012523\C,0,-1.388724,0.057146,-0.000138\C,0,-
 0.263005,-0.638922,0.054596\H,0,-4.850539,-0.221329,0.048827\H,0,-3.70
 7069,1.334304,0.055044\H,0,-2.760993,-1.596433,0.023763\H,0,-1.310892,
 1.130919,-0.120462\H,0,-0.289616,-1.718659,0.074426\H,0,0.703976,-0.17
 0309,0.004794\\Version=ES64L-G09RevD.01\State=1-A\HF=-155.699137\MP2=-
 155.9249529\RMSD=6.084e-09\PG=C01 [X(C4H6)]\\@

 Normal termination of Gaussian 09 at Wed Aug 26 21:39:19 2020.
