 Gaussian 09, Revision D.01,
 Gaussian 09:  ES64L-G09RevD.01 24-Apr-2013

 --------------------
 #p B2PLYPD3/Def2QZVP
 --------------------

 ---------
 butadiene
 ---------
 Symbolic Z-matrix:
 Charge =  0 Multiplicity = 1

                         Standard orientation:
 ---------------------------------------------------------------------
 Center     Atomic      Atomic             Coordinates (Angstroms)
 Number     Number       Type             X           Y           Z
 ---------------------------------------------------------------------
      1          6           0       -1.840959   -0.135253    0.083348
      2          6           0       -0.627032    0.396408   -0.057941
      3          6           0        0.604772   -0.331235   -0.091543
      4          6           0        1.845553    0.067620    0.068461
      5          1           0       -2.675426    0.500955    0.083248
      6          1           0       -1.956423   -1.177172   -0.023833
      7          1           0       -0.591680    1.480030   -0.065581
      8          1           0        0.434515   -1.358783   -0.174830
      9          1           0        2.186352    1.128310   -0.071853
     10          1           0        2.708661   -0.558579    0.238898
 ---------------------------------------------------------------------

 SCF Done:  E(RB2PLYPD3) =  -155.687890958     A.U. after   12 cycles
 E2(B2PLYPD3) =    -0.2252743290D+00 E(B2PLYPD3) =    -0.15591316528711D+03

 The electronic state is 1-A.
 Alpha  occ. eigenvalues --  -10.62277 -10.61883 -10.61741 -10.60882  -0.93614
 Alpha  occ. eigenvalues --   -0.85575  -0.71084  -0.64271  -0.55724  -0.53867
 Alpha  occ. eigenvalues --   -0.47865  -0.45280  -0.41227  -0.37595  -0.27841
 Alpha virt. eigenvalues --    0.01378   0.06972   0.07660   0.08057   0.09929
 Alpha virt. eigenvalues --    0.11611   0.12520   0.14953   0.15809   0.16517
 Alpha virt. eigenvalues --    0.19195   0.19669   0.21768   0.22752   0.23776

 Mulliken charges:
               1
     1  C   -0.171515
     2  C   -0.024243
     3  C   -0.033638
     4  C   -0.166374
     5  H    0.086489
     6  H    0.063826
     7  H    0.049311
     8  H    0.055006
     9  H    0.058934
    10  H    0.082204
 Sum of Mulliken charges =   0.00000

 Dipole moment (field-independent basis, Debye):
    X=              0.0123    Y=             -0.0184    Z=             -0.1301  Tot=              0.1320
 Quadrupole moment (field-independent basis, Debye-Ang):
   XX=            -23.0127   YY=            -23.5602   ZZ=            -28.9347
   XY=             -0.0036   XZ=              0.3340   YZ=             -0.0581

 1\1\GINC-NODE18\SP\RB2PLYPD3-FC\def2QZVP\C4H6\BOITTIER\26-Aug-2020\0\\
 #p B2PLYPD3/Def2QZVP\\butadiene\\0,1\C,0,-3.83763,0.24333,-0.062324\C,
 0,-2.737314,-0.49055,0.101903\C,0,-1.394868,0.005205,0.101403\C,0,-0.2
 47055,-0.616372,-0.041402\H,0,-4.772502,-0.232306,-0.032645\H,0,-3.763
 679,1.292786,-0.002427\H,0,-2.896516,-1.56152,0.158669\H,0,-1.37761,1.
 049299,0.138129\H,0,-0.100463,-1.713669,0.1466\H,0,0.712672,-0.163285,
 -0.240813\\Version=ES64L-G09RevD.01\State=1-A\HF=-155.687891\MP2=-155.
 9131653\RMSD=3.651e-09\PG=C01 [X(C4H6)]\\@

 Normal termination of Gaussian 09 at Wed Aug 26 14:58:40 2020.
