 Gaussian 09, Revision D.01,
 Gaussian 09:  ES64L-G09RevD.01 24-Apr-2013

 --------------------
 #p B2PLYPD3/Def2QZVP
 --------------------

 ---------
 butadiene
 ---------
 Symbolic Z-matrix:
 Charge =  0 Multiplicity = 1

                         Standard orientation:
 ---------------------------------------------------------------------
 Center     Atomic      Atomic             Coordinates (Angstroms)
 Number     Number       Type             X           Y           Z
 ---------------------------------------------------------------------
      1          6           0       -1.845620    0.102592    0.045954
      2          6           0       -0.599052   -0.406705   -0.021549
      3          6           0        0.600241    0.431970   -0.042016
      4          6           0        1.833900   -0.120743    0.031471
      5          1           0       -2.665693   -0.577531   -0.091050
      6          1           0       -1.991225    1.183718    0.103051
      7          1           0       -0.424687   -1.462480   -0.121631
      8          1           0        0.435741    1.550016   -0.081205
      9          1           0        1.927064   -1.189383    0.136712
     10          1           0        2.781983    0.452973   -0.029036
 ---------------------------------------------------------------------

 SCF Done:  E(RB2PLYPD3) =  -155.695081291     A.U. after   11 cycles
 E2(B2PLYPD3) =    -0.2269875144D+00 E(B2PLYPD3) =    -0.15592206880556D+03

 The electronic state is 1-A.
 Alpha  occ. eigenvalues --  -10.63406 -10.62641 -10.62126 -10.61660  -0.92628
 Alpha  occ. eigenvalues --   -0.84366  -0.69754  -0.63885  -0.54281  -0.53353
 Alpha  occ. eigenvalues --   -0.46285  -0.45833  -0.41279  -0.37656  -0.27416
 Alpha virt. eigenvalues --    0.01473   0.07044   0.07219   0.08001   0.09191
 Alpha virt. eigenvalues --    0.11701   0.12384   0.14578   0.15702   0.16064
 Alpha virt. eigenvalues --    0.18767   0.20391   0.21204   0.22734   0.23864

 Mulliken charges:
               1
     1  C   -0.182380
     2  C   -0.029803
     3  C   -0.033029
     4  C   -0.173565
     5  H    0.088074
     6  H    0.069657
     7  H    0.058786
     8  H    0.052126
     9  H    0.064680
    10  H    0.085454
 Sum of Mulliken charges =   0.00000

 Dipole moment (field-independent basis, Debye):
    X=              0.0513    Y=             -0.0336    Z=             -0.1194  Tot=              0.1342
 Quadrupole moment (field-independent basis, Debye-Ang):
   XX=            -23.8202   YY=            -23.0131   ZZ=            -29.4369
   XY=             -0.2278   XZ=              0.2855   YZ=              0.0731

 1\1\GINC-NODE33\SP\RB2PLYPD3-FC\def2QZVP\C4H6\BOITTIER\26-Aug-2020\0\\
 #p B2PLYPD3/Def2QZVP\\butadiene\\0,1\C,0,-3.847118,0.221935,0.058679\C
 ,0,-2.71404,-0.50716,0.009428\C,0,-1.382244,0.09861,-0.028775\C,0,-0.2
 69597,-0.667036,0.064018\H,0,-4.77736,-0.301158,-0.063312\H,0,-3.79361
 ,1.312649,0.086498\H,0,-2.734706,-1.579336,-0.061926\H,0,-1.340708,1.2
 26471,-0.098258\H,0,-0.37222,-1.731591,0.197949\H,0,0.766947,-0.277106
 ,-0.008123\\Version=ES64L-G09RevD.01\State=1-A\HF=-155.6950813\MP2=-15
 5.9220688\RMSD=4.072e-09\PG=C01 [X(C4H6)]\\@

 Normal termination of Gaussian 09 at Wed Aug 26 09:54:24 2020.
