 Gaussian 09, Revision D.01,
 Gaussian 09:  ES64L-G09RevD.01 24-Apr-2013

 --------------------
 #p B2PLYPD3/Def2QZVP
 --------------------

 ---------
 butadiene
 ---------
 Symbolic Z-matrix:
 Charge =  0 Multiplicity = 1

                         Standard orientation:
 ---------------------------------------------------------------------
 Center     Atomic      Atomic             Coordinates (Angstroms)
 Number     Number       Type             X           Y           Z
 ---------------------------------------------------------------------
      1          6           0       -1.809159    0.111859    0.016847
      2          6           0       -0.586667   -0.392853   -0.087789
      3          6           0        0.621895    0.427702   -0.062408
      4          6           0        1.811296   -0.118881    0.062903
      5          1           0       -2.789529   -0.538237    0.124699
      6          1           0       -2.021230    1.150695    0.328236
      7          1           0       -0.555033   -1.467882   -0.167009
      8          1           0        0.479362    1.544362   -0.106737
      9          1           0        1.850769   -1.252359    0.303638
     10          1           0        2.811469    0.396458   -0.060144
 ---------------------------------------------------------------------

 SCF Done:  E(RB2PLYPD3) =  -155.679202316     A.U. after   11 cycles
 E2(B2PLYPD3) =    -0.2271441214D+00 E(B2PLYPD3) =    -0.15590634643709D+03

 The electronic state is 1-A.
 Alpha  occ. eigenvalues --  -10.63104 -10.62659 -10.62636 -10.62408  -0.93217
 Alpha  occ. eigenvalues --   -0.84795  -0.68480  -0.63578  -0.54125  -0.53038
 Alpha  occ. eigenvalues --   -0.46693  -0.43515  -0.40546  -0.38002  -0.28000
 Alpha virt. eigenvalues --    0.01809   0.06869   0.07113   0.07579   0.09246
 Alpha virt. eigenvalues --    0.11509   0.12296   0.14255   0.15777   0.16223
 Alpha virt. eigenvalues --    0.18785   0.19589   0.21392   0.22051   0.23436

 Mulliken charges:
               1
     1  C   -0.156091
     2  C   -0.035511
     3  C   -0.038226
     4  C   -0.158089
     5  H    0.060941
     6  H    0.057393
     7  H    0.066371
     8  H    0.062723
     9  H    0.053473
    10  H    0.087016
 Sum of Mulliken charges =   0.00000

 Dipole moment (field-independent basis, Debye):
    X=              0.0848    Y=              0.0032    Z=              0.2583  Tot=              0.2719
 Quadrupole moment (field-independent basis, Debye-Ang):
   XX=            -23.7805   YY=            -23.4601   ZZ=            -29.2218
   XY=              0.0795   XZ=             -0.6911   YZ=             -0.0216

 1\1\GINC-NODE04\SP\RB2PLYPD3-FC\def2QZVP\C4H6\BOITTIER\26-Aug-2020\0\\
 #p B2PLYPD3/Def2QZVP\\butadiene\\0,1\C,0,-3.81875,0.208795,0.052867\C,
 0,-2.703871,-0.504432,-0.039443\C,0,-1.370793,0.093398,-0.04839\C,0,-0
 .293355,-0.647483,0.090725\H,0,-4.896068,-0.256526,0.187938\H,0,-3.843
 573,1.278632,0.328458\H,0,-2.860569,-1.570588,-0.080926\H,0,-1.31736,1
 .215661,-0.131344\H,0,-0.449123,-1.761689,0.371017\H,0,0.779861,-0.318
 744,-0.054879\\Version=ES64L-G09RevD.01\State=1-A\HF=-155.6792023\MP2=
 -155.9063464\RMSD=4.979e-09\PG=C01 [X(C4H6)]\\@

 Normal termination of Gaussian 09 at Wed Aug 26 12:06:32 2020.
