 Gaussian 09, Revision D.01,
 Gaussian 09:  ES64L-G09RevD.01 24-Apr-2013

 --------------------
 #p B2PLYPD3/Def2QZVP
 --------------------

 ---------
 butadiene
 ---------
 Symbolic Z-matrix:
 Charge =  0 Multiplicity = 1

                         Standard orientation:
 ---------------------------------------------------------------------
 Center     Atomic      Atomic             Coordinates (Angstroms)
 Number     Number       Type             X           Y           Z
 ---------------------------------------------------------------------
      1          6           0        1.854301   -0.124838   -0.053315
      2          6           0        0.629728    0.412538    0.067446
      3          6           0       -0.635243   -0.360366    0.002029
      4          6           0       -1.840331    0.115030   -0.021364
      5          1           0        2.731866    0.467428   -0.029776
      6          1           0        1.949624   -1.263555   -0.193159
      7          1           0        0.557565    1.510777    0.205278
      8          1           0       -0.525910   -1.398783    0.330248
      9          1           0       -2.188347    1.143410   -0.251403
     10          1           0       -2.575533   -0.713456   -0.029961
 ---------------------------------------------------------------------

 SCF Done:  E(RB2PLYPD3) =  -155.684230362     A.U. after   11 cycles
 E2(B2PLYPD3) =    -0.2262129108D+00 E(B2PLYPD3) =    -0.15591044327306D+03

 The electronic state is 1-A.
 Alpha  occ. eigenvalues --  -10.62963 -10.62284 -10.62121 -10.61555  -0.92771
 Alpha  occ. eigenvalues --   -0.85441  -0.69428  -0.62869  -0.54386  -0.53560
 Alpha  occ. eigenvalues --   -0.47228  -0.44600  -0.40241  -0.37207  -0.28513
 Alpha virt. eigenvalues --    0.02070   0.07022   0.07353   0.07685   0.09346
 Alpha virt. eigenvalues --    0.11236   0.12291   0.14685   0.14905   0.16175
 Alpha virt. eigenvalues --    0.18485   0.19659   0.21308   0.22343   0.24336

 Mulliken charges:
               1
     1  C   -0.170693
     2  C   -0.054007
     3  C   -0.026773
     4  C   -0.169982
     5  H    0.094434
     6  H    0.059020
     7  H    0.054471
     8  H    0.064740
     9  H    0.079050
    10  H    0.069740
 Sum of Mulliken charges =   0.00000

 Dipole moment (field-independent basis, Debye):
    X=             -0.0116    Y=              0.0712    Z=              0.0394  Tot=              0.0821
 Quadrupole moment (field-independent basis, Debye-Ang):
   XX=            -23.8200   YY=            -23.1938   ZZ=            -29.1010
   XY=             -0.0931   XZ=              0.1411   YZ=             -0.2229

 1\1\GINC-NODE08\SP\RB2PLYPD3-FC\def2QZVP\C4H6\BOITTIER\26-Aug-2020\0\\
 #p B2PLYPD3/Def2QZVP\\butadiene\\0,1\C,0,-3.854936,0.233486,-0.029183\
 C,0,-2.742171,-0.506286,0.102822\C,0,-1.362219,0.0331,0.021534\C,0,-0.
 258358,-0.645205,0.008129\H,0,-4.822103,-0.196356,0.006533\H,0,-3.7510
 97,1.368311,-0.19261\H,0,-2.861778,-1.597269,0.263396\H,0,-1.287994,1.
 081179,0.328147\H,0,-0.095454,-1.722949,-0.200507\H,0,0.609787,0.04228
 9,-0.017559\\Version=ES64L-G09RevD.01\State=1-A\HF=-155.6842304\MP2=-1
 55.9104433\RMSD=8.535e-09\PG=C01 [X(C4H6)]\\@

 Normal termination of Gaussian 09 at Wed Aug 26 14:43:59 2020.
