 Gaussian 09, Revision D.01,
 Gaussian 09:  ES64L-G09RevD.01 24-Apr-2013

 --------------------
 #p B2PLYPD3/Def2QZVP
 --------------------

 ---------
 butadiene
 ---------
 Symbolic Z-matrix:
 Charge =  0 Multiplicity = 1

                         Standard orientation:
 ---------------------------------------------------------------------
 Center     Atomic      Atomic             Coordinates (Angstroms)
 Number     Number       Type             X           Y           Z
 ---------------------------------------------------------------------
      1          6           0       -1.844512    0.117786    0.020327
      2          6           0       -0.619839   -0.406052   -0.022352
      3          6           0        0.606639    0.382692   -0.006684
      4          6           0        1.853533   -0.101641    0.007136
      5          1           0       -2.725953   -0.517836   -0.005199
      6          1           0       -1.980751    1.208719    0.064899
      7          1           0       -0.491073   -1.472063   -0.072509
      8          1           0        0.469847    1.464011   -0.078890
      9          1           0        2.013519   -1.177312    0.102557
     10          1           0        2.739487    0.537772   -0.001411
 ---------------------------------------------------------------------

 SCF Done:  E(RB2PLYPD3) =  -155.700315004     A.U. after   11 cycles
 E2(B2PLYPD3) =    -0.2259012638D+00 E(B2PLYPD3) =    -0.15592621626823D+03

 The electronic state is 1-A.
 Alpha  occ. eigenvalues --  -10.62648 -10.62491 -10.61850 -10.61788  -0.92877
 Alpha  occ. eigenvalues --   -0.84894  -0.69983  -0.63924  -0.54502  -0.53718
 Alpha  occ. eigenvalues --   -0.46920  -0.45373  -0.40915  -0.38039  -0.27807
 Alpha virt. eigenvalues --    0.01679   0.06988   0.07417   0.08006   0.09639
 Alpha virt. eigenvalues --    0.11651   0.12370   0.14599   0.15830   0.16071
 Alpha virt. eigenvalues --    0.18826   0.20426   0.21403   0.22672   0.23761

 Mulliken charges:
               1
     1  C   -0.172346
     2  C   -0.035130
     3  C   -0.026199
     4  C   -0.177790
     5  H    0.087999
     6  H    0.065977
     7  H    0.055635
     8  H    0.050993
     9  H    0.062813
    10  H    0.088047
 Sum of Mulliken charges =   0.00000

 Dipole moment (field-independent basis, Debye):
    X=             -0.0318    Y=             -0.0157    Z=             -0.0050  Tot=              0.0358
 Quadrupole moment (field-independent basis, Debye-Ang):
   XX=            -23.4107   YY=            -23.1990   ZZ=            -29.3081
   XY=             -0.0175   XZ=              0.0820   YZ=             -0.0556

 1\1\GINC-NODE29\SP\RB2PLYPD3-FC\def2QZVP\C4H6\BOITTIER\26-Aug-2020\0\\
 #p B2PLYPD3/Def2QZVP\\butadiene\\0,1\C,0,-3.845627,0.229341,0.036004\C
 ,0,-2.733446,-0.504561,0.013822\C,0,-1.386459,0.054175,0.006737\C,0,-0
 .245218,-0.642955,0.039781\H,0,-4.82592,-0.240321,0.029103\H,0,-3.7860
 38,1.328006,0.044269\H,0,-2.795986,-1.577571,-0.000865\H,0,-1.3295,1.1
 39643,-0.101397\H,0,-0.278274,-1.726219,0.170993\H,0,0.740079,-0.17148
 5,0.012516\\Version=ES64L-G09RevD.01\State=1-A\HF=-155.700315\MP2=-155
 .9262163\RMSD=3.258e-09\PG=C01 [X(C4H6)]\\@

 Normal termination of Gaussian 09 at Wed Aug 26 16:38:36 2020.
