 Gaussian 09, Revision D.01,
 Gaussian 09:  ES64L-G09RevD.01 24-Apr-2013

 --------------------
 #p B2PLYPD3/Def2QZVP
 --------------------

 ---------
 butadiene
 ---------
 Symbolic Z-matrix:
 Charge =  0 Multiplicity = 1

                         Standard orientation:
 ---------------------------------------------------------------------
 Center     Atomic      Atomic             Coordinates (Angstroms)
 Number     Number       Type             X           Y           Z
 ---------------------------------------------------------------------
      1          6           0        1.823001   -0.123652   -0.018073
      2          6           0        0.598136    0.429622   -0.007517
      3          6           0       -0.590537   -0.380874    0.010135
      4          6           0       -1.835983    0.079224   -0.023601
      5          1           0        2.696339    0.524692    0.113095
      6          1           0        1.946881   -1.242677   -0.080600
      7          1           0        0.459190    1.530296    0.037596
      8          1           0       -0.341998   -1.416084    0.115484
      9          1           0       -2.056683    1.130825    0.008202
     10          1           0       -2.671435   -0.552972    0.040556
 ---------------------------------------------------------------------

 SCF Done:  E(RB2PLYPD3) =  -155.695206415     A.U. after   11 cycles
 E2(B2PLYPD3) =    -0.2261511712D+00 E(B2PLYPD3) =    -0.15592135758670D+03

 The electronic state is 1-A.
 Alpha  occ. eigenvalues --  -10.62690 -10.62320 -10.62085 -10.60966  -0.93296
 Alpha  occ. eigenvalues --   -0.84750  -0.70395  -0.63852  -0.54904  -0.53457
 Alpha  occ. eigenvalues --   -0.46777  -0.45647  -0.41034  -0.38161  -0.27564
 Alpha virt. eigenvalues --    0.01580   0.07051   0.07223   0.08121   0.09566
 Alpha virt. eigenvalues --    0.11771   0.12392   0.14746   0.15697   0.16063
 Alpha virt. eigenvalues --    0.18710   0.20313   0.21564   0.22970   0.23758

 Mulliken charges:
               1
     1  C   -0.180537
     2  C   -0.025806
     3  C   -0.024333
     4  C   -0.176527
     5  H    0.087533
     6  H    0.065444
     7  H    0.051835
     8  H    0.053203
     9  H    0.064022
    10  H    0.085165
 Sum of Mulliken charges =   0.00000

 Dipole moment (field-independent basis, Debye):
    X=              0.0013    Y=              0.0243    Z=              0.2160  Tot=              0.2173
 Quadrupole moment (field-independent basis, Debye-Ang):
   XX=            -23.6748   YY=            -23.1268   ZZ=            -29.2472
   XY=             -0.3138   XZ=              0.0289   YZ=              0.0889

 1\1\GINC-NODE40\SP\RB2PLYPD3-FC\def2QZVP\C4H6\BOITTIER\26-Aug-2020\0\\
 #p B2PLYPD3/Def2QZVP\\butadiene\\0,1\C,0,-3.819829,0.24834,0.004172\C,
 0,-2.720553,-0.52438,0.036025\C,0,-1.400803,0.048639,0.027776\C,0,-0.2
 64032,-0.638,0.012181\H,0,-4.79871,-0.219613,0.156109\H,0,-3.731753,1.
 36791,-0.097209\H,0,-2.790468,-1.629362,0.119395\H,0,-1.450106,1.11509
 5,0.096845\H,0,-0.244499,-1.710618,0.080699\H,0,0.675532,-0.172089,0.0
 55942\\Version=ES64L-G09RevD.01\State=1-A\HF=-155.6952064\MP2=-155.921
 3576\RMSD=6.283e-09\PG=C01 [X(C4H6)]\\@

 Normal termination of Gaussian 09 at Wed Aug 26 10:40:36 2020.
