 Gaussian 09, Revision D.01,
 Gaussian 09:  ES64L-G09RevD.01 24-Apr-2013

 --------------------
 #p B2PLYPD3/Def2QZVP
 --------------------

 ---------
 butadiene
 ---------
 Symbolic Z-matrix:
 Charge =  0 Multiplicity = 1

                         Standard orientation:
 ---------------------------------------------------------------------
 Center     Atomic      Atomic             Coordinates (Angstroms)
 Number     Number       Type             X           Y           Z
 ---------------------------------------------------------------------
      1          6           0        1.837739   -0.114466    0.039610
      2          6           0        0.611554    0.416715   -0.060297
      3          6           0       -0.595046   -0.395703   -0.044888
      4          6           0       -1.845309    0.079758    0.021363
      5          1           0        2.730255    0.477273    0.060850
      6          1           0        2.004788   -1.163200    0.054095
      7          1           0        0.429425    1.520217    0.001086
      8          1           0       -0.439309   -1.453800   -0.027558
      9          1           0       -2.014958    1.175294    0.083127
     10          1           0       -2.763829   -0.473606    0.093677
 ---------------------------------------------------------------------

 SCF Done:  E(RB2PLYPD3) =  -155.696892154     A.U. after   11 cycles
 E2(B2PLYPD3) =    -0.2261048999D+00 E(B2PLYPD3) =    -0.15592299705362D+03

 The electronic state is 1-A.
 Alpha  occ. eigenvalues --  -10.63173 -10.62525 -10.61806 -10.61477  -0.92905
 Alpha  occ. eigenvalues --   -0.84737  -0.70503  -0.64089  -0.55197  -0.53396
 Alpha  occ. eigenvalues --   -0.47316  -0.45040  -0.40860  -0.38090  -0.27656
 Alpha virt. eigenvalues --    0.01532   0.07026   0.07344   0.08145   0.09454
 Alpha virt. eigenvalues --    0.11573   0.12669   0.14563   0.15795   0.16361
 Alpha virt. eigenvalues --    0.18890   0.20290   0.22181   0.22847   0.23304

 Mulliken charges:
               1
     1  C   -0.171451
     2  C   -0.029133
     3  C   -0.028930
     4  C   -0.168717
     5  H    0.084996
     6  H    0.066979
     7  H    0.053723
     8  H    0.055467
     9  H    0.049863
    10  H    0.087202
 Sum of Mulliken charges =   0.00000

 Dipole moment (field-independent basis, Debye):
    X=              0.0454    Y=             -0.0506    Z=              0.1690  Tot=              0.1822
 Quadrupole moment (field-independent basis, Debye-Ang):
   XX=            -23.0370   YY=            -23.3856   ZZ=            -29.2866
   XY=             -0.3274   XZ=             -0.1448   YZ=              0.0540

 1\1\GINC-NODE06\SP\RB2PLYPD3-FC\def2QZVP\C4H6\BOITTIER\26-Aug-2020\0\\
 #p B2PLYPD3/Def2QZVP\\butadiene\\0,1\C,0,-3.836358,0.235444,0.059416\C
 ,0,-2.729212,-0.515388,-0.018959\C,0,-1.393621,0.06106,-0.026025\C,0,-
 0.252099,-0.634031,0.05993\H,0,-4.822506,-0.180843,0.096962\H,0,-3.807
 42,1.296908,0.039081\H,0,-2.753207,-1.630948,0.079043\H,0,-1.351832,1.
 129732,-0.043784\H,0,-0.286894,-1.739456,0.15801\H,0,0.752794,-0.25716
 9,0.117228\\Version=ES64L-G09RevD.01\State=1-A\HF=-155.6968922\MP2=-15
 5.9229971\RMSD=6.433e-09\PG=C01 [X(C4H6)]\\@

 Normal termination of Gaussian 09 at Wed Aug 26 09:01:34 2020.
