 Gaussian 09, Revision D.01,
 Gaussian 09:  ES64L-G09RevD.01 24-Apr-2013

 --------------------
 #p B2PLYPD3/Def2QZVP
 --------------------

 ---------
 butadiene
 ---------
 Symbolic Z-matrix:
 Charge =  0 Multiplicity = 1

                         Standard orientation:
 ---------------------------------------------------------------------
 Center     Atomic      Atomic             Coordinates (Angstroms)
 Number     Number       Type             X           Y           Z
 ---------------------------------------------------------------------
      1          6           0       -1.849800    0.109598    0.013094
      2          6           0       -0.614052   -0.384930   -0.011568
      3          6           0        0.614668    0.403986   -0.027651
      4          6           0        1.839549   -0.115865    0.012199
      5          1           0       -2.661495   -0.570103    0.009735
      6          1           0       -2.025656    1.156609    0.065224
      7          1           0       -0.464177   -1.436891   -0.060610
      8          1           0        0.490091    1.480010   -0.029448
      9          1           0        1.953733   -1.199755    0.071991
     10          1           0        2.765313    0.493396    0.026660
 ---------------------------------------------------------------------

 SCF Done:  E(RB2PLYPD3) =  -155.699901421     A.U. after   11 cycles
 E2(B2PLYPD3) =    -0.2253467568D+00 E(B2PLYPD3) =    -0.15592524817800D+03

 The electronic state is 1-A.
 Alpha  occ. eigenvalues --  -10.62438 -10.62197 -10.61880 -10.61005  -0.93013
 Alpha  occ. eigenvalues --   -0.85138  -0.70143  -0.64281  -0.54583  -0.54096
 Alpha  occ. eigenvalues --   -0.46870  -0.45897  -0.40964  -0.38081  -0.27849
 Alpha virt. eigenvalues --    0.01824   0.06985   0.07505   0.08089   0.09693
 Alpha virt. eigenvalues --    0.11710   0.12413   0.14720   0.15802   0.16126
 Alpha virt. eigenvalues --    0.18768   0.20497   0.21559   0.22773   0.23997

 Mulliken charges:
               1
     1  C   -0.182267
     2  C   -0.029047
     3  C   -0.031121
     4  C   -0.172036
     5  H    0.088448
     6  H    0.071526
     7  H    0.054356
     8  H    0.052573
     9  H    0.061220
    10  H    0.086348
 Sum of Mulliken charges =   0.00000

 Dipole moment (field-independent basis, Debye):
    X=              0.0076    Y=             -0.0009    Z=              0.0552  Tot=              0.0558
 Quadrupole moment (field-independent basis, Debye-Ang):
   XX=            -23.4798   YY=            -23.1175   ZZ=            -29.2140
   XY=             -0.0628   XZ=              0.0835   YZ=              0.0484

 1\1\GINC-NODE16\SP\RB2PLYPD3-FC\def2QZVP\C4H6\BOITTIER\26-Aug-2020\0\\
 #p B2PLYPD3/Def2QZVP\\butadiene\\0,1\C,0,-3.852243,0.220039,0.031953\C
 ,0,-2.723912,-0.486387,0.023572\C,0,-1.374756,0.071265,-0.0111\C,0,-0.
 261448,-0.656395,0.04567\H,0,-4.771663,-0.304693,0.045184\H,0,-3.83940
 5,1.282662,0.055228\H,0,-2.763188,-1.549187,0.003458\H,0,-1.306443,1.1
 51869,-0.042402\H,0,-0.341236,-1.741319,0.135135\H,0,0.757762,-0.22089
 6,0.045712\\Version=ES64L-G09RevD.01\State=1-A\HF=-155.6999014\MP2=-15
 5.9252482\RMSD=5.085e-09\PG=C01 [X(C4H6)]\\@

 Normal termination of Gaussian 09 at Wed Aug 26 10:36:53 2020.
