 Gaussian 09, Revision D.01,
 Gaussian 09:  ES64L-G09RevD.01 24-Apr-2013

 --------------------
 #p B2PLYPD3/Def2QZVP
 --------------------

 ---------
 butadiene
 ---------
 Symbolic Z-matrix:
 Charge =  0 Multiplicity = 1

                         Standard orientation:
 ---------------------------------------------------------------------
 Center     Atomic      Atomic             Coordinates (Angstroms)
 Number     Number       Type             X           Y           Z
 ---------------------------------------------------------------------
      1          6           0        1.847537    0.126615    0.016284
      2          6           0        0.614436   -0.415560   -0.033778
      3          6           0       -0.605980    0.379740   -0.018472
      4          6           0       -1.846014   -0.104121    0.000292
      5          1           0        2.730019   -0.532237    0.039576
      6          1           0        1.971359    1.205290    0.036242
      7          1           0        0.468221   -1.495143    0.020586
      8          1           0       -0.488060    1.483554   -0.013698
      9          1           0       -2.066671   -1.148549    0.058469
     10          1           0       -2.674745    0.567045    0.072863
 ---------------------------------------------------------------------

 SCF Done:  E(RB2PLYPD3) =  -155.699099205     A.U. after   11 cycles
 E2(B2PLYPD3) =    -0.2260928639D+00 E(B2PLYPD3) =    -0.15592519206938D+03

 The electronic state is 1-A.
 Alpha  occ. eigenvalues --  -10.62858 -10.62674 -10.62091 -10.61113  -0.92782
 Alpha  occ. eigenvalues --   -0.84864  -0.70128  -0.63769  -0.54323  -0.53982
 Alpha  occ. eigenvalues --   -0.46473  -0.45793  -0.41008  -0.38015  -0.27664
 Alpha virt. eigenvalues --    0.01605   0.06975   0.07365   0.07994   0.09576
 Alpha virt. eigenvalues --    0.11687   0.12322   0.14781   0.15726   0.16122
 Alpha virt. eigenvalues --    0.18775   0.20299   0.21614   0.22729   0.23994

 Mulliken charges:
               1
     1  C   -0.175814
     2  C   -0.037314
     3  C   -0.020958
     4  C   -0.177523
     5  H    0.087425
     6  H    0.071824
     7  H    0.056492
     8  H    0.046378
     9  H    0.065455
    10  H    0.084035
 Sum of Mulliken charges =   0.00000

 Dipole moment (field-independent basis, Debye):
    X=              0.0039    Y=             -0.0181    Z=              0.1636  Tot=              0.1647
 Quadrupole moment (field-independent basis, Debye-Ang):
   XX=            -23.6099   YY=            -23.0332   ZZ=            -29.3399
   XY=              0.1507   XZ=             -0.1266   YZ=             -0.0480

 1\1\GINC-NODE16\SP\RB2PLYPD3-FC\def2QZVP\C4H6\BOITTIER\26-Aug-2020\0\\
 #p B2PLYPD3/Def2QZVP\\butadiene\\0,1\C,0,-3.845884,0.239996,-0.000068\
 C,0,-2.7292,-0.512192,0.06495\C,0,-1.386474,0.051712,0.029575\C,0,-0.2
 52837,-0.64614,0.024267\H,0,-4.831904,-0.251048,-0.006641\H,0,-3.77521
 3,1.32256,-0.048356\H,0,-2.778301,-1.601572,0.03898\H,0,-1.305446,1.15
 8341,-0.004189\H,0,-0.222432,-1.714334,-0.006389\H,0,0.682105,-0.13586
 7,-0.065345\\Version=ES64L-G09RevD.01\State=1-A\HF=-155.6990992\MP2=-1
 55.9251921\RMSD=6.531e-09\PG=C01 [X(C4H6)]\\@

 Normal termination of Gaussian 09 at Wed Aug 26 22:15:53 2020.
