 Gaussian 09, Revision D.01,
 Gaussian 09:  ES64L-G09RevD.01 24-Apr-2013

 --------------------
 #p B2PLYPD3/Def2QZVP
 --------------------

 ---------
 butadiene
 ---------
 Symbolic Z-matrix:
 Charge =  0 Multiplicity = 1

                         Standard orientation:
 ---------------------------------------------------------------------
 Center     Atomic      Atomic             Coordinates (Angstroms)
 Number     Number       Type             X           Y           Z
 ---------------------------------------------------------------------
      1          6           0       -1.844701   -0.116851   -0.028548
      2          6           0       -0.610399    0.408147    0.040800
      3          6           0        0.607144   -0.387360    0.014299
      4          6           0        1.840752    0.100463   -0.013032
      5          1           0       -2.691159    0.508455   -0.025546
      6          1           0       -2.026661   -1.164071    0.010451
      7          1           0       -0.489325    1.483207   -0.018550
      8          1           0        0.477776   -1.475325    0.008662
      9          1           0        2.066120    1.153802   -0.025669
     10          1           0        2.706468   -0.532464   -0.030467
 ---------------------------------------------------------------------

 SCF Done:  E(RB2PLYPD3) =  -155.700146393     A.U. after   11 cycles
 E2(B2PLYPD3) =    -0.2253822925D+00 E(B2PLYPD3) =    -0.15592552868520D+03

 The electronic state is 1-A.
 Alpha  occ. eigenvalues --  -10.62654 -10.62505 -10.61211 -10.61155  -0.92919
 Alpha  occ. eigenvalues --   -0.85087  -0.70616  -0.64113  -0.54949  -0.54078
 Alpha  occ. eigenvalues --   -0.46849  -0.45840  -0.41045  -0.38093  -0.27718
 Alpha virt. eigenvalues --    0.01676   0.07031   0.07490   0.08105   0.09623
 Alpha virt. eigenvalues --    0.11641   0.12519   0.14869   0.15791   0.16297
 Alpha virt. eigenvalues --    0.18877   0.20279   0.22092   0.22854   0.23699

 Mulliken charges:
               1
     1  C   -0.174198
     2  C   -0.036617
     3  C   -0.026538
     4  C   -0.173471
     5  H    0.084824
     6  H    0.068409
     7  H    0.058145
     8  H    0.052621
     9  H    0.063459
    10  H    0.083367
 Sum of Mulliken charges =   0.00000

 Dipole moment (field-independent basis, Debye):
    X=             -0.0104    Y=              0.0077    Z=             -0.0324  Tot=              0.0349
 Quadrupole moment (field-independent basis, Debye-Ang):
   XX=            -23.2494   YY=            -23.1314   ZZ=            -29.2076
   XY=              0.2659   XZ=             -0.0600   YZ=             -0.0881

 1\1\GINC-NODE35\SP\RB2PLYPD3-FC\def2QZVP\C4H6\BOITTIER\26-Aug-2020\0\\
 #p B2PLYPD3/Def2QZVP\\butadiene\\0,1\C,0,-3.844183,0.234705,0.046012\C
 ,0,-2.725442,-0.506968,-0.001651\C,0,-1.384026,0.055656,-0.000061\C,0,
 -0.258872,-0.645961,0.047584\H,0,-4.789766,-0.226919,0.062863\H,0,-3.8
 33923,1.29554,-0.0303\H,0,-2.80054,-1.583441,0.095824\H,0,-1.314501,1.
 148594,-0.033065\H,0,-0.227648,-1.721586,0.097877\H,0,0.707085,-0.1798
 23,0.044938\\Version=ES64L-G09RevD.01\State=1-A\HF=-155.7001464\MP2=-1
 55.9255287\RMSD=5.723e-09\PG=C01 [X(C4H6)]\\@

 Normal termination of Gaussian 09 at Wed Aug 26 20:59:36 2020.
