 Gaussian 09, Revision D.01,
 Gaussian 09:  ES64L-G09RevD.01 24-Apr-2013

 --------------------
 #p B2PLYPD3/Def2QZVP
 --------------------

 ---------
 butadiene
 ---------
 Symbolic Z-matrix:
 Charge =  0 Multiplicity = 1

                         Standard orientation:
 ---------------------------------------------------------------------
 Center     Atomic      Atomic             Coordinates (Angstroms)
 Number     Number       Type             X           Y           Z
 ---------------------------------------------------------------------
      1          6           0       -1.830254   -0.129461    0.007714
      2          6           0       -0.585692    0.462699   -0.042938
      3          6           0        0.565886   -0.376689   -0.028361
      4          6           0        1.827979    0.070356    0.014626
      5          1           0       -2.782893    0.444401    0.108535
      6          1           0       -1.773579   -1.231676    0.127403
      7          1           0       -0.413314    1.546058   -0.123618
      8          1           0        0.277611   -1.456313   -0.002590
      9          1           0        2.133347    1.139191    0.265137
     10          1           0        2.691312   -0.603093   -0.081112
 ---------------------------------------------------------------------

 SCF Done:  E(RB2PLYPD3) =  -155.683474785     A.U. after   11 cycles
 E2(B2PLYPD3) =    -0.2286729128D+00 E(B2PLYPD3) =    -0.15591214769792D+03

 The electronic state is 1-A.
 Alpha  occ. eigenvalues --  -10.63156 -10.62963 -10.62900 -10.62394  -0.93236
 Alpha  occ. eigenvalues --   -0.83779  -0.69804  -0.63714  -0.54616  -0.52200
 Alpha  occ. eigenvalues --   -0.46249  -0.45024  -0.41416  -0.38010  -0.26920
 Alpha virt. eigenvalues --    0.00866   0.06941   0.07020   0.07975   0.09064
 Alpha virt. eigenvalues --    0.11662   0.12343   0.14695   0.15350   0.16302
 Alpha virt. eigenvalues --    0.18562   0.19861   0.21304   0.22637   0.23615

 Mulliken charges:
               1
     1  C   -0.175833
     2  C   -0.028847
     3  C   -0.018840
     4  C   -0.182277
     5  H    0.090521
     6  H    0.058992
     7  H    0.059981
     8  H    0.048821
     9  H    0.066260
    10  H    0.081222
 Sum of Mulliken charges =   0.00000

 Dipole moment (field-independent basis, Debye):
    X=             -0.0122    Y=              0.0715    Z=              0.2266  Tot=              0.2379
 Quadrupole moment (field-independent basis, Debye-Ang):
   XX=            -23.7924   YY=            -23.3510   ZZ=            -29.4810
   XY=              0.1932   XZ=             -0.1918   YZ=              0.1202

 1\1\GINC-NODE24\SP\RB2PLYPD3-FC\def2QZVP\C4H6\BOITTIER\26-Aug-2020\0\\
 #p B2PLYPD3/Def2QZVP\\butadiene\\0,1\C,0,-3.820788,0.263152,0.003027\C
 ,0,-2.71211,-0.554032,0.075121\C,0,-1.421445,0.049069,0.038117\C,0,-0.
 268132,-0.631941,0.012239\H,0,-4.865818,-0.120956,-0.082863\H,0,-3.554
 98,1.330077,-0.150053\H,0,-2.749604,-1.647401,0.189264\H,0,-1.498254,1
 .162586,-0.021347\H,0,-0.173349,-1.74655,-0.204732\H,0,0.708245,-0.133
 222,0.089767\\Version=ES64L-G09RevD.01\State=1-A\HF=-155.6834748\MP2=-
 155.9121477\RMSD=8.836e-09\PG=C01 [X(C4H6)]\\@

 Normal termination of Gaussian 09 at Wed Aug 26 15:57:35 2020.
