 Gaussian 09, Revision D.01,
 Gaussian 09:  ES64L-G09RevD.01 24-Apr-2013

 --------------------
 #p B2PLYPD3/Def2QZVP
 --------------------

 ---------
 butadiene
 ---------
 Symbolic Z-matrix:
 Charge =  0 Multiplicity = 1

                         Standard orientation:
 ---------------------------------------------------------------------
 Center     Atomic      Atomic             Coordinates (Angstroms)
 Number     Number       Type             X           Y           Z
 ---------------------------------------------------------------------
      1          6           0        1.812904    0.110272    0.006578
      2          6           0        0.613280   -0.442911    0.001236
      3          6           0       -0.573891    0.384857   -0.011245
      4          6           0       -1.836450   -0.105772   -0.030341
      5          1           0        2.749034   -0.393176    0.097561
      6          1           0        1.725584    1.296716   -0.128656
      7          1           0        0.507177   -1.445722    0.048031
      8          1           0       -0.439642    1.464111    0.017336
      9          1           0       -1.977960   -1.155087   -0.094492
     10          1           0       -2.659255    0.554481    0.262847
 ---------------------------------------------------------------------

 SCF Done:  E(RB2PLYPD3) =  -155.681052307     A.U. after   11 cycles
 E2(B2PLYPD3) =    -0.2266631744D+00 E(B2PLYPD3) =    -0.15590771548145D+03

 The electronic state is 1-A.
 Alpha  occ. eigenvalues --  -10.62665 -10.62366 -10.61509 -10.61416  -0.93508
 Alpha  occ. eigenvalues --   -0.84774  -0.69573  -0.65000  -0.55237  -0.53579
 Alpha  occ. eigenvalues --   -0.46408  -0.44549  -0.41912  -0.38014  -0.27461
 Alpha virt. eigenvalues --    0.01579   0.06912   0.07407   0.08087   0.09262
 Alpha virt. eigenvalues --    0.11743   0.12629   0.14303   0.15778   0.16091
 Alpha virt. eigenvalues --    0.18497   0.19862   0.21140   0.22883   0.24559

 Mulliken charges:
               1
     1  C   -0.162102
     2  C   -0.040706
     3  C   -0.017876
     4  C   -0.186642
     5  H    0.095301
     6  H    0.042785
     7  H    0.063760
     8  H    0.055266
     9  H    0.066482
    10  H    0.083735
 Sum of Mulliken charges =   0.00000

 Dipole moment (field-independent basis, Debye):
    X=              0.1302    Y=             -0.1668    Z=              0.2072  Tot=              0.2962
 Quadrupole moment (field-independent basis, Debye-Ang):
   XX=            -24.0172   YY=            -23.1851   ZZ=            -29.1701
   XY=             -0.3983   XZ=             -0.4633   YZ=              0.0664

 1\1\GINC-NODE30\SP\RB2PLYPD3-FC\def2QZVP\C4H6\BOITTIER\26-Aug-2020\0\\
 #p B2PLYPD3/Def2QZVP\\butadiene\\0,1\C,0,-3.813112,0.222318,0.013944\C
 ,0,-2.731471,-0.535848,0.033305\C,0,-1.415566,0.06658,0.018932\C,0,-0.
 260738,-0.640909,0.050065\H,0,-4.824697,-0.108239,-0.060248\H,0,-3.514
 469,1.377481,0.113813\H,0,-2.806388,-1.542409,0.016018\H,0,-1.355243,1
 .15118,-0.041332\H,0,-0.308317,-1.696338,0.144982\H,0,0.664555,-0.1469
 52,-0.264165\\Version=ES64L-G09RevD.01\State=1-A\HF=-155.6810523\MP2=-
 155.9077155\RMSD=9.462e-09\PG=C01 [X(C4H6)]\\@

 Normal termination of Gaussian 09 at Wed Aug 26 15:25:02 2020.
