 Gaussian 09, Revision D.01,
 Gaussian 09:  ES64L-G09RevD.01 24-Apr-2013

 --------------------
 #p B2PLYPD3/Def2QZVP
 --------------------

 ---------
 butadiene
 ---------
 Symbolic Z-matrix:
 Charge =  0 Multiplicity = 1

                         Standard orientation:
 ---------------------------------------------------------------------
 Center     Atomic      Atomic             Coordinates (Angstroms)
 Number     Number       Type             X           Y           Z
 ---------------------------------------------------------------------
      1          6           0       -1.824361   -0.110622   -0.014256
      2          6           0       -0.580164    0.430923    0.050874
      3          6           0        0.582406   -0.366376   -0.002251
      4          6           0        1.815910    0.070052   -0.050313
      5          1           0       -2.884334    0.342221    0.028837
      6          1           0       -1.805963   -1.248788   -0.154363
      7          1           0       -0.416913    1.572132   -0.024447
      8          1           0        0.504359   -1.460505    0.135891
      9          1           0        1.987433    1.198131   -0.017471
     10          1           0        2.652673   -0.547052    0.127227
 ---------------------------------------------------------------------

 SCF Done:  E(RB2PLYPD3) =  -155.677117042     A.U. after   12 cycles
 E2(B2PLYPD3) =    -0.2279863124D+00 E(B2PLYPD3) =    -0.15590510335446D+03

 The electronic state is 1-A.
 Alpha  occ. eigenvalues --  -10.63718 -10.63588 -10.62069 -10.61309  -0.93786
 Alpha  occ. eigenvalues --   -0.84637  -0.69680  -0.62928  -0.54975  -0.52752
 Alpha  occ. eigenvalues --   -0.47036  -0.43274  -0.40635  -0.38689  -0.27576
 Alpha virt. eigenvalues --    0.01195   0.06904   0.07062   0.07756   0.09530
 Alpha virt. eigenvalues --    0.11416   0.12712   0.14058   0.15409   0.16479
 Alpha virt. eigenvalues --    0.18601   0.20008   0.21488   0.21864   0.24152

 Mulliken charges:
               1
     1  C   -0.157153
     2  C   -0.035995
     3  C   -0.005004
     4  C   -0.166690
     5  H    0.091492
     6  H    0.048230
     7  H    0.048047
     8  H    0.045591
     9  H    0.044892
    10  H    0.086591
 Sum of Mulliken charges =   0.00000

 Dipole moment (field-independent basis, Debye):
    X=             -0.0686    Y=             -0.0519    Z=              0.1394  Tot=              0.1638
 Quadrupole moment (field-independent basis, Debye-Ang):
   XX=            -23.2901   YY=            -23.6609   ZZ=            -29.3688
   XY=             -0.2140   XZ=              0.6654   YZ=             -0.1181

 1\1\GINC-NODE24\SP\RB2PLYPD3-FC\def2QZVP\C4H6\BOITTIER\26-Aug-2020\0\\
 #p B2PLYPD3/Def2QZVP\\butadiene\\0,1\C,0,-3.823964,0.23053,0.038624\C,
 0,-2.700727,-0.531956,-0.011297\C,0,-1.411308,0.039912,0.00972\C,0,-0.
 278226,-0.613461,0.069224\H,0,-4.949326,-0.021407,0.015077\H,0,-3.5960
 07,1.350133,0.138196\H,0,-2.748585,-1.680482,0.10394\H,0,-1.288927,1.1
 24402,-0.166905\H,0,-0.316597,-1.754314,0.075874\H,0,0.655665,-0.16677
 ,-0.132824\\Version=ES64L-G09RevD.01\State=1-A\HF=-155.677117\MP2=-155
 .9051034\RMSD=4.399e-09\PG=C01 [X(C4H6)]\\@

 Normal termination of Gaussian 09 at Wed Aug 26 11:38:42 2020.
