 Gaussian 09, Revision D.01,
 Gaussian 09:  ES64L-G09RevD.01 24-Apr-2013

 --------------------
 #p B2PLYPD3/Def2QZVP
 --------------------

 ---------
 butadiene
 ---------
 Symbolic Z-matrix:
 Charge =  0 Multiplicity = 1

                         Standard orientation:
 ---------------------------------------------------------------------
 Center     Atomic      Atomic             Coordinates (Angstroms)
 Number     Number       Type             X           Y           Z
 ---------------------------------------------------------------------
      1          6           0       -1.825008   -0.140889    0.029507
      2          6           0       -0.596053    0.437605   -0.005521
      3          6           0        0.588843   -0.387584   -0.042974
      4          6           0        1.835311    0.092034    0.010012
      5          1           0       -2.698244    0.527077   -0.075573
      6          1           0       -1.929468   -1.196481    0.107135
      7          1           0       -0.539136    1.499878   -0.084624
      8          1           0        0.384920   -1.430834   -0.046935
      9          1           0        2.047075    1.136516    0.146058
     10          1           0        2.716300   -0.543155    0.007798
 ---------------------------------------------------------------------

 SCF Done:  E(RB2PLYPD3) =  -155.696492753     A.U. after   11 cycles
 E2(B2PLYPD3) =    -0.2262188015D+00 E(B2PLYPD3) =    -0.15592271155409D+03

 The electronic state is 1-A.
 Alpha  occ. eigenvalues --  -10.62449 -10.62282 -10.61797 -10.61403  -0.93107
 Alpha  occ. eigenvalues --   -0.84525  -0.70104  -0.64834  -0.54525  -0.53926
 Alpha  occ. eigenvalues --   -0.46190  -0.46051  -0.41675  -0.37967  -0.27268
 Alpha virt. eigenvalues --    0.01484   0.07026   0.07506   0.08030   0.09315
 Alpha virt. eigenvalues --    0.11779   0.12410   0.14869   0.15752   0.16158
 Alpha virt. eigenvalues --    0.18745   0.20361   0.21514   0.23009   0.23832

 Mulliken charges:
               1
     1  C   -0.185815
     2  C   -0.030600
     3  C   -0.034927
     4  C   -0.174370
     5  H    0.081896
     6  H    0.072564
     7  H    0.064057
     8  H    0.060136
     9  H    0.066487
    10  H    0.080571
 Sum of Mulliken charges =   0.00000

 Dipole moment (field-independent basis, Debye):
    X=             -0.0100    Y=              0.0170    Z=              0.0207  Tot=              0.0286
 Quadrupole moment (field-independent basis, Debye-Ang):
   XX=            -23.8165   YY=            -22.9491   ZZ=            -29.2707
   XY=              0.1810   XZ=              0.4158   YZ=             -0.0910

 1\1\GINC-NODE17\SP\RB2PLYPD3-FC\def2QZVP\C4H6\BOITTIER\26-Aug-2020\0\\
 #p B2PLYPD3/Def2QZVP\\butadiene\\0,1\C,0,-3.821434,0.254255,-0.007459\
 C,0,-2.717871,-0.536554,0.047152\C,0,-1.402436,0.060042,0.051862\C,0,-
 0.264415,-0.64,0.014802\H,0,-4.800637,-0.239375,0.123892\H,0,-3.732905
 ,1.307693,-0.124267\H,0,-2.854351,-1.587851,0.165759\H,0,-1.413269,1.1
 22423,0.017208\H,0,-0.247203,-1.709827,-0.082504\H,0,0.717352,-0.17608
 2,-0.008119\\Version=ES64L-G09RevD.01\State=1-A\HF=-155.6964928\MP2=-1
 55.9227116\RMSD=6.664e-09\PG=C01 [X(C4H6)]\\@

 Normal termination of Gaussian 09 at Wed Aug 26 09:13:27 2020.
