 Gaussian 09, Revision D.01,
 Gaussian 09:  ES64L-G09RevD.01 24-Apr-2013

 --------------------
 #p B2PLYPD3/Def2QZVP
 --------------------

 ---------
 butadiene
 ---------
 Symbolic Z-matrix:
 Charge =  0 Multiplicity = 1

                         Standard orientation:
 ---------------------------------------------------------------------
 Center     Atomic      Atomic             Coordinates (Angstroms)
 Number     Number       Type             X           Y           Z
 ---------------------------------------------------------------------
      1          6           0       -1.844450   -0.109987   -0.027910
      2          6           0       -0.605784    0.394170    0.008938
      3          6           0        0.599221   -0.405863    0.018589
      4          6           0        1.844882    0.110410   -0.015273
      5          1           0       -2.674835    0.554095    0.024192
      6          1           0       -2.062187   -1.132683   -0.016171
      7          1           0       -0.471308    1.471027    0.091733
      8          1           0        0.487526   -1.497610    0.055447
      9          1           0        2.036189    1.180156   -0.058596
     10          1           0        2.721404   -0.507359   -0.002675
 ---------------------------------------------------------------------

 SCF Done:  E(RB2PLYPD3) =  -155.699431164     A.U. after   11 cycles
 E2(B2PLYPD3) =    -0.2258202649D+00 E(B2PLYPD3) =    -0.15592525142902D+03

 The electronic state is 1-A.
 Alpha  occ. eigenvalues --  -10.62824 -10.62565 -10.61681 -10.60964  -0.92885
 Alpha  occ. eigenvalues --   -0.84828  -0.70660  -0.64105  -0.54662  -0.54211
 Alpha  occ. eigenvalues --   -0.46610  -0.45876  -0.41328  -0.37981  -0.27497
 Alpha virt. eigenvalues --    0.01480   0.07024   0.07465   0.08044   0.09596
 Alpha virt. eigenvalues --    0.11638   0.12481   0.14884   0.15879   0.16202
 Alpha virt. eigenvalues --    0.18841   0.20550   0.21821   0.22758   0.23675

 Mulliken charges:
               1
     1  C   -0.177112
     2  C   -0.028213
     3  C   -0.034042
     4  C   -0.175257
     5  H    0.082421
     6  H    0.071084
     7  H    0.056949
     8  H    0.054746
     9  H    0.064136
    10  H    0.085289
 Sum of Mulliken charges =   0.00000

 Dipole moment (field-independent basis, Debye):
    X=              0.0008    Y=             -0.0125    Z=              0.1021  Tot=              0.1028
 Quadrupole moment (field-independent basis, Debye-Ang):
   XX=            -23.3654   YY=            -23.0754   ZZ=            -29.2689
   XY=              0.2873   XZ=             -0.1992   YZ=              0.0174

 1\1\GINC-NODE26\SP\RB2PLYPD3-FC\def2QZVP\C4H6\BOITTIER\26-Aug-2020\0\\
 #p B2PLYPD3/Def2QZVP\\butadiene\\0,1\C,0,-3.845339,0.227854,0.041086\C
 ,0,-2.719009,-0.493859,0.022789\C,0,-1.388683,0.073253,-0.005507\C,0,-
 0.257547,-0.659621,0.047245\H,0,-4.782688,-0.275473,0.005062\H,0,-3.87
 3588,1.27233,-0.000455\H,0,-2.78265,-1.579141,-0.028908\H,0,-1.300152,
 1.165612,-0.07376\H,0,-0.263781,-1.744639,0.121605\H,0,0.716635,-0.212
 05,0.020069\\Version=ES64L-G09RevD.01\State=1-A\HF=-155.6994312\MP2=-1
 55.9252514\RMSD=3.099e-09\PG=C01 [X(C4H6)]\\@

 Normal termination of Gaussian 09 at Wed Aug 26 19:08:23 2020.
