 Gaussian 09, Revision D.01,
 Gaussian 09:  ES64L-G09RevD.01 24-Apr-2013

 --------------------
 #p B2PLYPD3/Def2QZVP
 --------------------

 ---------
 butadiene
 ---------
 Symbolic Z-matrix:
 Charge =  0 Multiplicity = 1

                         Standard orientation:
 ---------------------------------------------------------------------
 Center     Atomic      Atomic             Coordinates (Angstroms)
 Number     Number       Type             X           Y           Z
 ---------------------------------------------------------------------
      1          6           0       -1.821344   -0.100045    0.022171
      2          6           0       -0.596238    0.386729   -0.044822
      3          6           0        0.585470   -0.412668   -0.039778
      4          6           0        1.820830    0.108930    0.036882
      5          1           0       -2.689321    0.556625    0.041357
      6          1           0       -2.028217   -1.155635    0.141003
      7          1           0       -0.411858    1.469155   -0.086646
      8          1           0        0.458546   -1.468305   -0.057262
      9          1           0        1.967387    1.194308    0.138950
     10          1           0        2.771152   -0.493825   -0.024122
 ---------------------------------------------------------------------

 SCF Done:  E(RB2PLYPD3) =  -155.697411593     A.U. after   11 cycles
 E2(B2PLYPD3) =    -0.2259683974D+00 E(B2PLYPD3) =    -0.15592337999085D+03

 The electronic state is 1-A.
 Alpha  occ. eigenvalues --  -10.62315 -10.62239 -10.62144 -10.61361  -0.93554
 Alpha  occ. eigenvalues --   -0.84716  -0.70075  -0.64244  -0.54564  -0.53776
 Alpha  occ. eigenvalues --   -0.46740  -0.45115  -0.41077  -0.38477  -0.27566
 Alpha virt. eigenvalues --    0.01617   0.06974   0.07365   0.07997   0.09720
 Alpha virt. eigenvalues --    0.11686   0.12411   0.14770   0.15849   0.16127
 Alpha virt. eigenvalues --    0.18760   0.20391   0.21690   0.22523   0.23565

 Mulliken charges:
               1
     1  C   -0.175677
     2  C   -0.021286
     3  C   -0.032165
     4  C   -0.172584
     5  H    0.082648
     6  H    0.066057
     7  H    0.052071
     8  H    0.059727
     9  H    0.059998
    10  H    0.081211
 Sum of Mulliken charges =   0.00000

 Dipole moment (field-independent basis, Debye):
    X=             -0.0097    Y=             -0.0176    Z=              0.0854  Tot=              0.0877
 Quadrupole moment (field-independent basis, Debye-Ang):
   XX=            -23.5151   YY=            -23.2245   ZZ=            -29.2135
   XY=              0.2599   XZ=             -0.2221   YZ=              0.0125

 1\1\GINC-NODE37\SP\RB2PLYPD3-FC\def2QZVP\C4H6\BOITTIER\26-Aug-2020\0\\
 #p B2PLYPD3/Def2QZVP\\butadiene\\0,1\C,0,-3.822709,0.217452,-0.009108\
 C,0,-2.70861,-0.485301,0.075997\C,0,-1.399491,0.081412,0.052798\C,0,-0
 .281985,-0.66151,-0.004677\H,0,-4.797158,-0.267731,-0.012996\H,0,-3.83
 1051,1.2893,-0.158305\H,0,-2.727459,-1.581532,0.148889\H,0,-1.329033,1
 .142384,0.040151\H,0,-0.338784,-1.75772,-0.075674\H,0,0.763488,-0.2433
 3,0.042827\\Version=ES64L-G09RevD.01\State=1-A\HF=-155.6974116\MP2=-15
 5.92338\RMSD=7.133e-09\PG=C01 [X(C4H6)]\\@

 Normal termination of Gaussian 09 at Wed Aug 26 08:45:08 2020.
