 Gaussian 09, Revision D.01,
 Gaussian 09:  ES64L-G09RevD.01 24-Apr-2013

 --------------------
 #p B2PLYPD3/Def2QZVP
 --------------------

 ---------
 butadiene
 ---------
 Symbolic Z-matrix:
 Charge =  0 Multiplicity = 1

                         Standard orientation:
 ---------------------------------------------------------------------
 Center     Atomic      Atomic             Coordinates (Angstroms)
 Number     Number       Type             X           Y           Z
 ---------------------------------------------------------------------
      1          6           0        1.841301    0.092360    0.022539
      2          6           0        0.596578   -0.392303   -0.010209
      3          6           0       -0.604805    0.416261   -0.026290
      4          6           0       -1.842986   -0.114918    0.011101
      5          1           0        2.748947   -0.522692    0.051764
      6          1           0        2.020707    1.174054   -0.052461
      7          1           0        0.448188   -1.453178   -0.054402
      8          1           0       -0.453669    1.487435    0.001035
      9          1           0       -1.993232   -1.208015   -0.004786
     10          1           0       -2.711466    0.513997    0.076006
 ---------------------------------------------------------------------

 SCF Done:  E(RB2PLYPD3) =  -155.699264072     A.U. after   11 cycles
 E2(B2PLYPD3) =    -0.2262037693D+00 E(B2PLYPD3) =    -0.15592546784118D+03

 The electronic state is 1-A.
 Alpha  occ. eigenvalues --  -10.62726 -10.62376 -10.61956 -10.61845  -0.92978
 Alpha  occ. eigenvalues --   -0.84601  -0.70139  -0.64189  -0.54682  -0.53505
 Alpha  occ. eigenvalues --   -0.46803  -0.45364  -0.41246  -0.38051  -0.27522
 Alpha virt. eigenvalues --    0.01522   0.06999   0.07361   0.08097   0.09495
 Alpha virt. eigenvalues --    0.11644   0.12446   0.14603   0.15798   0.16205
 Alpha virt. eigenvalues --    0.18796   0.20449   0.21568   0.22977   0.23607

 Mulliken charges:
               1
     1  C   -0.174133
     2  C   -0.025951
     3  C   -0.034993
     4  C   -0.176073
     5  H    0.084487
     6  H    0.059115
     7  H    0.055885
     8  H    0.057096
     9  H    0.066554
    10  H    0.088013
 Sum of Mulliken charges =   0.00000

 Dipole moment (field-independent basis, Debye):
    X=             -0.0161    Y=              0.0022    Z=             -0.0108  Tot=              0.0195
 Quadrupole moment (field-independent basis, Debye-Ang):
   XX=            -23.4139   YY=            -23.1776   ZZ=            -29.3381
   XY=              0.1571   XZ=             -0.2193   YZ=              0.0327

 1\1\GINC-NODE11\SP\RB2PLYPD3-FC\def2QZVP\C4H6\BOITTIER\26-Aug-2020\0\\
 #p B2PLYPD3/Def2QZVP\\butadiene\\0,1\C,0,-3.846978,0.211662,-0.001322\
 C,0,-2.711554,-0.491051,0.046778\C,0,-1.38263,0.084481,0.037954\C,0,-0
 .262517,-0.664897,0.017395\H,0,-4.851839,-0.227785,-0.011593\H,0,-3.82
 5387,1.309708,0.03993\H,0,-2.759185,-1.559319,0.124006\H,0,-1.335725,1
 .163888,-0.022736\H,0,-0.314363,-1.766035,0.067334\H,0,0.705855,-0.207
 555,-0.066859\\Version=ES64L-G09RevD.01\State=1-A\HF=-155.6992641\MP2=
 -155.9254678\RMSD=5.629e-09\PG=C01 [X(C4H6)]\\@

 Normal termination of Gaussian 09 at Wed Aug 26 20:35:32 2020.
