 Gaussian 09, Revision D.01,
 Gaussian 09:  ES64L-G09RevD.01 24-Apr-2013

 --------------------
 #p B2PLYPD3/Def2QZVP
 --------------------

 ---------
 butadiene
 ---------
 Symbolic Z-matrix:
 Charge =  0 Multiplicity = 1

                         Standard orientation:
 ---------------------------------------------------------------------
 Center     Atomic      Atomic             Coordinates (Angstroms)
 Number     Number       Type             X           Y           Z
 ---------------------------------------------------------------------
      1          6           0        1.865305   -0.132280   -0.051374
      2          6           0        0.587421    0.430625    0.056440
      3          6           0       -0.615621   -0.353227    0.017282
      4          6           0       -1.875825    0.066742   -0.041299
      5          1           0        2.803051    0.385545   -0.197344
      6          1           0        2.033767   -1.146393    0.218863
      7          1           0        0.555484    1.570202    0.068366
      8          1           0       -0.313040   -1.381131    0.024985
      9          1           0       -2.080311    1.078800    0.072443
     10          1           0       -2.766629   -0.578186   -0.073609
 ---------------------------------------------------------------------

 SCF Done:  E(RB2PLYPD3) =  -155.680573780     A.U. after   12 cycles
 E2(B2PLYPD3) =    -0.2278465528D+00 E(B2PLYPD3) =    -0.15590842033240D+03

 The electronic state is 1-A.
 Alpha  occ. eigenvalues --  -10.64245 -10.62608 -10.62519 -10.61474  -0.92855
 Alpha  occ. eigenvalues --   -0.84289  -0.71450  -0.64018  -0.54984  -0.53421
 Alpha  occ. eigenvalues --   -0.47202  -0.45446  -0.41216  -0.37588  -0.26976
 Alpha virt. eigenvalues --    0.00320   0.06980   0.07507   0.08025   0.09308
 Alpha virt. eigenvalues --    0.11503   0.12613   0.14603   0.15997   0.16397
 Alpha virt. eigenvalues --    0.18882   0.20215   0.21560   0.22814   0.23451

 Mulliken charges:
               1
     1  C   -0.180617
     2  C   -0.035132
     3  C   -0.020814
     4  C   -0.170246
     5  H    0.082152
     6  H    0.064095
     7  H    0.049563
     8  H    0.054607
     9  H    0.070172
    10  H    0.086220
 Sum of Mulliken charges =   0.00000

 Dipole moment (field-independent basis, Debye):
    X=              0.0600    Y=              0.0043    Z=              0.1705  Tot=              0.1808
 Quadrupole moment (field-independent basis, Debye-Ang):
   XX=            -22.7045   YY=            -23.7498   ZZ=            -29.3140
   XY=             -0.3595   XZ=             -0.1084   YZ=             -0.1798

 1\1\GINC-NODE15\SP\RB2PLYPD3-FC\def2QZVP\C4H6\BOITTIER\26-Aug-2020\0\\
 #p B2PLYPD3/Def2QZVP\\butadiene\\0,1\C,0,-3.866056,0.255841,-0.032263\
 C,0,-2.712375,-0.528109,0.093895\C,0,-1.386379,0.021084,0.03567\C,0,-0
 .224422,-0.623761,-0.008501\H,0,-4.883116,-0.085556,-0.165884\H,0,-3.8
 45405,1.290732,0.209411\H,0,-2.889371,-1.65353,0.137451\H,0,-1.495828,
 1.086805,0.014237\H,0,-0.20816,-1.652612,0.133677\H,0,0.769215,-0.1537
 94,-0.056715\\Version=ES64L-G09RevD.01\State=1-A\HF=-155.6805738\MP2=-
 155.9084203\RMSD=3.918e-09\PG=C01 [X(C4H6)]\\@

 Normal termination of Gaussian 09 at Wed Aug 26 12:14:04 2020.
