 Gaussian 09, Revision D.01,
 Gaussian 09:  ES64L-G09RevD.01 24-Apr-2013

 --------------------
 #p B2PLYPD3/Def2QZVP
 --------------------

 ---------
 butadiene
 ---------
 Symbolic Z-matrix:
 Charge =  0 Multiplicity = 1

                         Standard orientation:
 ---------------------------------------------------------------------
 Center     Atomic      Atomic             Coordinates (Angstroms)
 Number     Number       Type             X           Y           Z
 ---------------------------------------------------------------------
      1          6           0        1.848333    0.101010    0.020464
      2          6           0        0.610447   -0.390718   -0.030553
      3          6           0       -0.608763    0.420981   -0.032407
      4          6           0       -1.837864   -0.124171    0.007154
      5          1           0        2.716960   -0.560653    0.033667
      6          1           0        2.031681    1.160624    0.036003
      7          1           0        0.426473   -1.469634    0.016216
      8          1           0       -0.513184    1.518041   -0.002795
      9          1           0       -2.016961   -1.180863    0.032831
     10          1           0       -2.717893    0.489874    0.096130
 ---------------------------------------------------------------------

 SCF Done:  E(RB2PLYPD3) =  -155.699896751     A.U. after   11 cycles
 E2(B2PLYPD3) =    -0.2259576932D+00 E(B2PLYPD3) =    -0.15592585444450D+03

 The electronic state is 1-A.
 Alpha  occ. eigenvalues --  -10.62982 -10.62720 -10.61535 -10.61526  -0.92699
 Alpha  occ. eigenvalues --   -0.84812  -0.70117  -0.63949  -0.54429  -0.53890
 Alpha  occ. eigenvalues --   -0.46614  -0.45728  -0.40998  -0.37948  -0.27680
 Alpha virt. eigenvalues --    0.01707   0.07004   0.07369   0.08043   0.09444
 Alpha virt. eigenvalues --    0.11658   0.12421   0.14726   0.15835   0.16141
 Alpha virt. eigenvalues --    0.18826   0.20390   0.21665   0.23116   0.23591

 Mulliken charges:
               1
     1  C   -0.175776
     2  C   -0.030132
     3  C   -0.032767
     4  C   -0.174446
     5  H    0.085875
     6  H    0.068849
     7  H    0.055149
     8  H    0.054991
     9  H    0.065891
    10  H    0.082366
 Sum of Mulliken charges =   0.00000

 Dipole moment (field-independent basis, Debye):
    X=             -0.0377    Y=              0.0008    Z=              0.1497  Tot=              0.1543
 Quadrupole moment (field-independent basis, Debye-Ang):
   XX=            -23.4644   YY=            -23.0712   ZZ=            -29.3295
   XY=              0.2769   XZ=             -0.1844   YZ=              0.0173

 1\1\GINC-NODE26\SP\RB2PLYPD3-FC\def2QZVP\C4H6\BOITTIER\26-Aug-2020\0\\
 #p B2PLYPD3/Def2QZVP\\butadiene\\0,1\C,0,-3.851078,0.215421,-0.003242\
 C,0,-2.721576,-0.489386,0.061811\C,0,-1.376282,0.089504,0.041765\C,0,-
 0.265442,-0.668719,0.017744\H,0,-4.824579,-0.279309,0.001462\H,0,-3.84
 0962,1.289911,-0.048072\H,0,-2.734831,-1.584663,0.04489\H,0,-1.273159,
 1.184644,-0.018131\H,0,-0.279402,-1.740692,0.021292\H,0,0.710246,-0.22
 5642,-0.087782\\Version=ES64L-G09RevD.01\State=1-A\HF=-155.6998968\MP2
 =-155.9258544\RMSD=5.247e-09\PG=C01 [X(C4H6)]\\@

 Normal termination of Gaussian 09 at Wed Aug 26 13:29:20 2020.
