 Gaussian 09, Revision D.01,
 Gaussian 09:  ES64L-G09RevD.01 24-Apr-2013

 --------------------
 #p B2PLYPD3/Def2QZVP
 --------------------

 ---------
 butadiene
 ---------
 Symbolic Z-matrix:
 Charge =  0 Multiplicity = 1

                         Standard orientation:
 ---------------------------------------------------------------------
 Center     Atomic      Atomic             Coordinates (Angstroms)
 Number     Number       Type             X           Y           Z
 ---------------------------------------------------------------------
      1          6           0       -1.844015    0.101262    0.002271
      2          6           0       -0.586307   -0.381885   -0.042611
      3          6           0        0.608491    0.403679   -0.015668
      4          6           0        1.833985   -0.114532    0.004316
      5          1           0       -2.696309   -0.595244    0.086251
      6          1           0       -2.142451    1.150891    0.042376
      7          1           0       -0.438192   -1.438333    0.083045
      8          1           0        0.474779    1.490200    0.011750
      9          1           0        1.982491   -1.171859   -0.001126
     10          1           0        2.746759    0.513199    0.087856
 ---------------------------------------------------------------------

 SCF Done:  E(RB2PLYPD3) =  -155.697076301     A.U. after   11 cycles
 E2(B2PLYPD3) =    -0.2262360309D+00 E(B2PLYPD3) =    -0.15592331233144D+03

 The electronic state is 1-A.
 Alpha  occ. eigenvalues --  -10.62519 -10.62383 -10.62116 -10.61677  -0.93265
 Alpha  occ. eigenvalues --   -0.84647  -0.70383  -0.64136  -0.54516  -0.53833
 Alpha  occ. eigenvalues --   -0.46626  -0.45374  -0.40995  -0.38296  -0.27519
 Alpha virt. eigenvalues --    0.01380   0.06956   0.07429   0.07958   0.09667
 Alpha virt. eigenvalues --    0.11615   0.12377   0.14872   0.15630   0.16229
 Alpha virt. eigenvalues --    0.18814   0.20156   0.21877   0.22675   0.23715

 Mulliken charges:
               1
     1  C   -0.176237
     2  C   -0.031880
     3  C   -0.025831
     4  C   -0.172746
     5  H    0.076550
     6  H    0.068909
     7  H    0.058944
     8  H    0.053998
     9  H    0.065280
    10  H    0.083014
 Sum of Mulliken charges =   0.00000

 Dipole moment (field-independent basis, Debye):
    X=              0.0159    Y=              0.0083    Z=              0.2361  Tot=              0.2368
 Quadrupole moment (field-independent basis, Debye-Ang):
   XX=            -23.4092   YY=            -23.2218   ZZ=            -29.2782
   XY=             -0.3709   XZ=             -0.1396   YZ=             -0.0545

 1\1\GINC-NODE36\SP\RB2PLYPD3-FC\def2QZVP\C4H6\BOITTIER\26-Aug-2020\0\\
 #p B2PLYPD3/Def2QZVP\\butadiene\\0,1\C,0,-3.847709,0.222749,0.028227\C
 ,0,-2.700336,-0.48443,0.001624\C,0,-1.381509,0.068809,0.001372\C,0,-0.
 271861,-0.66461,0.040823\H,0,-4.812866,-0.301986,0.13641\H,0,-3.948173
 ,1.310083,0.030533\H,0,-2.747925,-1.545006,0.165102\H,0,-1.313352,1.16
 1685,-0.010194\H,0,-0.319989,-1.730749,0.073318\H,0,0.741097,-0.21263,
 0.102559\\Version=ES64L-G09RevD.01\State=1-A\HF=-155.6970763\MP2=-155.
 9233123\RMSD=4.852e-09\PG=C01 [X(C4H6)]\\@

 Normal termination of Gaussian 09 at Wed Aug 26 11:14:51 2020.
