 Gaussian 09, Revision D.01,
 Gaussian 09:  ES64L-G09RevD.01 24-Apr-2013

 --------------------
 #p B2PLYPD3/Def2QZVP
 --------------------

 ---------
 butadiene
 ---------
 Symbolic Z-matrix:
 Charge =  0 Multiplicity = 1

                         Standard orientation:
 ---------------------------------------------------------------------
 Center     Atomic      Atomic             Coordinates (Angstroms)
 Number     Number       Type             X           Y           Z
 ---------------------------------------------------------------------
      1          6           0        1.849771    0.102382    0.048957
      2          6           0        0.619849   -0.372778   -0.058352
      3          6           0       -0.624016    0.407344   -0.035754
      4          6           0       -1.832101   -0.133682    0.036930
      5          1           0        2.623480   -0.610533    0.139792
      6          1           0        2.075197    1.179411   -0.052980
      7          1           0        0.477379   -1.427659   -0.123196
      8          1           0       -0.572750    1.541375   -0.026871
      9          1           0       -1.978391   -1.203784    0.050824
     10          1           0       -2.705933    0.501593    0.061743
 ---------------------------------------------------------------------

 SCF Done:  E(RB2PLYPD3) =  -155.695947918     A.U. after   11 cycles
 E2(B2PLYPD3) =    -0.2254225712D+00 E(B2PLYPD3) =    -0.15592137048888D+03

 The electronic state is 1-A.
 Alpha  occ. eigenvalues --  -10.62897 -10.62237 -10.61319 -10.61261  -0.92887
 Alpha  occ. eigenvalues --   -0.85423  -0.69918  -0.63465  -0.54613  -0.54025
 Alpha  occ. eigenvalues --   -0.46594  -0.45778  -0.40883  -0.37862  -0.27981
 Alpha virt. eigenvalues --    0.02007   0.07011   0.07353   0.07991   0.09665
 Alpha virt. eigenvalues --    0.11663   0.12256   0.14699   0.15732   0.16254
 Alpha virt. eigenvalues --    0.18824   0.20125   0.21482   0.22706   0.24205

 Mulliken charges:
               1
     1  C   -0.176940
     2  C   -0.036959
     3  C   -0.024504
     4  C   -0.174970
     5  H    0.085991
     6  H    0.075383
     7  H    0.055534
     8  H    0.045163
     9  H    0.065378
    10  H    0.085925
 Sum of Mulliken charges =   0.00000

 Dipole moment (field-independent basis, Debye):
    X=             -0.0350    Y=             -0.0472    Z=             -0.0251  Tot=              0.0639
 Quadrupole moment (field-independent basis, Debye-Ang):
   XX=            -23.6854   YY=            -22.9884   ZZ=            -29.2065
   XY=              0.0156   XZ=             -0.0317   YZ=             -0.0971

 1\1\GINC-NODE28\SP\RB2PLYPD3-FC\def2QZVP\C4H6\BOITTIER\26-Aug-2020\0\\
 #p B2PLYPD3/Def2QZVP\\butadiene\\0,1\C,0,-3.853998,0.208628,-0.029005\
 C,0,-2.72608,-0.472379,0.089449\C,0,-1.364841,0.077115,0.052242\C,0,-0
 .270407,-0.668577,-0.00793\H,0,-4.740861,-0.359406,-0.106052\H,0,-3.88
 6997,1.310347,0.050518\H,0,-2.770461,-1.534356,0.176122\H,0,-1.216662,
 1.202165,0.019996\H,0,-0.313889,-1.747814,0.000338\H,0,0.701141,-0.196
 871,-0.044797\\Version=ES64L-G09RevD.01\State=1-A\HF=-155.6959479\MP2=
 -155.9213705\RMSD=3.667e-09\PG=C01 [X(C4H6)]\\@

 Normal termination of Gaussian 09 at Wed Aug 26 10:43:34 2020.
