 Gaussian 09, Revision D.01,
 Gaussian 09:  ES64L-G09RevD.01 24-Apr-2013

 --------------------
 #p B2PLYPD3/Def2QZVP
 --------------------

 ---------
 butadiene
 ---------
 Symbolic Z-matrix:
 Charge =  0 Multiplicity = 1

                         Standard orientation:
 ---------------------------------------------------------------------
 Center     Atomic      Atomic             Coordinates (Angstroms)
 Number     Number       Type             X           Y           Z
 ---------------------------------------------------------------------
      1          6           0        1.838111   -0.158653   -0.059512
      2          6           0        0.636455    0.431557    0.036305
      3          6           0       -0.600146   -0.333366    0.075609
      4          6           0       -1.867234    0.074000   -0.098393
      5          1           0        2.603979    0.542133    0.112176
      6          1           0        2.031878   -1.216885   -0.288815
      7          1           0        0.468234    1.536435    0.151013
      8          1           0       -0.404864   -1.359154    0.342326
      9          1           0       -2.065487    1.039906   -0.096283
     10          1           0       -2.676858   -0.623663    0.055525
 ---------------------------------------------------------------------

 SCF Done:  E(RB2PLYPD3) =  -155.679373363     A.U. after   11 cycles
 E2(B2PLYPD3) =    -0.2262383844D+00 E(B2PLYPD3) =    -0.15590561174710D+03

 The electronic state is 1-A.
 Alpha  occ. eigenvalues --  -10.63112 -10.62135 -10.61828 -10.60357  -0.92907
 Alpha  occ. eigenvalues --   -0.85251  -0.71109  -0.63750  -0.54742  -0.53977
 Alpha  occ. eigenvalues --   -0.47595  -0.46578  -0.40606  -0.36902  -0.27761
 Alpha virt. eigenvalues --    0.01171   0.07079   0.07469   0.07931   0.09610
 Alpha virt. eigenvalues --    0.11779   0.12285   0.14968   0.15565   0.16050
 Alpha virt. eigenvalues --    0.19151   0.19804   0.21162   0.22238   0.24096

 Mulliken charges:
               1
     1  C   -0.181674
     2  C   -0.041874
     3  C   -0.027425
     4  C   -0.180180
     5  H    0.086325
     6  H    0.088842
     7  H    0.052795
     8  H    0.053368
     9  H    0.068296
    10  H    0.081529
 Sum of Mulliken charges =   0.00000

 Dipole moment (field-independent basis, Debye):
    X=              0.1157    Y=              0.0293    Z=              0.2825  Tot=              0.3066
 Quadrupole moment (field-independent basis, Debye-Ang):
   XX=            -23.8768   YY=            -23.1449   ZZ=            -29.0133
   XY=             -0.5048   XZ=             -0.3353   YZ=              0.1667

 1\1\GINC-NODE12\SP\RB2PLYPD3-FC\def2QZVP\C4H6\BOITTIER\26-Aug-2020\0\\
 #p B2PLYPD3/Def2QZVP\\butadiene\\0,1\C,0,-3.829777,0.271312,-0.043905\
 C,0,-2.754215,-0.520669,0.088152\C,0,-1.399436,0.008853,0.091889\C,0,-
 0.227936,-0.629713,-0.054936\H,0,-4.708828,-0.269214,0.1616\H,0,-3.830
 162,1.333463,-0.329939\H,0,-2.788026,-1.630084,0.262127\H,0,-1.404439,
 1.06572,0.302887\H,0,-0.207692,-1.614054,-0.000661\H,0,0.695383,-0.082
 905,0.065049\\Version=ES64L-G09RevD.01\State=1-A\HF=-155.6793734\MP2=-
 155.9056117\RMSD=7.741e-09\PG=C01 [X(C4H6)]\\@

 Normal termination of Gaussian 09 at Wed Aug 26 11:05:10 2020.
