 Gaussian 09, Revision D.01,
 Gaussian 09:  ES64L-G09RevD.01 24-Apr-2013

 --------------------
 #p B2PLYPD3/Def2QZVP
 --------------------

 ---------
 butadiene
 ---------
 Symbolic Z-matrix:
 Charge =  0 Multiplicity = 1

                         Standard orientation:
 ---------------------------------------------------------------------
 Center     Atomic      Atomic             Coordinates (Angstroms)
 Number     Number       Type             X           Y           Z
 ---------------------------------------------------------------------
      1          6           0       -1.849703    0.083229   -0.042356
      2          6           0       -0.616987   -0.338606    0.100927
      3          6           0        0.643061    0.410885    0.044537
      4          6           0        1.859394   -0.142481   -0.074030
      5          1           0       -2.742585   -0.539604   -0.113934
      6          1           0       -2.157149    1.143305   -0.066043
      7          1           0       -0.547942   -1.400764   -0.027037
      8          1           0        0.572433    1.441707    0.003994
      9          1           0        1.870064   -1.178732   -0.006420
     10          1           0        2.790581    0.455921    0.034973
 ---------------------------------------------------------------------

 SCF Done:  E(RB2PLYPD3) =  -155.686855646     A.U. after   11 cycles
 E2(B2PLYPD3) =    -0.2255421066D+00 E(B2PLYPD3) =    -0.15591239775307D+03

 The electronic state is 1-A.
 Alpha  occ. eigenvalues --  -10.62358 -10.62248 -10.61709 -10.61504  -0.93110
 Alpha  occ. eigenvalues --   -0.85567  -0.70235  -0.64748  -0.55176  -0.53780
 Alpha  occ. eigenvalues --   -0.47249  -0.45333  -0.40428  -0.38025  -0.28192
 Alpha virt. eigenvalues --    0.01521   0.06923   0.07726   0.08048   0.09642
 Alpha virt. eigenvalues --    0.11615   0.12656   0.14622   0.15521   0.16222
 Alpha virt. eigenvalues --    0.19230   0.19396   0.22026   0.22357   0.24432

 Mulliken charges:
               1
     1  C   -0.159152
     2  C   -0.032183
     3  C   -0.040769
     4  C   -0.167767
     5  H    0.078807
     6  H    0.052523
     7  H    0.053113
     8  H    0.064121
     9  H    0.065386
    10  H    0.085920
 Sum of Mulliken charges =   0.00000

 Dipole moment (field-independent basis, Debye):
    X=             -0.0866    Y=              0.0440    Z=             -0.0418  Tot=              0.1057
 Quadrupole moment (field-independent basis, Debye-Ang):
   XX=            -22.9336   YY=            -23.5453   ZZ=            -29.1105
   XY=              0.1634   XZ=              0.6565   YZ=              0.1047

 1\1\GINC-NODE39\SP\RB2PLYPD3-FC\def2QZVP\C4H6\BOITTIER\26-Aug-2020\0\\
 #p B2PLYPD3/Def2QZVP\\butadiene\\0,1\C,0,-3.865141,0.179762,-0.034642\
 C,0,-2.722541,-0.442734,0.123561\C,0,-1.353306,0.080974,0.063872\C,0,-
 0.248148,-0.672705,-0.037777\H,0,-4.85053,-0.283592,-0.102423\H,0,-3.9
 88009,1.276096,-0.077078\H,0,-2.834362,-1.503181,0.012795\H,0,-1.24769
 8,1.108007,0.006638\H,0,-0.413872,-1.694461,0.046202\H,0,0.770692,-0.2
 39303,0.068066\\Version=ES64L-G09RevD.01\State=1-A\HF=-155.6868556\MP2
 =-155.9123978\RMSD=6.791e-09\PG=C01 [X(C4H6)]\\@

 Normal termination of Gaussian 09 at Wed Aug 26 11:50:53 2020.
