 Gaussian 09, Revision D.01,
 Gaussian 09:  ES64L-G09RevD.01 24-Apr-2013

 --------------------
 #p B2PLYPD3/Def2QZVP
 --------------------

 ---------
 butadiene
 ---------
 Symbolic Z-matrix:
 Charge =  0 Multiplicity = 1

                         Standard orientation:
 ---------------------------------------------------------------------
 Center     Atomic      Atomic             Coordinates (Angstroms)
 Number     Number       Type             X           Y           Z
 ---------------------------------------------------------------------
      1          6           0       -1.848171    0.099905   -0.002238
      2          6           0       -0.613285   -0.384873   -0.017612
      3          6           0        0.613390    0.413758   -0.013149
      4          6           0        1.841709   -0.119161    0.013634
      5          1           0       -2.740807   -0.542429    0.043831
      6          1           0       -2.010138    1.185329    0.072311
      7          1           0       -0.489684   -1.469693   -0.041667
      8          1           0        0.514511    1.485061    0.000340
      9          1           0        2.021630   -1.195112    0.083888
     10          1           0        2.742627    0.479073   -0.042506
 ---------------------------------------------------------------------

 SCF Done:  E(RB2PLYPD3) =  -155.699743002     A.U. after   11 cycles
 E2(B2PLYPD3) =    -0.2258112503D+00 E(B2PLYPD3) =    -0.15592555425252D+03

 The electronic state is 1-A.
 Alpha  occ. eigenvalues --  -10.62750 -10.62571 -10.61794 -10.61749  -0.92814
 Alpha  occ. eigenvalues --   -0.84929  -0.69873  -0.63983  -0.54528  -0.53748
 Alpha  occ. eigenvalues --   -0.46919  -0.45103  -0.40927  -0.38042  -0.27836
 Alpha virt. eigenvalues --    0.01759   0.06971   0.07415   0.07996   0.09581
 Alpha virt. eigenvalues --    0.11601   0.12430   0.14550   0.15833   0.16292
 Alpha virt. eigenvalues --    0.18885   0.20290   0.21690   0.22673   0.23608

 Mulliken charges:
               1
     1  C   -0.170692
     2  C   -0.027501
     3  C   -0.039345
     4  C   -0.169609
     5  H    0.085662
     6  H    0.060692
     7  H    0.054038
     8  H    0.059384
     9  H    0.064038
    10  H    0.083333
 Sum of Mulliken charges =   0.00000

 Dipole moment (field-independent basis, Debye):
    X=              0.0499    Y=             -0.0063    Z=              0.0896  Tot=              0.1027
 Quadrupole moment (field-independent basis, Debye-Ang):
   XX=            -23.3197   YY=            -23.1976   ZZ=            -29.3055
   XY=             -0.0745   XZ=             -0.2268   YZ=             -0.0203

 1\1\GINC-NODE19\SP\RB2PLYPD3-FC\def2QZVP\C4H6\BOITTIER\26-Aug-2020\0\\
 #p B2PLYPD3/Def2QZVP\\butadiene\\0,1\C,0,-3.852907,0.209732,0.021573\C
 ,0,-2.723481,-0.48639,0.020548\C,0,-1.374762,0.082077,0.001466\C,0,-0.
 260104,-0.659015,0.044001\H,0,-4.844931,-0.262688,0.08656\H,0,-3.81971
 3,1.308381,0.064045\H,0,-2.794065,-1.576181,0.02853\H,0,-1.282296,1.15
 3884,-0.016677\H,0,-0.273197,-1.747318,0.14599\H,0,0.732209,-0.231738,
 -0.029751\\Version=ES64L-G09RevD.01\State=1-A\HF=-155.699743\MP2=-155.
 9255543\RMSD=5.153e-09\PG=C01 [X(C4H6)]\\@

 Normal termination of Gaussian 09 at Wed Aug 26 19:34:18 2020.
