 Gaussian 09, Revision D.01,
 Gaussian 09:  ES64L-G09RevD.01 24-Apr-2013

 --------------------
 #p B2PLYPD3/Def2QZVP
 --------------------

 ---------
 butadiene
 ---------
 Symbolic Z-matrix:
 Charge =  0 Multiplicity = 1

                         Standard orientation:
 ---------------------------------------------------------------------
 Center     Atomic      Atomic             Coordinates (Angstroms)
 Number     Number       Type             X           Y           Z
 ---------------------------------------------------------------------
      1          6           0       -1.820464    0.105578   -0.029997
      2          6           0       -0.588016   -0.381524    0.029562
      3          6           0        0.596365    0.423644    0.027702
      4          6           0        1.816228   -0.131223   -0.046556
      5          1           0       -2.640878   -0.590321   -0.037105
      6          1           0       -2.005588    1.172204   -0.099620
      7          1           0       -0.534397   -1.465692    0.194180
      8          1           0        0.484282    1.487984    0.120074
      9          1           0        1.938230   -1.170713   -0.127755
     10          1           0        2.733674    0.467687    0.065960
 ---------------------------------------------------------------------

 SCF Done:  E(RB2PLYPD3) =  -155.697160356     A.U. after   11 cycles
 E2(B2PLYPD3) =    -0.2257046325D+00 E(B2PLYPD3) =    -0.15592286498889D+03

 The electronic state is 1-A.
 Alpha  occ. eigenvalues --  -10.62386 -10.62081 -10.61401 -10.61085  -0.93416
 Alpha  occ. eigenvalues --   -0.84976  -0.70115  -0.64178  -0.54796  -0.54086
 Alpha  occ. eigenvalues --   -0.46482  -0.45417  -0.41725  -0.38042  -0.27525
 Alpha virt. eigenvalues --    0.01749   0.07098   0.07414   0.07925   0.09598
 Alpha virt. eigenvalues --    0.11750   0.12398   0.14831   0.15627   0.16326
 Alpha virt. eigenvalues --    0.18721   0.19904   0.21742   0.22531   0.24372

 Mulliken charges:
               1
     1  C   -0.183522
     2  C   -0.020210
     3  C   -0.041116
     4  C   -0.173020
     5  H    0.083824
     6  H    0.066109
     7  H    0.054613
     8  H    0.062482
     9  H    0.070858
    10  H    0.079982
 Sum of Mulliken charges =   0.00000

 Dipole moment (field-independent basis, Debye):
    X=              0.0154    Y=             -0.0155    Z=              0.1366  Tot=              0.1383
 Quadrupole moment (field-independent basis, Debye-Ang):
   XX=            -23.8248   YY=            -22.9692   ZZ=            -29.1416
   XY=             -0.0431   XZ=              0.2167   YZ=              0.0265

 1\1\GINC-NODE11\SP\RB2PLYPD3-FC\def2QZVP\C4H6\BOITTIER\26-Aug-2020\0\\
 #p B2PLYPD3/Def2QZVP\\butadiene\\0,1\C,0,-3.825128,0.212661,-0.011364\
 C,0,-2.699774,-0.485391,0.06639\C,0,-1.390323,0.094235,0.045698\C,0,-0
 .289713,-0.672046,-0.008419\H,0,-4.756942,-0.324955,-0.00148\H,0,-3.81
 6305,1.292751,-0.112051\H,0,-2.840959,-1.556451,0.262073\H,0,-1.309779
 ,1.163645,0.10726\H,0,-0.356028,-1.718474,-0.059487\H,0,0.720365,-0.24
 4163,0.090169\\Version=ES64L-G09RevD.01\State=1-A\HF=-155.6971604\MP2=
 -155.922865\RMSD=7.036e-09\PG=C01 [X(C4H6)]\\@

 Normal termination of Gaussian 09 at Wed Aug 26 08:39:23 2020.
