 Gaussian 09, Revision D.01,
 Gaussian 09:  ES64L-G09RevD.01 24-Apr-2013

 --------------------
 #p B2PLYPD3/Def2QZVP
 --------------------

 ---------
 butadiene
 ---------
 Symbolic Z-matrix:
 Charge =  0 Multiplicity = 1

                         Standard orientation:
 ---------------------------------------------------------------------
 Center     Atomic      Atomic             Coordinates (Angstroms)
 Number     Number       Type             X           Y           Z
 ---------------------------------------------------------------------
      1          6           0       -1.831582   -0.112159   -0.009453
      2          6           0       -0.602746    0.409072    0.013161
      3          6           0        0.602681   -0.390171    0.003154
      4          6           0        1.840296    0.102641   -0.021840
      5          1           0       -2.710575    0.494262   -0.005371
      6          1           0       -1.992390   -1.177341   -0.034094
      7          1           0       -0.477832    1.464894    0.034612
      8          1           0        0.429098   -1.449644    0.064438
      9          1           0        2.005635    1.172277    0.002524
     10          1           0        2.694170   -0.560748    0.027761
 ---------------------------------------------------------------------

 SCF Done:  E(RB2PLYPD3) =  -155.701125799     A.U. after   11 cycles
 E2(B2PLYPD3) =    -0.2253514882D+00 E(B2PLYPD3) =    -0.15592647728767D+03

 The electronic state is 1-A.
 Alpha  occ. eigenvalues --  -10.62231 -10.62150 -10.61451 -10.61315  -0.93216
 Alpha  occ. eigenvalues --   -0.84980  -0.70393  -0.64462  -0.54749  -0.54050
 Alpha  occ. eigenvalues --   -0.46884  -0.45848  -0.41250  -0.38176  -0.27669
 Alpha virt. eigenvalues --    0.01727   0.07023   0.07477   0.08154   0.09675
 Alpha virt. eigenvalues --    0.11739   0.12475   0.14803   0.15850   0.16129
 Alpha virt. eigenvalues --    0.18775   0.20551   0.21640   0.22972   0.23860

 Mulliken charges:
               1
     1  C   -0.176084
     2  C   -0.029993
     3  C   -0.027625
     4  C   -0.179131
     5  H    0.085130
     6  H    0.063433
     7  H    0.056133
     8  H    0.054490
     9  H    0.066970
    10  H    0.086676
 Sum of Mulliken charges =   0.00000

 Dipole moment (field-independent basis, Debye):
    X=             -0.0473    Y=              0.0048    Z=              0.0940  Tot=              0.1053
 Quadrupole moment (field-independent basis, Debye-Ang):
   XX=            -23.4845   YY=            -23.1017   ZZ=            -29.1909
   XY=              0.1737   XZ=              0.2025   YZ=             -0.0168

 1\1\GINC-NODE12\SP\RB2PLYPD3-FC\def2QZVP\C4H6\BOITTIER\26-Aug-2020\0\\
 #p B2PLYPD3/Def2QZVP\\butadiene\\0,1\C,0,-3.833347,0.230226,0.028223\C
 ,0,-2.720156,-0.506657,0.02191\C,0,-1.389271,0.059462,0.007865\C,0,-0.
 26202,-0.649658,0.048272\H,0,-4.808109,-0.205698,0.042399\H,0,-3.79729
 8,1.307127,0.02027\H,0,-2.789777,-1.567722,0.032754\H,0,-1.367275,1.13
 0496,-0.085802\H,0,-0.294424,-1.731754,0.056639\H,0,0.698138,-0.154783
 ,-0.02131\\Version=ES64L-G09RevD.01\State=1-A\HF=-155.7011258\MP2=-155
 .9264773\RMSD=3.319e-09\PG=C01 [X(C4H6)]\\@

 Normal termination of Gaussian 09 at Wed Aug 26 12:48:41 2020.
