 Gaussian 09, Revision D.01,
 Gaussian 09:  ES64L-G09RevD.01 24-Apr-2013

 --------------------
 #p B2PLYPD3/Def2QZVP
 --------------------

 ---------
 butadiene
 ---------
 Symbolic Z-matrix:
 Charge =  0 Multiplicity = 1

                         Standard orientation:
 ---------------------------------------------------------------------
 Center     Atomic      Atomic             Coordinates (Angstroms)
 Number     Number       Type             X           Y           Z
 ---------------------------------------------------------------------
      1          6           0        1.836633    0.090343    0.002647
      2          6           0        0.604359   -0.397436   -0.000655
      3          6           0       -0.594331    0.416692   -0.009649
      4          6           0       -1.833810   -0.111927    0.011287
      5          1           0        2.719798   -0.507022   -0.022723
      6          1           0        1.980666    1.174796    0.095684
      7          1           0        0.418978   -1.462885   -0.046356
      8          1           0       -0.448060    1.509332   -0.087175
      9          1           0       -2.007716   -1.197620    0.029943
     10          1           0       -2.740777    0.497368    0.008848
 ---------------------------------------------------------------------

 SCF Done:  E(RB2PLYPD3) =  -155.699308075     A.U. after   11 cycles
 E2(B2PLYPD3) =    -0.2260677846D+00 E(B2PLYPD3) =    -0.15592537585967D+03

 The electronic state is 1-A.
 Alpha  occ. eigenvalues --  -10.62963 -10.62328 -10.62074 -10.61381  -0.93053
 Alpha  occ. eigenvalues --   -0.84702  -0.70157  -0.63900  -0.54963  -0.53344
 Alpha  occ. eigenvalues --   -0.46999  -0.45152  -0.41014  -0.38166  -0.27641
 Alpha virt. eigenvalues --    0.01666   0.07047   0.07278   0.08090   0.09502
 Alpha virt. eigenvalues --    0.11645   0.12505   0.14593   0.15833   0.16151
 Alpha virt. eigenvalues --    0.18761   0.20450   0.21698   0.22943   0.23489

 Mulliken charges:
               1
     1  C   -0.174263
     2  C   -0.023803
     3  C   -0.031717
     4  C   -0.175357
     5  H    0.089014
     6  H    0.059949
     7  H    0.053883
     8  H    0.054462
     9  H    0.063246
    10  H    0.084585
 Sum of Mulliken charges =   0.00000

 Dipole moment (field-independent basis, Debye):
    X=             -0.0074    Y=             -0.0235    Z=             -0.0246  Tot=              0.0348
 Quadrupole moment (field-independent basis, Debye-Ang):
   XX=            -23.3387   YY=            -23.2398   ZZ=            -29.3038
   XY=              0.2224   XZ=              0.0459   YZ=              0.0497

 1\1\GINC-NODE08\SP\RB2PLYPD3-FC\def2QZVP\C4H6\BOITTIER\26-Aug-2020\0\\
 #p B2PLYPD3/Def2QZVP\\butadiene\\0,1\C,0,-3.839307,0.212042,0.015649\C
 ,0,-2.717878,-0.493917,0.037059\C,0,-1.389784,0.085508,0.023832\C,0,-0
 .268871,-0.662648,0.022295\H,0,-4.817255,-0.211456,0.057299\H,0,-3.781
 554,1.301083,-0.111218\H,0,-2.731646,-1.573359,0.116127\H,0,-1.332165,
 1.188262,0.067187\H,0,-0.297855,-1.76185,0.037635\H,0,0.73476,-0.23095
 4,0.008131\\Version=ES64L-G09RevD.01\State=1-A\HF=-155.6993081\MP2=-15
 5.9253759\RMSD=5.307e-09\PG=C01 [X(C4H6)]\\@

 Normal termination of Gaussian 09 at Wed Aug 26 08:46:25 2020.
