 Gaussian 09, Revision D.01,
 Gaussian 09:  ES64L-G09RevD.01 24-Apr-2013

 --------------------
 #p B2PLYPD3/Def2QZVP
 --------------------

 ---------
 butadiene
 ---------
 Symbolic Z-matrix:
 Charge =  0 Multiplicity = 1

                         Standard orientation:
 ---------------------------------------------------------------------
 Center     Atomic      Atomic             Coordinates (Angstroms)
 Number     Number       Type             X           Y           Z
 ---------------------------------------------------------------------
      1          6           0       -1.840212    0.105266    0.012425
      2          6           0       -0.610705   -0.386413   -0.028027
      3          6           0        0.617039    0.402636   -0.030161
      4          6           0        1.846359   -0.121100    0.016954
      5          1           0       -2.681940   -0.532976    0.079603
      6          1           0       -2.035733    1.174401    0.042307
      7          1           0       -0.508690   -1.470019   -0.051580
      8          1           0        0.491205    1.474287   -0.003173
      9          1           0        1.980678   -1.177694    0.071474
     10          1           0        2.679592    0.529673    0.034222
 ---------------------------------------------------------------------

 SCF Done:  E(RB2PLYPD3) =  -155.700617812     A.U. after   11 cycles
 E2(B2PLYPD3) =    -0.2251439421D+00 E(B2PLYPD3) =    -0.15592576175409D+03

 The electronic state is 1-A.
 Alpha  occ. eigenvalues --  -10.62473 -10.62336 -10.61127 -10.61094  -0.92963
 Alpha  occ. eigenvalues --   -0.85291  -0.70370  -0.64054  -0.54834  -0.54300
 Alpha  occ. eigenvalues --   -0.46738  -0.46005  -0.41125  -0.38069  -0.27816
 Alpha virt. eigenvalues --    0.01843   0.07035   0.07489   0.08108   0.09718
 Alpha virt. eigenvalues --    0.11712   0.12422   0.14808   0.15807   0.16234
 Alpha virt. eigenvalues --    0.18831   0.20406   0.21728   0.22775   0.24035

 Mulliken charges:
               1
     1  C   -0.175503
     2  C   -0.025971
     3  C   -0.034215
     4  C   -0.178742
     5  H    0.086292
     6  H    0.062530
     7  H    0.050225
     8  H    0.054792
     9  H    0.071054
    10  H    0.089537
 Sum of Mulliken charges =   0.00000

 Dipole moment (field-independent basis, Debye):
    X=             -0.0053    Y=              0.0039    Z=              0.1237  Tot=              0.1239
 Quadrupole moment (field-independent basis, Debye-Ang):
   XX=            -23.4996   YY=            -23.0356   ZZ=            -29.1747
   XY=             -0.0441   XZ=             -0.0493   YZ=             -0.0110

 1\1\GINC-NODE31\SP\RB2PLYPD3-FC\def2QZVP\C4H6\BOITTIER\26-Aug-2020\0\\
 #p B2PLYPD3/Def2QZVP\\butadiene\\0,1\C,0,-3.845763,0.21623,0.034741\C,
 0,-2.723342,-0.487082,0.010343\C,0,-1.374956,0.070825,-0.013177\C,0,-0
 .258077,-0.661448,0.050891\H,0,-4.787232,-0.260048,0.119395\H,0,-3.848
 099,1.303503,0.033107\H,0,-2.81557,-1.571789,0.018599\H,0,-1.308278,1.
 148105,-0.017683\H,0,-0.313415,-1.723061,0.136441\H,0,0.677584,-0.1688
 85,0.050269\\Version=ES64L-G09RevD.01\State=1-A\HF=-155.7006178\MP2=-1
 55.9257618\RMSD=5.239e-09\PG=C01 [X(C4H6)]\\@

 Normal termination of Gaussian 09 at Wed Aug 26 18:37:39 2020.
