 Gaussian 09, Revision D.01,
 Gaussian 09:  ES64L-G09RevD.01 24-Apr-2013

 --------------------
 #p B2PLYPD3/Def2QZVP
 --------------------

 ---------
 butadiene
 ---------
 Symbolic Z-matrix:
 Charge =  0 Multiplicity = 1

                         Standard orientation:
 ---------------------------------------------------------------------
 Center     Atomic      Atomic             Coordinates (Angstroms)
 Number     Number       Type             X           Y           Z
 ---------------------------------------------------------------------
      1          6           0       -1.851023   -0.108921    0.026920
      2          6           0       -0.615979    0.383671    0.004628
      3          6           0        0.611496   -0.333603   -0.054049
      4          6           0        1.857834    0.105066   -0.011128
      5          1           0       -2.826770    0.386025    0.096264
      6          1           0       -1.980859   -1.203722   -0.006370
      7          1           0       -0.537093    1.543578   -0.165896
      8          1           0        0.547884   -1.460572   -0.068168
      9          1           0        2.115757    1.129511    0.138742
     10          1           0        2.667107   -0.672105    0.207202
 ---------------------------------------------------------------------

 SCF Done:  E(RB2PLYPD3) =  -155.681249287     A.U. after   11 cycles
 E2(B2PLYPD3) =    -0.2271390483D+00 E(B2PLYPD3) =    -0.15590838833524D+03

 The electronic state is 1-A.
 Alpha  occ. eigenvalues --  -10.63587 -10.62849 -10.62330 -10.61915  -0.93303
 Alpha  occ. eigenvalues --   -0.85287  -0.70509  -0.62728  -0.54646  -0.53853
 Alpha  occ. eigenvalues --   -0.47004  -0.44056  -0.40225  -0.37957  -0.28051
 Alpha virt. eigenvalues --    0.01094   0.06784   0.07203   0.07599   0.09901
 Alpha virt. eigenvalues --    0.11370   0.12573   0.14487   0.15443   0.16270
 Alpha virt. eigenvalues --    0.19034   0.20219   0.21406   0.22003   0.23616

 Mulliken charges:
               1
     1  C   -0.159821
     2  C   -0.032747
     3  C   -0.014798
     4  C   -0.161228
     5  H    0.091356
     6  H    0.050947
     7  H    0.043989
     8  H    0.041281
     9  H    0.067543
    10  H    0.073478
 Sum of Mulliken charges =   0.00000

 Dipole moment (field-independent basis, Debye):
    X=             -0.1765    Y=             -0.0478    Z=              0.1660  Tot=              0.2470
 Quadrupole moment (field-independent basis, Debye-Ang):
   XX=            -23.1124   YY=            -23.7319   ZZ=            -29.2302
   XY=              0.0493   XZ=              0.7085   YZ=             -0.1032

 1\1\GINC-NODE08\SP\RB2PLYPD3-FC\def2QZVP\C4H6\BOITTIER\26-Aug-2020\0\\
 #p B2PLYPD3/Def2QZVP\\butadiene\\0,1\C,0,-3.855641,0.21818,-0.003526\C
 ,0,-2.725015,-0.480755,0.037112\C,0,-1.390808,0.013325,0.057064\C,0,-0
 .240464,-0.637525,0.029976\H,0,-4.903411,-0.101616,-0.04561\H,0,-3.792
 518,1.319203,-0.021397\H,0,-2.847173,-1.627603,0.26184\H,0,-1.25711,1.
 133559,0.018267\H,0,-0.166629,-1.697022,-0.072426\H,0,0.68903,-0.02425
 4,-0.227948\\Version=ES64L-G09RevD.01\State=1-A\HF=-155.6812493\MP2=-1
 55.9083883\RMSD=4.469e-09\PG=C01 [X(C4H6)]\\@

 Normal termination of Gaussian 09 at Wed Aug 26 12:21:05 2020.
