 Gaussian 09, Revision D.01,
 Gaussian 09:  ES64L-G09RevD.01 24-Apr-2013

 --------------------
 #p B2PLYPD3/Def2QZVP
 --------------------

 ---------
 butadiene
 ---------
 Symbolic Z-matrix:
 Charge =  0 Multiplicity = 1

                         Standard orientation:
 ---------------------------------------------------------------------
 Center     Atomic      Atomic             Coordinates (Angstroms)
 Number     Number       Type             X           Y           Z
 ---------------------------------------------------------------------
      1          6           0       -1.837131    0.103053   -0.053131
      2          6           0       -0.594167   -0.395042    0.042711
      3          6           0        0.594284    0.440355    0.023348
      4          6           0        1.813659   -0.135716   -0.030506
      5          1           0       -2.639150   -0.633765    0.005427
      6          1           0       -2.031475    1.163724   -0.012051
      7          1           0       -0.374118   -1.429446    0.129919
      8          1           0        0.509353    1.503438    0.080526
      9          1           0        1.968648   -1.172338   -0.106980
     10          1           0        2.706874    0.492492    0.008630
 ---------------------------------------------------------------------

 SCF Done:  E(RB2PLYPD3) =  -155.695987357     A.U. after   11 cycles
 E2(B2PLYPD3) =    -0.2260851611D+00 E(B2PLYPD3) =    -0.15592207251786D+03

 The electronic state is 1-A.
 Alpha  occ. eigenvalues --  -10.62387 -10.62242 -10.61512 -10.61392  -0.93048
 Alpha  occ. eigenvalues --   -0.84578  -0.70058  -0.64871  -0.54445  -0.53779
 Alpha  occ. eigenvalues --   -0.46548  -0.46281  -0.41382  -0.37805  -0.27367
 Alpha virt. eigenvalues --    0.01660   0.07026   0.07454   0.08090   0.09269
 Alpha virt. eigenvalues --    0.11845   0.12321   0.14917   0.15807   0.16036
 Alpha virt. eigenvalues --    0.18673   0.20441   0.21431   0.23080   0.24042

 Mulliken charges:
               1
     1  C   -0.179662
     2  C   -0.037042
     3  C   -0.029280
     4  C   -0.182718
     5  H    0.080610
     6  H    0.075645
     7  H    0.061799
     8  H    0.062323
     9  H    0.070742
    10  H    0.077585
 Sum of Mulliken charges =   0.00000

 Dipole moment (field-independent basis, Debye):
    X=              0.0914    Y=             -0.0057    Z=              0.1436  Tot=              0.1703
 Quadrupole moment (field-independent basis, Debye-Ang):
   XX=            -24.1164   YY=            -22.7488   ZZ=            -29.2811
   XY=             -0.3432   XZ=             -0.1928   YZ=              0.0746

 1\1\GINC-NODE11\SP\RB2PLYPD3-FC\def2QZVP\C4H6\BOITTIER\26-Aug-2020\0\\
 #p B2PLYPD3/Def2QZVP\\butadiene\\0,1\C,0,-3.83684,0.221425,-0.028559\C
 ,0,-2.706223,-0.494434,0.078648\C,0,-1.384581,0.10769,0.041369\C,0,-0.
 29203,-0.683704,0.00062\H,0,-4.760374,-0.353995,0.045879\H,0,-3.832822
 ,1.300384,-0.010855\H,0,-2.679675,-1.549525,0.188633\H,0,-1.272511,1.1
 69258,0.075154\H,0,-0.330445,-1.732562,-0.053012\H,0,0.701548,-0.22966
 3,0.026271\\Version=ES64L-G09RevD.01\State=1-A\HF=-155.6959874\MP2=-15
 5.9220725\RMSD=5.113e-09\PG=C01 [X(C4H6)]\\@

 Normal termination of Gaussian 09 at Wed Aug 26 08:50:37 2020.
