 Gaussian 09, Revision D.01,
 Gaussian 09:  ES64L-G09RevD.01 24-Apr-2013

 --------------------
 #p B2PLYPD3/Def2QZVP
 --------------------

 ---------
 butadiene
 ---------
 Symbolic Z-matrix:
 Charge =  0 Multiplicity = 1

                         Standard orientation:
 ---------------------------------------------------------------------
 Center     Atomic      Atomic             Coordinates (Angstroms)
 Number     Number       Type             X           Y           Z
 ---------------------------------------------------------------------
      1          6           0       -1.842567   -0.112057   -0.040122
      2          6           0       -0.610304    0.420430    0.010187
      3          6           0        0.607644   -0.377570    0.049832
      4          6           0        1.858960    0.095719   -0.039581
      5          1           0       -2.787009    0.426589    0.014003
      6          1           0       -2.001451   -1.163392   -0.068009
      7          1           0       -0.487650    1.492030    0.163388
      8          1           0        0.437990   -1.447792    0.105368
      9          1           0        2.125122    1.130538   -0.087449
     10          1           0        2.630596   -0.597106   -0.009194
 ---------------------------------------------------------------------

 SCF Done:  E(RB2PLYPD3) =  -155.696748926     A.U. after   11 cycles
 E2(B2PLYPD3) =    -0.2257329313D+00 E(B2PLYPD3) =    -0.15592248185710D+03

 The electronic state is 1-A.
 Alpha  occ. eigenvalues --  -10.62802 -10.62639 -10.61625 -10.61018  -0.92779
 Alpha  occ. eigenvalues --   -0.84923  -0.70839  -0.64205  -0.55019  -0.53888
 Alpha  occ. eigenvalues --   -0.47127  -0.45860  -0.41044  -0.37716  -0.27657
 Alpha virt. eigenvalues --    0.01482   0.07046   0.07521   0.08088   0.09557
 Alpha virt. eigenvalues --    0.11534   0.12557   0.14843   0.15736   0.16365
 Alpha virt. eigenvalues --    0.18973   0.20215   0.22117   0.22453   0.23691

 Mulliken charges:
               1
     1  C   -0.170664
     2  C   -0.030851
     3  C   -0.037401
     4  C   -0.176202
     5  H    0.080943
     6  H    0.059970
     7  H    0.061034
     8  H    0.054829
     9  H    0.072076
    10  H    0.086266
 Sum of Mulliken charges =   0.00000

 Dipole moment (field-independent basis, Debye):
    X=             -0.0330    Y=             -0.0302    Z=              0.1414  Tot=              0.1483
 Quadrupole moment (field-independent basis, Debye-Ang):
   XX=            -23.1156   YY=            -23.2441   ZZ=            -29.2135
   XY=              0.4501   XZ=             -0.1996   YZ=              0.0796

 1\1\GINC-NODE38\SP\RB2PLYPD3-FC\def2QZVP\C4H6\BOITTIER\26-Aug-2020\0\\
 #p B2PLYPD3/Def2QZVP\\butadiene\\0,1\C,0,-3.84414,0.235573,0.053426\C,
 0,-2.73008,-0.514193,0.017832\C,0,-1.386735,0.046648,-0.033683\C,0,-0.
 243061,-0.645591,0.069299\H,0,-4.871193,-0.122254,0.006925\H,0,-3.8080
 37,1.29858,0.059812\H,0,-2.805558,-1.593026,-0.113558\H,0,-1.357798,1.
 128502,-0.111116\H,0,-0.170646,-1.71045,0.138679\H,0,0.642268,-0.10632
 2,0.027658\\Version=ES64L-G09RevD.01\State=1-A\HF=-155.6967489\MP2=-15
 5.9224819\RMSD=4.063e-09\PG=C01 [X(C4H6)]\\@

 Normal termination of Gaussian 09 at Wed Aug 26 09:33:22 2020.
