 Gaussian 09, Revision D.01,
 Gaussian 09:  ES64L-G09RevD.01 24-Apr-2013

 --------------------
 #p B2PLYPD3/Def2QZVP
 --------------------

 ---------
 butadiene
 ---------
 Symbolic Z-matrix:
 Charge =  0 Multiplicity = 1

                         Standard orientation:
 ---------------------------------------------------------------------
 Center     Atomic      Atomic             Coordinates (Angstroms)
 Number     Number       Type             X           Y           Z
 ---------------------------------------------------------------------
      1          6           0        1.835524   -0.109935    0.025462
      2          6           0        0.601289    0.408950   -0.014099
      3          6           0       -0.601214   -0.392085   -0.024721
      4          6           0       -1.840717    0.096551    0.013254
      5          1           0        2.725680    0.499129   -0.008138
      6          1           0        1.985241   -1.208996    0.003061
      7          1           0        0.497223    1.490057   -0.019172
      8          1           0       -0.433269   -1.459631   -0.034330
      9          1           0       -2.002740    1.162995    0.000986
     10          1           0       -2.741422   -0.504442    0.058222
 ---------------------------------------------------------------------

 SCF Done:  E(RB2PLYPD3) =  -155.700364789     A.U. after   11 cycles
 E2(B2PLYPD3) =    -0.2258646319D+00 E(B2PLYPD3) =    -0.15592622942129D+03

 The electronic state is 1-A.
 Alpha  occ. eigenvalues --  -10.62575 -10.62451 -10.61849 -10.61510  -0.93114
 Alpha  occ. eigenvalues --   -0.84815  -0.70232  -0.64106  -0.54870  -0.53667
 Alpha  occ. eigenvalues --   -0.46947  -0.45168  -0.41167  -0.38236  -0.27640
 Alpha virt. eigenvalues --    0.01622   0.07014   0.07389   0.08072   0.09642
 Alpha virt. eigenvalues --    0.11639   0.12539   0.14587   0.15904   0.16224
 Alpha virt. eigenvalues --    0.18826   0.20469   0.21680   0.22834   0.23601

 Mulliken charges:
               1
     1  C   -0.173175
     2  C   -0.029552
     3  C   -0.027708
     4  C   -0.172836
     5  H    0.086700
     6  H    0.059380
     7  H    0.054019
     8  H    0.054447
     9  H    0.062369
    10  H    0.086356
 Sum of Mulliken charges =   0.00000

 Dipole moment (field-independent basis, Debye):
    X=              0.0001    Y=              0.0240    Z=             -0.0284  Tot=              0.0372
 Quadrupole moment (field-independent basis, Debye-Ang):
   XX=            -23.2876   YY=            -23.2373   ZZ=            -29.2814
   XY=             -0.1065   XZ=             -0.2101   YZ=             -0.0306

 1\1\GINC-NODE40\SP\RB2PLYPD3-FC\def2QZVP\C4H6\BOITTIER\26-Aug-2020\0\\
 #p B2PLYPD3/Def2QZVP\\butadiene\\0,1\C,0,-3.837591,0.227085,0.040723\C
 ,0,-2.718064,-0.508011,0.019841\C,0,-1.390193,0.060951,-0.008884\C,0,-
 0.259869,-0.643199,0.046918\H,0,-4.82354,-0.211071,0.020987\H,0,-3.785
 434,1.334007,-0.012712\H,0,-2.811902,-1.589769,0.045157\H,0,-1.361659,
 1.140558,-0.048719\H,0,-0.294063,-1.721259,0.064834\H,0,0.735009,-0.21
 4573,0.078278\\Version=ES64L-G09RevD.01\State=1-A\HF=-155.7003648\MP2=
 -155.9262294\RMSD=3.323e-09\PG=C01 [X(C4H6)]\\@

 Normal termination of Gaussian 09 at Wed Aug 26 08:58:30 2020.
