 Gaussian 09, Revision D.01,
 Gaussian 09:  ES64L-G09RevD.01 24-Apr-2013

 --------------------
 #p B2PLYPD3/Def2QZVP
 --------------------

 ---------
 butadiene
 ---------
 Symbolic Z-matrix:
 Charge =  0 Multiplicity = 1

                         Standard orientation:
 ---------------------------------------------------------------------
 Center     Atomic      Atomic             Coordinates (Angstroms)
 Number     Number       Type             X           Y           Z
 ---------------------------------------------------------------------
      1          6           0        1.831415    0.114325   -0.017150
      2          6           0        0.617433   -0.440547    0.017697
      3          6           0       -0.589903    0.404390    0.044803
      4          6           0       -1.832779   -0.105708   -0.030015
      5          1           0        2.707727   -0.481033   -0.064229
      6          1           0        1.937505    1.211100   -0.126854
      7          1           0        0.379506   -1.476920    0.157038
      8          1           0       -0.467361    1.518079    0.107307
      9          1           0       -2.029466   -1.153989   -0.125226
     10          1           0       -2.684907    0.548004   -0.040043
 ---------------------------------------------------------------------

 SCF Done:  E(RB2PLYPD3) =  -155.696061700     A.U. after   11 cycles
 E2(B2PLYPD3) =    -0.2261915264D+00 E(B2PLYPD3) =    -0.15592225322673D+03

 The electronic state is 1-A.
 Alpha  occ. eigenvalues --  -10.62979 -10.62689 -10.61676 -10.61276  -0.92697
 Alpha  occ. eigenvalues --   -0.84681  -0.70026  -0.63941  -0.54740  -0.53460
 Alpha  occ. eigenvalues --   -0.46874  -0.45622  -0.40969  -0.37725  -0.27660
 Alpha virt. eigenvalues --    0.01865   0.07064   0.07285   0.08111   0.09117
 Alpha virt. eigenvalues --    0.11708   0.12436   0.14685   0.15519   0.16202
 Alpha virt. eigenvalues --    0.18676   0.20207   0.21729   0.22811   0.23898

 Mulliken charges:
               1
     1  C   -0.170610
     2  C   -0.041553
     3  C   -0.024054
     4  C   -0.185183
     5  H    0.086969
     6  H    0.067735
     7  H    0.066093
     8  H    0.051229
     9  H    0.064963
    10  H    0.084409
 Sum of Mulliken charges =   0.00000

 Dipole moment (field-independent basis, Debye):
    X=              0.0189    Y=             -0.0337    Z=             -0.0507  Tot=              0.0638
 Quadrupole moment (field-independent basis, Debye-Ang):
   XX=            -23.7112   YY=            -23.0125   ZZ=            -29.2989
   XY=              0.3096   XZ=             -0.0303   YZ=             -0.0746

 1\1\GINC-NODE10\SP\RB2PLYPD3-FC\def2QZVP\C4H6\BOITTIER\26-Aug-2020\0\\
 #p B2PLYPD3/Def2QZVP\\butadiene\\0,1\C,0,-3.827526,0.236736,0.037731\C
 ,0,-2.736262,-0.532386,0.016664\C,0,-1.394303,0.07552,-0.027038\C,0,-0
 .266127,-0.652543,0.060605\H,0,-4.798187,-0.186298,0.09646\H,0,-3.7299
 99,1.336438,0.123465\H,0,-2.693174,-1.597595,-0.099823\H,0,-1.310285,1
 .19115,-0.113861\H,0,-0.26516,-1.716813,0.178814\H,0,0.691631,-0.16648
 6,0.057668\\Version=ES64L-G09RevD.01\State=1-A\HF=-155.6960617\MP2=-15
 5.9222532\RMSD=2.912e-09\PG=C01 [X(C4H6)]\\@

 Normal termination of Gaussian 09 at Wed Aug 26 09:06:58 2020.
