 Gaussian 09, Revision D.01,
 Gaussian 09:  ES64L-G09RevD.01 24-Apr-2013

 --------------------
 #p B2PLYPD3/Def2QZVP
 --------------------

 ---------
 butadiene
 ---------
 Symbolic Z-matrix:
 Charge =  0 Multiplicity = 1

                         Standard orientation:
 ---------------------------------------------------------------------
 Center     Atomic      Atomic             Coordinates (Angstroms)
 Number     Number       Type             X           Y           Z
 ---------------------------------------------------------------------
      1          6           0       -1.814477    0.103825   -0.038059
      2          6           0       -0.603559   -0.387245    0.002506
      3          6           0        0.594059    0.417179    0.020616
      4          6           0        1.813835   -0.115393   -0.010305
      5          1           0       -2.599454   -0.594921    0.098292
      6          1           0       -2.048272    1.173573   -0.018442
      7          1           0       -0.447765   -1.459929    0.054758
      8          1           0        0.509368    1.535259    0.083752
      9          1           0        1.908783   -1.218857   -0.019539
     10          1           0        2.738192    0.454669   -0.047373
 ---------------------------------------------------------------------

 SCF Done:  E(RB2PLYPD3) =  -155.696331470     A.U. after   11 cycles
 E2(B2PLYPD3) =    -0.2254881437D+00 E(B2PLYPD3) =    -0.15592181961398D+03

 The electronic state is 1-A.
 Alpha  occ. eigenvalues --  -10.62607 -10.61994 -10.61679 -10.60825  -0.93478
 Alpha  occ. eigenvalues --   -0.85274  -0.69827  -0.63581  -0.54676  -0.54022
 Alpha  occ. eigenvalues --   -0.46706  -0.45002  -0.40958  -0.38450  -0.27894
 Alpha virt. eigenvalues --    0.02081   0.07067   0.07201   0.08015   0.09717
 Alpha virt. eigenvalues --    0.11699   0.12424   0.14733   0.15792   0.16242
 Alpha virt. eigenvalues --    0.18674   0.20082   0.21757   0.22648   0.24126

 Mulliken charges:
               1
     1  C   -0.170939
     2  C   -0.024271
     3  C   -0.027144
     4  C   -0.172493
     5  H    0.080098
     6  H    0.068950
     7  H    0.053309
     8  H    0.049549
     9  H    0.055372
    10  H    0.087569
 Sum of Mulliken charges =   0.00000

 Dipole moment (field-independent basis, Debye):
    X=              0.0325    Y=              0.0027    Z=              0.1541  Tot=              0.1575
 Quadrupole moment (field-independent basis, Debye-Ang):
   XX=            -23.7769   YY=            -23.0227   ZZ=            -29.1654
   XY=             -0.0935   XZ=             -0.4391   YZ=             -0.0744

 1\1\GINC-NODE16\SP\RB2PLYPD3-FC\def2QZVP\C4H6\BOITTIER\26-Aug-2020\0\\
 #p B2PLYPD3/Def2QZVP\\butadiene\\0,1\C,0,-3.816757,0.21446,-0.010319\C
 ,0,-2.715096,-0.487384,0.043306\C,0,-1.39105,0.08581,0.035212\C,0,-0.2
 88727,-0.660549,0.01863\H,0,-4.714754,-0.325407,0.14834\H,0,-3.851948,
 1.308997,-0.022807\H,0,-2.756635,-1.568487,0.127835\H,0,-1.270532,1.20
 1998,0.064534\H,0,-0.396124,-1.762647,0.042726\H,0,0.723611,-0.269595,
 -0.037098\\Version=ES64L-G09RevD.01\State=1-A\HF=-155.6963315\MP2=-155
 .9218196\RMSD=4.361e-09\PG=C01 [X(C4H6)]\\@

 Normal termination of Gaussian 09 at Wed Aug 26 11:20:00 2020.
