 Gaussian 09, Revision D.01,
 Gaussian 09:  ES64L-G09RevD.01 24-Apr-2013

 --------------------
 #p B2PLYPD3/Def2QZVP
 --------------------

 ---------
 butadiene
 ---------
 Symbolic Z-matrix:
 Charge =  0 Multiplicity = 1

                         Standard orientation:
 ---------------------------------------------------------------------
 Center     Atomic      Atomic             Coordinates (Angstroms)
 Number     Number       Type             X           Y           Z
 ---------------------------------------------------------------------
      1          6           0       -1.848298    0.090906    0.053155
      2          6           0       -0.606314   -0.400294   -0.060479
      3          6           0        0.596544    0.394575   -0.018435
      4          6           0        1.848343   -0.103679    0.033834
      5          1           0       -2.741206   -0.490697   -0.077069
      6          1           0       -1.975618    1.198386    0.121149
      7          1           0       -0.451436   -1.467275   -0.057628
      8          1           0        0.417496    1.506213   -0.109450
      9          1           0        2.082372   -1.170083    0.147904
     10          1           0        2.726743    0.534410   -0.073352
 ---------------------------------------------------------------------

 SCF Done:  E(RB2PLYPD3) =  -155.694870275     A.U. after   11 cycles
 E2(B2PLYPD3) =    -0.2268419494D+00 E(B2PLYPD3) =    -0.15592171222424D+03

 The electronic state is 1-A.
 Alpha  occ. eigenvalues --  -10.63261 -10.62522 -10.62171 -10.61989  -0.92902
 Alpha  occ. eigenvalues --   -0.84523  -0.70385  -0.63563  -0.54911  -0.53054
 Alpha  occ. eigenvalues --   -0.47078  -0.45050  -0.40833  -0.37971  -0.27545
 Alpha virt. eigenvalues --    0.01164   0.07003   0.07269   0.08001   0.09582
 Alpha virt. eigenvalues --    0.11583   0.12398   0.14648   0.15575   0.16256
 Alpha virt. eigenvalues --    0.18980   0.20027   0.21709   0.22337   0.23407

 Mulliken charges:
               1
     1  C   -0.165722
     2  C   -0.032056
     3  C   -0.026300
     4  C   -0.177703
     5  H    0.089865
     6  H    0.054454
     7  H    0.056589
     8  H    0.049051
     9  H    0.066579
    10  H    0.085243
 Sum of Mulliken charges =   0.00000

 Dipole moment (field-independent basis, Debye):
    X=              0.0089    Y=             -0.0581    Z=             -0.0962  Tot=              0.1127
 Quadrupole moment (field-independent basis, Debye-Ang):
   XX=            -23.2603   YY=            -23.3778   ZZ=            -29.3542
   XY=             -0.2859   XZ=              0.0665   YZ=             -0.1265

 1\1\GINC-NODE24\SP\RB2PLYPD3-FC\def2QZVP\C4H6\BOITTIER\26-Aug-2020\0\\
 #p B2PLYPD3/Def2QZVP\\butadiene\\0,1\C,0,-3.850193,0.219092,0.067467\C
 ,0,-2.720635,-0.49686,-0.023229\C,0,-1.391639,0.063525,-0.009376\C,0,-
 0.252971,-0.654627,0.066006\H,0,-4.835634,-0.192501,-0.042086\H,0,-3.7
 70775,1.332858,0.091227\H,0,-2.765173,-1.573145,0.022273\H,0,-1.363027
 ,1.18465,-0.144807\H,0,-0.219098,-1.740563,0.222834\H,0,0.727535,-0.19
 4241,-0.063939\\Version=ES64L-G09RevD.01\State=1-A\HF=-155.6948703\MP2
 =-155.9217122\RMSD=4.929e-09\PG=C01 [X(C4H6)]\\@

 Normal termination of Gaussian 09 at Wed Aug 26 09:49:57 2020.
