 Gaussian 09, Revision D.01,
 Gaussian 09:  ES64L-G09RevD.01 24-Apr-2013

 --------------------
 #p B2PLYPD3/Def2QZVP
 --------------------

 ---------
 butadiene
 ---------
 Symbolic Z-matrix:
 Charge =  0 Multiplicity = 1

                         Standard orientation:
 ---------------------------------------------------------------------
 Center     Atomic      Atomic             Coordinates (Angstroms)
 Number     Number       Type             X           Y           Z
 ---------------------------------------------------------------------
      1          6           0        1.816642   -0.127963    0.026660
      2          6           0        0.599025    0.429394   -0.030950
      3          6           0       -0.601291   -0.391489    0.008495
      4          6           0       -1.837410    0.100924    0.000046
      5          1           0        2.709545    0.504402   -0.019864
      6          1           0        2.031933   -1.203752    0.061709
      7          1           0        0.484950    1.522882   -0.079742
      8          1           0       -0.395934   -1.429132   -0.105431
      9          1           0       -2.012808    1.161881    0.139300
     10          1           0       -2.679477   -0.621479   -0.021476
 ---------------------------------------------------------------------

 SCF Done:  E(RB2PLYPD3) =  -155.696696937     A.U. after   11 cycles
 E2(B2PLYPD3) =    -0.2261500572D+00 E(B2PLYPD3) =    -0.15592284699413D+03

 The electronic state is 1-A.
 Alpha  occ. eigenvalues --  -10.62764 -10.62090 -10.61893 -10.61654  -0.93049
 Alpha  occ. eigenvalues --   -0.84675  -0.69769  -0.64149  -0.54213  -0.53662
 Alpha  occ. eigenvalues --   -0.46485  -0.45675  -0.40847  -0.38081  -0.27655
 Alpha virt. eigenvalues --    0.01810   0.07011   0.07316   0.08009   0.09340
 Alpha virt. eigenvalues --    0.11751   0.12233   0.14816   0.15562   0.16107
 Alpha virt. eigenvalues --    0.18682   0.20104   0.21490   0.23019   0.23836

 Mulliken charges:
               1
     1  C   -0.174020
     2  C   -0.035376
     3  C   -0.026735
     4  C   -0.182774
     5  H    0.077474
     6  H    0.066772
     7  H    0.056828
     8  H    0.062232
     9  H    0.073419
    10  H    0.082181
 Sum of Mulliken charges =   0.00000

 Dipole moment (field-independent basis, Debye):
    X=              0.0824    Y=             -0.0182    Z=             -0.0265  Tot=              0.0885
 Quadrupole moment (field-independent basis, Debye-Ang):
   XX=            -23.9016   YY=            -22.9341   ZZ=            -29.2988
   XY=             -0.3484   XZ=             -0.1358   YZ=              0.1486

 1\1\GINC-NODE23\SP\RB2PLYPD3-FC\def2QZVP\C4H6\BOITTIER\26-Aug-2020\0\\
 #p B2PLYPD3/Def2QZVP\\butadiene\\0,1\C,0,-3.816686,0.246022,0.03939\C,
 0,-2.722156,-0.526943,0.006428\C,0,-1.391514,0.060745,0.019743\C,0,-0.
 266716,-0.650008,0.033584\H,0,-4.81058,-0.21312,0.013114\H,0,-3.83089,
 1.343597,0.034149\H,0,-2.810744,-1.623845,-0.001757\H,0,-1.403457,1.11
 3551,-0.132936\H,0,-0.288413,-1.719291,0.21233\H,0,0.693486,-0.095594,
 -0.01162\\Version=ES64L-G09RevD.01\State=1-A\HF=-155.6966969\MP2=-155.
 922847\RMSD=4.526e-09\PG=C01 [X(C4H6)]\\@

 Normal termination of Gaussian 09 at Wed Aug 26 09:25:03 2020.
