 Gaussian 09, Revision D.01,
 Gaussian 09:  ES64L-G09RevD.01 24-Apr-2013

 --------------------
 #p B2PLYPD3/Def2QZVP
 --------------------

 ---------
 butadiene
 ---------
 Symbolic Z-matrix:
 Charge =  0 Multiplicity = 1

                         Standard orientation:
 ---------------------------------------------------------------------
 Center     Atomic      Atomic             Coordinates (Angstroms)
 Number     Number       Type             X           Y           Z
 ---------------------------------------------------------------------
      1          6           0       -1.843636    0.113401    0.020256
      2          6           0       -0.610163   -0.369873   -0.047697
      3          6           0        0.613587    0.395365   -0.009135
      4          6           0        1.832979   -0.113030    0.034848
      5          1           0       -2.692440   -0.599986    0.108075
      6          1           0       -2.062114    1.154349    0.001632
      7          1           0       -0.485768   -1.483822   -0.012788
      8          1           0        0.545949    1.513832   -0.081166
      9          1           0        1.964533   -1.182814   -0.058369
     10          1           0        2.773238    0.443257    0.052984
 ---------------------------------------------------------------------

 SCF Done:  E(RB2PLYPD3) =  -155.695704583     A.U. after   11 cycles
 E2(B2PLYPD3) =    -0.2258622307D+00 E(B2PLYPD3) =    -0.15592156681395D+03

 The electronic state is 1-A.
 Alpha  occ. eigenvalues --  -10.62819 -10.62735 -10.61624 -10.61482  -0.93154
 Alpha  occ. eigenvalues --   -0.85245  -0.70093  -0.63381  -0.54474  -0.54158
 Alpha  occ. eigenvalues --   -0.46800  -0.44937  -0.40595  -0.38273  -0.27942
 Alpha virt. eigenvalues --    0.01748   0.06945   0.07328   0.07842   0.09820
 Alpha virt. eigenvalues --    0.11584   0.12431   0.14644   0.15685   0.16358
 Alpha virt. eigenvalues --    0.18811   0.20219   0.21626   0.22574   0.23802

 Mulliken charges:
               1
     1  C   -0.174476
     2  C   -0.025740
     3  C   -0.025682
     4  C   -0.166175
     5  H    0.083125
     6  H    0.073755
     7  H    0.046964
     8  H    0.046735
     9  H    0.056154
    10  H    0.085340
 Sum of Mulliken charges =   0.00000

 Dipole moment (field-independent basis, Debye):
    X=              0.0364    Y=              0.0158    Z=             -0.0353  Tot=              0.0531
 Quadrupole moment (field-independent basis, Debye-Ang):
   XX=            -23.2457   YY=            -23.3340   ZZ=            -29.2361
   XY=             -0.0761   XZ=             -0.3452   YZ=             -0.0816

 1\1\GINC-NODE06\SP\RB2PLYPD3-FC\def2QZVP\C4H6\BOITTIER\26-Aug-2020\0\\
 #p B2PLYPD3/Def2QZVP\\butadiene\\0,1\C,0,-3.846659,0.218341,0.042686\C
 ,0,-2.717665,-0.476244,-0.007843\C,0,-1.378381,0.063105,0.000012\C,0,-
 0.266791,-0.649497,0.062317\H,0,-4.806748,-0.331076,0.158749\H,0,-3.87
 9263,1.280024,-0.015777\H,0,-2.790363,-1.592605,0.069798\H,0,-1.249303
 ,1.172543,-0.114954\H,0,-0.325685,-1.728502,0.010219\H,0,0.756591,-0.2
 66689,0.058087\\Version=ES64L-G09RevD.01\State=1-A\HF=-155.6957046\MP2
 =-155.9215668\RMSD=4.998e-09\PG=C01 [X(C4H6)]\\@

 Normal termination of Gaussian 09 at Wed Aug 26 09:21:54 2020.
