 Gaussian 09, Revision D.01,
 Gaussian 09:  ES64L-G09RevD.01 24-Apr-2013

 --------------------
 #p B2PLYPD3/Def2QZVP
 --------------------

 ---------
 butadiene
 ---------
 Symbolic Z-matrix:
 Charge =  0 Multiplicity = 1

                         Standard orientation:
 ---------------------------------------------------------------------
 Center     Atomic      Atomic             Coordinates (Angstroms)
 Number     Number       Type             X           Y           Z
 ---------------------------------------------------------------------
      1          6           0       -1.843451    0.102257   -0.036745
      2          6           0       -0.605055   -0.388706    0.016254
      3          6           0        0.605244    0.409092    0.054361
      4          6           0        1.840896   -0.111292   -0.030451
      5          1           0       -2.729039   -0.516310   -0.032621
      6          1           0       -2.051912    1.119023    0.019119
      7          1           0       -0.443399   -1.419108    0.067016
      8          1           0        0.491170    1.473693    0.007378
      9          1           0        1.946728   -1.205266    0.004898
     10          1           0        2.800644    0.479865   -0.086308
 ---------------------------------------------------------------------

 SCF Done:  E(RB2PLYPD3) =  -155.695352349     A.U. after   11 cycles
 E2(B2PLYPD3) =    -0.2257590140D+00 E(B2PLYPD3) =    -0.15592111136295D+03

 The electronic state is 1-A.
 Alpha  occ. eigenvalues --  -10.62526 -10.62379 -10.62170 -10.61031  -0.93143
 Alpha  occ. eigenvalues --   -0.84806  -0.70375  -0.64825  -0.54698  -0.53888
 Alpha  occ. eigenvalues --   -0.47125  -0.45380  -0.41166  -0.38123  -0.27638
 Alpha virt. eigenvalues --    0.01546   0.06950   0.07565   0.08106   0.09527
 Alpha virt. eigenvalues --    0.11621   0.12651   0.14614   0.15710   0.16404
 Alpha virt. eigenvalues --    0.18828   0.20218   0.21879   0.23113   0.23596

 Mulliken charges:
               1
     1  C   -0.173529
     2  C   -0.031260
     3  C   -0.034146
     4  C   -0.169980
     5  H    0.079352
     6  H    0.067150
     7  H    0.061091
     8  H    0.058814
     9  H    0.058220
    10  H    0.084290
 Sum of Mulliken charges =   0.00000

 Dipole moment (field-independent basis, Debye):
    X=             -0.0061    Y=              0.0205    Z=              0.0353  Tot=              0.0413
 Quadrupole moment (field-independent basis, Debye-Ang):
   XX=            -23.1432   YY=            -23.3222   ZZ=            -29.2293
   XY=             -0.1913   XZ=             -0.2706   YZ=             -0.1075

 1\1\GINC-NODE38\SP\RB2PLYPD3-FC\def2QZVP\C4H6\BOITTIER\26-Aug-2020\0\\
 #p B2PLYPD3/Def2QZVP\\butadiene\\0,1\C,0,-3.847486,0.214397,-0.015671\
 C,0,-2.717064,-0.488914,0.054879\C,0,-1.382952,0.079257,0.064101\C,0,-
 0.261417,-0.657368,-0.002009\H,0,-4.82971,-0.234426,0.010821\H,0,-3.86
 9604,1.253402,0.00353\H,0,-2.742739,-1.529135,0.142729\H,0,-1.304304,1
 .144683,-0.021209\H,0,-0.353524,-1.750601,0.072734\H,0,0.788498,-0.250
 65,-0.07922\\Version=ES64L-G09RevD.01\State=1-A\HF=-155.6953523\MP2=-1
 55.9211114\RMSD=5.790e-09\PG=C01 [X(C4H6)]\\@

 Normal termination of Gaussian 09 at Wed Aug 26 08:58:45 2020.
