 Gaussian 09, Revision D.01,
 Gaussian 09:  ES64L-G09RevD.01 24-Apr-2013

 --------------------
 #p B2PLYPD3/Def2QZVP
 --------------------

 ---------
 butadiene
 ---------
 Symbolic Z-matrix:
 Charge =  0 Multiplicity = 1

                         Standard orientation:
 ---------------------------------------------------------------------
 Center     Atomic      Atomic             Coordinates (Angstroms)
 Number     Number       Type             X           Y           Z
 ---------------------------------------------------------------------
      1          6           0        1.830120   -0.102166    0.021730
      2          6           0        0.585100    0.387574   -0.027364
      3          6           0       -0.604692   -0.410238   -0.011200
      4          6           0       -1.828359    0.117497    0.003587
      5          1           0        2.774851    0.493555   -0.024312
      6          1           0        1.948591   -1.167272    0.100502
      7          1           0        0.497675    1.492900   -0.034955
      8          1           0       -0.465230   -1.463462   -0.098558
      9          1           0       -1.936555    1.172749    0.090754
     10          1           0       -2.712349   -0.484473    0.046056
 ---------------------------------------------------------------------

 SCF Done:  E(RB2PLYPD3) =  -155.697568966     A.U. after   11 cycles
 E2(B2PLYPD3) =    -0.2259031696D+00 E(B2PLYPD3) =    -0.15592347213593D+03

 The electronic state is 1-A.
 Alpha  occ. eigenvalues --  -10.62572 -10.62244 -10.61752 -10.61210  -0.93416
 Alpha  occ. eigenvalues --   -0.84891  -0.70237  -0.64256  -0.54771  -0.54006
 Alpha  occ. eigenvalues --   -0.46673  -0.45307  -0.41334  -0.38382  -0.27541
 Alpha virt. eigenvalues --    0.01591   0.07032   0.07461   0.07986   0.09628
 Alpha virt. eigenvalues --    0.11660   0.12647   0.14617   0.15662   0.16446
 Alpha virt. eigenvalues --    0.18686   0.20057   0.21988   0.22862   0.23708

 Mulliken charges:
               1
     1  C   -0.176114
     2  C   -0.021811
     3  C   -0.033433
     4  C   -0.173482
     5  H    0.085889
     6  H    0.057774
     7  H    0.048310
     8  H    0.059508
     9  H    0.067393
    10  H    0.085967
 Sum of Mulliken charges =   0.00000

 Dipole moment (field-independent basis, Debye):
    X=             -0.0297    Y=             -0.0266    Z=              0.0517  Tot=              0.0653
 Quadrupole moment (field-independent basis, Debye-Ang):
   XX=            -23.3627   YY=            -23.2590   ZZ=            -29.2087
   XY=              0.0331   XZ=             -0.1650   YZ=              0.0413

 1\1\GINC-NODE21\SP\RB2PLYPD3-FC\def2QZVP\C4H6\BOITTIER\26-Aug-2020\0\\
 #p B2PLYPD3/Def2QZVP\\butadiene\\0,1\C,0,-3.836753,0.21294,0.038408\C,
 0,-2.699522,-0.492913,0.009985\C,0,-1.386208,0.07938,0.002448\C,0,-0.2
 76582,-0.657824,0.039106\H,0,-4.872915,-0.205483,0.00991\H,0,-3.762626
 ,1.284129,0.080234\H,0,-2.811166,-1.595658,0.040582\H,0,-1.335372,1.13
 6941,-0.121414\H,0,-0.358543,-1.711795,0.162751\H,0,0.700924,-0.222518
 ,0.063632\\Version=ES64L-G09RevD.01\State=1-A\HF=-155.697569\MP2=-155.
 9234721\RMSD=5.730e-09\PG=C01 [X(C4H6)]\\@

 Normal termination of Gaussian 09 at Wed Aug 26 10:31:25 2020.
