 Gaussian 09, Revision D.01,
 Gaussian 09:  ES64L-G09RevD.01 24-Apr-2013

 --------------------
 #p B2PLYPD3/Def2QZVP
 --------------------

 ---------
 butadiene
 ---------
 Symbolic Z-matrix:
 Charge =  0 Multiplicity = 1

                         Standard orientation:
 ---------------------------------------------------------------------
 Center     Atomic      Atomic             Coordinates (Angstroms)
 Number     Number       Type             X           Y           Z
 ---------------------------------------------------------------------
      1          6           0       -1.834057   -0.112677    0.025857
      2          6           0       -0.589456    0.414547   -0.020070
      3          6           0        0.592998   -0.370147   -0.052964
      4          6           0        1.823801    0.089181    0.008502
      5          1           0       -2.774019    0.446535    0.101780
      6          1           0       -1.923294   -1.215402   -0.013861
      7          1           0       -0.462982    1.493928   -0.055641
      8          1           0        0.483719   -1.450743   -0.013733
      9          1           0        2.044428    1.182050    0.039882
     10          1           0        2.672436   -0.581789    0.173622
 ---------------------------------------------------------------------

 SCF Done:  E(RB2PLYPD3) =  -155.695999249     A.U. after   11 cycles
 E2(B2PLYPD3) =    -0.2263317716D+00 E(B2PLYPD3) =    -0.15592233102111D+03

 The electronic state is 1-A.
 Alpha  occ. eigenvalues --  -10.62682 -10.62277 -10.61986 -10.61645  -0.93581
 Alpha  occ. eigenvalues --   -0.84763  -0.70130  -0.63855  -0.54713  -0.53686
 Alpha  occ. eigenvalues --   -0.46764  -0.44693  -0.41166  -0.38571  -0.27525
 Alpha virt. eigenvalues --    0.01462   0.06985   0.07336   0.07947   0.09787
 Alpha virt. eigenvalues --    0.11612   0.12479   0.14568   0.15797   0.16250
 Alpha virt. eigenvalues --    0.18761   0.20436   0.21467   0.22387   0.23968

 Mulliken charges:
               1
     1  C   -0.172269
     2  C   -0.035614
     3  C   -0.014250
     4  C   -0.169904
     5  H    0.088919
     6  H    0.058292
     7  H    0.054688
     8  H    0.049812
     9  H    0.058032
    10  H    0.082295
 Sum of Mulliken charges =   0.00000

 Dipole moment (field-independent basis, Debye):
    X=             -0.0211    Y=             -0.0002    Z=              0.1605  Tot=              0.1618
 Quadrupole moment (field-independent basis, Debye-Ang):
   XX=            -23.4734   YY=            -23.2928   ZZ=            -29.2439
   XY=             -0.0149   XZ=              0.3481   YZ=             -0.0689

 1\1\GINC-NODE28\SP\RB2PLYPD3-FC\def2QZVP\C4H6\BOITTIER\26-Aug-2020\0\\
 #p B2PLYPD3/Def2QZVP\\butadiene\\0,1\C,0,-3.833791,0.231516,-0.008206\
 C,0,-2.706074,-0.512238,0.056526\C,0,-1.399994,0.043795,0.05881\C,0,-0
 .274273,-0.634698,0.013676\H,0,-4.860621,-0.148898,-0.062196\H,0,-3.71
 9854,1.332678,-0.010027\H,0,-2.778557,-1.594492,0.132671\H,0,-1.310411
 ,1.123964,-0.021053\H,0,-0.257169,-1.749883,0.023348\H,0,0.681316,-0.1
 36694,-0.177343\\Version=ES64L-G09RevD.01\State=1-A\HF=-155.6959992\MP
 2=-155.922331\RMSD=6.033e-09\PG=C01 [X(C4H6)]\\@

 Normal termination of Gaussian 09 at Wed Aug 26 10:27:44 2020.
