 Gaussian 09, Revision D.01,
 Gaussian 09:  ES64L-G09RevD.01 24-Apr-2013

 --------------------
 #p B2PLYPD3/Def2QZVP
 --------------------

 ---------
 butadiene
 ---------
 Symbolic Z-matrix:
 Charge =  0 Multiplicity = 1

                         Standard orientation:
 ---------------------------------------------------------------------
 Center     Atomic      Atomic             Coordinates (Angstroms)
 Number     Number       Type             X           Y           Z
 ---------------------------------------------------------------------
      1          6           0       -1.847229    0.115804    0.013511
      2          6           0       -0.609151   -0.426129   -0.002849
      3          6           0        0.615887    0.386645   -0.044663
      4          6           0        1.848012   -0.096516    0.025971
      5          1           0       -2.745769   -0.476777    0.001681
      6          1           0       -1.963668    1.193156    0.152429
      7          1           0       -0.444759   -1.478705   -0.136097
      8          1           0        0.415808    1.467535   -0.111238
      9          1           0        2.053940   -1.152817    0.114732
     10          1           0        2.639331    0.568786    0.026676
 ---------------------------------------------------------------------

 SCF Done:  E(RB2PLYPD3) =  -155.697236868     A.U. after   11 cycles
 E2(B2PLYPD3) =    -0.2257498680D+00 E(B2PLYPD3) =    -0.15592298673607D+03

 The electronic state is 1-A.
 Alpha  occ. eigenvalues --  -10.62736 -10.62571 -10.61898 -10.60848  -0.92725
 Alpha  occ. eigenvalues --   -0.84948  -0.70421  -0.63970  -0.54908  -0.53749
 Alpha  occ. eigenvalues --   -0.47072  -0.45999  -0.40878  -0.37744  -0.27767
 Alpha virt. eigenvalues --    0.01700   0.07094   0.07400   0.08176   0.09373
 Alpha virt. eigenvalues --    0.11678   0.12431   0.14783   0.15658   0.16122
 Alpha virt. eigenvalues --    0.18810   0.20203   0.21718   0.22870   0.23767

 Mulliken charges:
               1
     1  C   -0.178691
     2  C   -0.036659
     3  C   -0.027618
     4  C   -0.179531
     5  H    0.087433
     6  H    0.065037
     7  H    0.060981
     8  H    0.050100
     9  H    0.068835
    10  H    0.090112
 Sum of Mulliken charges =   0.00000

 Dipole moment (field-independent basis, Debye):
    X=              0.0059    Y=             -0.0133    Z=              0.0232  Tot=              0.0274
 Quadrupole moment (field-independent basis, Debye-Ang):
   XX=            -23.4524   YY=            -23.1474   ZZ=            -29.2237
   XY=             -0.2771   XZ=              0.0663   YZ=              0.1270

 1\1\GINC-NODE28\SP\RB2PLYPD3-FC\def2QZVP\C4H6\BOITTIER\26-Aug-2020\0\\
 #p B2PLYPD3/Def2QZVP\\butadiene\\0,1\C,0,-3.847493,0.238491,0.032499\C
 ,0,-2.729278,-0.520704,0.02887\C,0,-1.376439,0.053662,-0.025888\C,0,-0
 .25321,-0.645022,0.056336\H,0,-4.839184,-0.18009,0.030104\H,0,-3.76495
 ,1.321425,0.150758\H,0,-2.760141,-1.587935,-0.084093\H,0,-1.375791,1.1
 51452,-0.113319\H,0,-0.243582,-1.719289,0.165494\H,0,0.646333,-0.13558
 1,0.046018\\Version=ES64L-G09RevD.01\State=1-A\HF=-155.6972369\MP2=-15
 5.9229867\RMSD=7.274e-09\PG=C01 [X(C4H6)]\\@

 Normal termination of Gaussian 09 at Wed Aug 26 09:18:53 2020.
