 Gaussian 09, Revision D.01,
 Gaussian 09:  ES64L-G09RevD.01 24-Apr-2013

 --------------------
 #p B2PLYPD3/Def2QZVP
 --------------------

 ---------
 butadiene
 ---------
 Symbolic Z-matrix:
 Charge =  0 Multiplicity = 1

                         Standard orientation:
 ---------------------------------------------------------------------
 Center     Atomic      Atomic             Coordinates (Angstroms)
 Number     Number       Type             X           Y           Z
 ---------------------------------------------------------------------
      1          6           0        1.821598   -0.116551    0.018134
      2          6           0        0.605808    0.408242    0.000979
      3          6           0       -0.598981   -0.387033   -0.036180
      4          6           0       -1.847686    0.096650    0.006512
      5          1           0        2.713426    0.548911   -0.012046
      6          1           0        1.996230   -1.176147    0.107561
      7          1           0        0.469423    1.483713   -0.135049
      8          1           0       -0.337888   -1.471129   -0.081988
      9          1           0       -2.030164    1.158837    0.138767
     10          1           0       -2.695461   -0.552031    0.046084
 ---------------------------------------------------------------------

 SCF Done:  E(RB2PLYPD3) =  -155.696863854     A.U. after   11 cycles
 E2(B2PLYPD3) =    -0.2260598378D+00 E(B2PLYPD3) =    -0.15592292369158D+03

 The electronic state is 1-A.
 Alpha  occ. eigenvalues --  -10.62836 -10.62266 -10.61729 -10.61570  -0.93210
 Alpha  occ. eigenvalues --   -0.84869  -0.70311  -0.63713  -0.54619  -0.53610
 Alpha  occ. eigenvalues --   -0.46959  -0.45601  -0.40576  -0.38223  -0.27759
 Alpha virt. eigenvalues --    0.01646   0.07045   0.07280   0.08032   0.09562
 Alpha virt. eigenvalues --    0.11734   0.12359   0.14883   0.15521   0.16001
 Alpha virt. eigenvalues --    0.18703   0.20202   0.21758   0.22907   0.23493

 Mulliken charges:
               1
     1  C   -0.179853
     2  C   -0.019551
     3  C   -0.031316
     4  C   -0.177321
     5  H    0.081633
     6  H    0.068037
     7  H    0.055690
     8  H    0.046056
     9  H    0.067541
    10  H    0.089086
 Sum of Mulliken charges =   0.00000

 Dipole moment (field-independent basis, Debye):
    X=              0.0553    Y=              0.0045    Z=              0.0518  Tot=              0.0759
 Quadrupole moment (field-independent basis, Debye-Ang):
   XX=            -23.5594   YY=            -23.2375   ZZ=            -29.2316
   XY=             -0.3638   XZ=             -0.3179   YZ=             -0.0855

 1\1\GINC-NODE19\SP\RB2PLYPD3-FC\def2QZVP\C4H6\BOITTIER\26-Aug-2020\0\\
 #p B2PLYPD3/Def2QZVP\\butadiene\\0,1\C,0,-3.822741,0.237179,0.0329\C,0
 ,-2.725012,-0.503658,0.032492\C,0,-1.393889,0.05406,-0.016712\C,0,-0.2
 56225,-0.651145,0.041961\H,0,-4.822272,-0.252373,0.013322\H,0,-3.79836
 7,1.312513,0.098465\H,0,-2.789898,-1.588552,-0.079484\H,0,-1.449916,1.
 166452,-0.08726\H,0,-0.273427,-1.725552,0.198114\H,0,0.696907,-0.16972
 5,0.071102\\Version=ES64L-G09RevD.01\State=1-A\HF=-155.6968639\MP2=-15
 5.9229237\RMSD=4.721e-09\PG=C01 [X(C4H6)]\\@

 Normal termination of Gaussian 09 at Wed Aug 26 10:57:36 2020.
