 Gaussian 09, Revision D.01,
 Gaussian 09:  ES64L-G09RevD.01 24-Apr-2013

 --------------------
 #p B2PLYPD3/Def2QZVP
 --------------------

 ---------
 butadiene
 ---------
 Symbolic Z-matrix:
 Charge =  0 Multiplicity = 1

                         Standard orientation:
 ---------------------------------------------------------------------
 Center     Atomic      Atomic             Coordinates (Angstroms)
 Number     Number       Type             X           Y           Z
 ---------------------------------------------------------------------
      1          6           0       -1.809355   -0.121041    0.037722
      2          6           0       -0.592351    0.408461   -0.026923
      3          6           0        0.597935   -0.372476   -0.067788
      4          6           0        1.827740    0.099895    0.025305
      5          1           0       -2.698231    0.494798    0.087922
      6          1           0       -1.958464   -1.200188    0.029249
      7          1           0       -0.530396    1.469120   -0.099376
      8          1           0        0.392627   -1.424619   -0.047793
      9          1           0        1.960279    1.146275    0.071280
     10          1           0        2.690376   -0.574425    0.148816
 ---------------------------------------------------------------------

 SCF Done:  E(RB2PLYPD3) =  -155.697998585     A.U. after   11 cycles
 E2(B2PLYPD3) =    -0.2252175571D+00 E(B2PLYPD3) =    -0.15592321614254D+03

 The electronic state is 1-A.
 Alpha  occ. eigenvalues --  -10.61848 -10.61771 -10.61412 -10.61185  -0.93814
 Alpha  occ. eigenvalues --   -0.85191  -0.70317  -0.64550  -0.54580  -0.54412
 Alpha  occ. eigenvalues --   -0.46703  -0.45652  -0.41353  -0.38550  -0.27674
 Alpha virt. eigenvalues --    0.01820   0.07022   0.07513   0.08062   0.09844
 Alpha virt. eigenvalues --    0.11788   0.12480   0.14825   0.15668   0.16243
 Alpha virt. eigenvalues --    0.18654   0.20311   0.21629   0.22976   0.23994

 Mulliken charges:
               1
     1  C   -0.179368
     2  C   -0.024799
     3  C   -0.023781
     4  C   -0.177818
     5  H    0.083090
     6  H    0.061172
     7  H    0.054021
     8  H    0.052217
     9  H    0.068602
    10  H    0.086666
 Sum of Mulliken charges =   0.00000

 Dipole moment (field-independent basis, Debye):
    X=             -0.0606    Y=              0.0228    Z=              0.1087  Tot=              0.1265
 Quadrupole moment (field-independent basis, Debye-Ang):
   XX=            -23.6502   YY=            -23.1444   ZZ=            -29.0574
   XY=              0.0293   XZ=              0.3461   YZ=             -0.0836

 1\1\GINC-NODE12\SP\RB2PLYPD3-FC\def2QZVP\C4H6\BOITTIER\26-Aug-2020\0\\
 #p B2PLYPD3/Def2QZVP\\butadiene\\0,1\C,0,-3.812142,0.232437,-0.019475\
 C,0,-2.710839,-0.506218,0.065199\C,0,-1.398389,0.046698,0.073761\C,0,-
 0.27542,-0.644317,-0.001471\H,0,-4.798328,-0.213324,-0.044231\H,0,-3.7
 63031,1.320214,-0.054006\H,0,-2.841646,-1.556842,0.179931\H,0,-1.40967
 ,1.117027,0.011914\H,0,-0.335189,-1.698357,-0.005706\H,0,0.694154,-0.1
 43129,-0.152601\\Version=ES64L-G09RevD.01\State=1-A\HF=-155.6979986\MP
 2=-155.9232161\RMSD=3.517e-09\PG=C01 [X(C4H6)]\\@

 Normal termination of Gaussian 09 at Wed Aug 26 08:42:45 2020.
