 Gaussian 09, Revision D.01,
 Gaussian 09:  ES64L-G09RevD.01 24-Apr-2013

 --------------------
 #p B2PLYPD3/Def2QZVP
 --------------------

 ---------
 butadiene
 ---------
 Symbolic Z-matrix:
 Charge =  0 Multiplicity = 1

                         Standard orientation:
 ---------------------------------------------------------------------
 Center     Atomic      Atomic             Coordinates (Angstroms)
 Number     Number       Type             X           Y           Z
 ---------------------------------------------------------------------
      1          6           0        1.840806   -0.089477    0.034962
      2          6           0        0.603446    0.379985   -0.056277
      3          6           0       -0.597251   -0.426013   -0.028167
      4          6           0       -1.832856    0.106376    0.015299
      5          1           0        2.679137    0.553126    0.142866
      6          1           0        2.056911   -1.121643    0.014610
      7          1           0        0.398518    1.459396   -0.112980
      8          1           0       -0.473265   -1.499617   -0.054140
      9          1           0       -1.972785    1.202300    0.108756
     10          1           0       -2.773388   -0.418787    0.105985
 ---------------------------------------------------------------------

 SCF Done:  E(RB2PLYPD3) =  -155.697281982     A.U. after   11 cycles
 E2(B2PLYPD3) =    -0.2258440028D+00 E(B2PLYPD3) =    -0.15592312598478D+03

 The electronic state is 1-A.
 Alpha  occ. eigenvalues --  -10.62757 -10.62555 -10.62015 -10.60941  -0.93109
 Alpha  occ. eigenvalues --   -0.84849  -0.70600  -0.64171  -0.55210  -0.53645
 Alpha  occ. eigenvalues --   -0.47272  -0.45185  -0.41067  -0.38081  -0.27616
 Alpha virt. eigenvalues --    0.01563   0.07020   0.07407   0.08138   0.09536
 Alpha virt. eigenvalues --    0.11588   0.12674   0.14624   0.15915   0.16285
 Alpha virt. eigenvalues --    0.18849   0.20594   0.21953   0.22817   0.23263

 Mulliken charges:
               1
     1  C   -0.177955
     2  C   -0.022407
     3  C   -0.034189
     4  C   -0.166623
     5  H    0.085976
     6  H    0.068237
     7  H    0.053499
     8  H    0.057329
     9  H    0.052558
    10  H    0.083576
 Sum of Mulliken charges =   0.00000

 Dipole moment (field-independent basis, Debye):
    X=             -0.0035    Y=             -0.0354    Z=              0.1319  Tot=              0.1367
 Quadrupole moment (field-independent basis, Debye-Ang):
   XX=            -23.1515   YY=            -23.3482   ZZ=            -29.1919
   XY=             -0.3417   XZ=             -0.0938   YZ=              0.1051

 1\1\GINC-NODE38\SP\RB2PLYPD3-FC\def2QZVP\C4H6\BOITTIER\26-Aug-2020\0\\
 #p B2PLYPD3/Def2QZVP\\butadiene\\0,1\C,0,-3.843464,0.211955,0.054215\C
 ,0,-2.714727,-0.481579,-0.014642\C,0,-1.38553,0.088799,-0.014731\C,0,-
 0.269577,-0.660896,0.053491\H,0,-4.785737,-0.259674,0.184861\H,0,-3.86
 4963,1.264668,-0.007545\H,0,-2.713286,-1.58165,-0.028044\H,0,-1.308858
 ,1.164936,-0.083464\H,0,-0.334419,-1.759242,0.190585\H,0,0.752261,-0.3
 15677,0.126229\\Version=ES64L-G09RevD.01\State=1-A\HF=-155.697282\MP2=
 -155.923126\RMSD=4.708e-09\PG=C01 [X(C4H6)]\\@

 Normal termination of Gaussian 09 at Wed Aug 26 10:25:45 2020.
