 Gaussian 09, Revision D.01,
 Gaussian 09:  ES64L-G09RevD.01 24-Apr-2013

 --------------------
 #p B2PLYPD3/Def2QZVP
 --------------------

 ---------
 butadiene
 ---------
 Symbolic Z-matrix:
 Charge =  0 Multiplicity = 1

                         Standard orientation:
 ---------------------------------------------------------------------
 Center     Atomic      Atomic             Coordinates (Angstroms)
 Number     Number       Type             X           Y           Z
 ---------------------------------------------------------------------
      1          6           0        1.804061    0.137450    0.036761
      2          6           0        0.594477   -0.444532   -0.077318
      3          6           0       -0.604413    0.347287   -0.052672
      4          6           0       -1.800904   -0.081958    0.029914
      5          1           0        2.785990   -0.415644    0.100890
      6          1           0        1.979365    1.243660    0.188290
      7          1           0        0.541909   -1.502726   -0.161224
      8          1           0       -0.573937    1.479745   -0.048133
      9          1           0       -2.078166   -1.152712    0.374013
     10          1           0       -2.614488    0.598196   -0.073942
 ---------------------------------------------------------------------

 SCF Done:  E(RB2PLYPD3) =  -155.679384998     A.U. after   12 cycles
 E2(B2PLYPD3) =    -0.2260202397D+00 E(B2PLYPD3) =    -0.15590540523758D+03

 The electronic state is 1-A.
 Alpha  occ. eigenvalues --  -10.62814 -10.62682 -10.61828 -10.60839  -0.93735
 Alpha  occ. eigenvalues --   -0.85356  -0.69491  -0.63153  -0.54824  -0.53773
 Alpha  occ. eigenvalues --   -0.47011  -0.43623  -0.40895  -0.38150  -0.27885
 Alpha virt. eigenvalues --    0.01912   0.06933   0.07300   0.07697   0.09608
 Alpha virt. eigenvalues --    0.11419   0.12294   0.14642   0.15758   0.16656
 Alpha virt. eigenvalues --    0.18781   0.19898   0.21384   0.22002   0.23797

 Mulliken charges:
               1
     1  C   -0.154981
     2  C   -0.056953
     3  C   -0.009770
     4  C   -0.170392
     5  H    0.072270
     6  H    0.060945
     7  H    0.075329
     8  H    0.046555
     9  H    0.057495
    10  H    0.079501
 Sum of Mulliken charges =   0.00000

 Dipole moment (field-independent basis, Debye):
    X=              0.0629    Y=              0.0450    Z=              0.2470  Tot=              0.2588
 Quadrupole moment (field-independent basis, Debye-Ang):
   XX=            -23.6750   YY=            -23.2980   ZZ=            -29.0219
   XY=             -0.1110   XZ=              0.0776   YZ=             -0.0894

 1\1\GINC-NODE22\SP\RB2PLYPD3-FC\def2QZVP\C4H6\BOITTIER\26-Aug-2020\0\\
 #p B2PLYPD3/Def2QZVP\\butadiene\\0,1\C,0,-3.802464,0.245252,-0.025446\
 C,0,-2.715955,-0.539869,0.108327\C,0,-1.39494,0.023717,0.061321\C,0,-0
 .294783,-0.614845,-0.006179\H,0,-4.86769,-0.125061,-0.074147\H,0,-3.77
 7797,1.359848,-0.211082\H,0,-2.853063,-1.58736,0.224706\H,0,-1.22251,1
 .142706,0.022031\H,0,-0.214742,-1.727886,-0.316864\H,0,0.627679,-0.088
 271,0.07807\\Version=ES64L-G09RevD.01\State=1-A\HF=-155.679385\MP2=-15
 5.9054052\RMSD=4.053e-09\PG=C01 [X(C4H6)]\\@

 Normal termination of Gaussian 09 at Wed Aug 26 15:30:55 2020.
