 Gaussian 09, Revision D.01,
 Gaussian 09:  ES64L-G09RevD.01 24-Apr-2013

 --------------------
 #p B2PLYPD3/Def2QZVP
 --------------------

 ---------
 butadiene
 ---------
 Symbolic Z-matrix:
 Charge =  0 Multiplicity = 1

                         Standard orientation:
 ---------------------------------------------------------------------
 Center     Atomic      Atomic             Coordinates (Angstroms)
 Number     Number       Type             X           Y           Z
 ---------------------------------------------------------------------
      1          6           0        1.841818    0.104058    0.013103
      2          6           0        0.598979   -0.390301   -0.019759
      3          6           0       -0.606818    0.410700   -0.010299
      4          6           0       -1.828834   -0.123114    0.020454
      5          1           0        2.705076   -0.556724    0.079265
      6          1           0        1.999237    1.176066   -0.043688
      7          1           0        0.438156   -1.463687   -0.037381
      8          1           0       -0.511768    1.522965   -0.012767
      9          1           0       -1.962492   -1.195750   -0.029060
     10          1           0       -2.699074    0.509074    0.022640
 ---------------------------------------------------------------------

 SCF Done:  E(RB2PLYPD3) =  -155.699941517     A.U. after   11 cycles
 E2(B2PLYPD3) =    -0.2259699230D+00 E(B2PLYPD3) =    -0.15592591144035D+03

 The electronic state is 1-A.
 Alpha  occ. eigenvalues --  -10.62726 -10.62494 -10.61633 -10.61408  -0.93047
 Alpha  occ. eigenvalues --   -0.84890  -0.70028  -0.63756  -0.54382  -0.54036
 Alpha  occ. eigenvalues --   -0.46385  -0.45642  -0.41276  -0.38140  -0.27611
 Alpha virt. eigenvalues --    0.01718   0.07025   0.07299   0.08011   0.09601
 Alpha virt. eigenvalues --    0.11726   0.12366   0.14710   0.15874   0.16054
 Alpha virt. eigenvalues --    0.18706   0.20441   0.21418   0.22962   0.23941

 Mulliken charges:
               1
     1  C   -0.179323
     2  C   -0.029294
     3  C   -0.024178
     4  C   -0.177515
     5  H    0.087947
     6  H    0.068719
     7  H    0.052922
     8  H    0.048210
     9  H    0.065636
    10  H    0.086875
 Sum of Mulliken charges =   0.00000

 Dipole moment (field-independent basis, Debye):
    X=             -0.0364    Y=             -0.0061    Z=             -0.0445  Tot=              0.0578
 Quadrupole moment (field-independent basis, Debye-Ang):
   XX=            -23.6509   YY=            -23.0377   ZZ=            -29.3047
   XY=              0.0402   XZ=              0.1429   YZ=             -0.0353

 1\1\GINC-NODE21\SP\RB2PLYPD3-FC\def2QZVP\C4H6\BOITTIER\26-Aug-2020\0\\
 #p B2PLYPD3/Def2QZVP\\butadiene\\0,1\C,0,-3.844976,0.217057,0.004065\C
 ,0,-2.71083,-0.491009,0.053821\C,0,-1.380993,0.080311,0.026116\C,0,-0.
 274537,-0.664549,0.013289\H,0,-4.812842,-0.279822,-0.046645\H,0,-3.807
 548,1.301059,0.031381\H,0,-2.745002,-1.574957,0.100938\H,0,-1.275102,1
 .191249,-0.001784\H,0,-0.335234,-1.742025,0.092188\H,0,0.694931,-0.198
 896,-0.003531\\Version=ES64L-G09RevD.01\State=1-A\HF=-155.6999415\MP2=
 -155.9259114\RMSD=2.831e-09\PG=C01 [X(C4H6)]\\@

 Normal termination of Gaussian 09 at Wed Aug 26 12:09:29 2020.
