 Gaussian 09, Revision D.01,
 Gaussian 09:  ES64L-G09RevD.01 24-Apr-2013

 --------------------
 #p B2PLYPD3/Def2QZVP
 --------------------

 ---------
 butadiene
 ---------
 Symbolic Z-matrix:
 Charge =  0 Multiplicity = 1

                         Standard orientation:
 ---------------------------------------------------------------------
 Center     Atomic      Atomic             Coordinates (Angstroms)
 Number     Number       Type             X           Y           Z
 ---------------------------------------------------------------------
      1          6           0        1.833755   -0.142148   -0.002334
      2          6           0        0.598557    0.443362    0.003237
      3          6           0       -0.609978   -0.381704   -0.003729
      4          6           0       -1.833301    0.088111    0.004482
      5          1           0        2.747560    0.454814   -0.070557
      6          1           0        1.917511   -1.234875    0.002778
      7          1           0        0.506385    1.536382    0.123708
      8          1           0       -0.476737   -1.432562    0.034551
      9          1           0       -1.939738    1.196640   -0.104044
     10          1           0       -2.689184   -0.566123    0.003628
 ---------------------------------------------------------------------

 SCF Done:  E(RB2PLYPD3) =  -155.694674529     A.U. after   11 cycles
 E2(B2PLYPD3) =    -0.2263628888D+00 E(B2PLYPD3) =    -0.15592103741787D+03

 The electronic state is 1-A.
 Alpha  occ. eigenvalues --  -10.63329 -10.62295 -10.61830 -10.61272  -0.92951
 Alpha  occ. eigenvalues --   -0.84720  -0.69467  -0.64036  -0.54547  -0.53598
 Alpha  occ. eigenvalues --   -0.46303  -0.45237  -0.41491  -0.37923  -0.27613
 Alpha virt. eigenvalues --    0.01768   0.07053   0.07311   0.08001   0.09284
 Alpha virt. eigenvalues --    0.11714   0.12430   0.14396   0.15648   0.16183
 Alpha virt. eigenvalues --    0.18620   0.20094   0.21397   0.23038   0.24182

 Mulliken charges:
               1
     1  C   -0.178415
     2  C   -0.044594
     3  C   -0.018928
     4  C   -0.175654
     5  H    0.086466
     6  H    0.067528
     7  H    0.060680
     8  H    0.054579
     9  H    0.059491
    10  H    0.088846
 Sum of Mulliken charges =   0.00000

 Dipole moment (field-independent basis, Debye):
    X=              0.0393    Y=             -0.0535    Z=             -0.0110  Tot=              0.0673
 Quadrupole moment (field-independent basis, Debye-Ang):
   XX=            -23.8161   YY=            -23.0016   ZZ=            -29.3472
   XY=              0.2032   XZ=              0.0194   YZ=             -0.0562

 1\1\GINC-NODE39\SP\RB2PLYPD3-FC\def2QZVP\C4H6\BOITTIER\26-Aug-2020\0\\
 #p B2PLYPD3/Def2QZVP\\butadiene\\0,1\C,0,-3.832947,0.249059,0.016262\C
 ,0,-2.720556,-0.545043,0.039841\C,0,-1.38534,0.053061,0.011385\C,0,-0.
 264195,-0.625039,0.03435\H,0,-4.838057,-0.178765,-0.036436\H,0,-3.7223
 86,1.339112,-0.009313\H,0,-2.822426,-1.633383,0.190969\H,0,-1.330759,1
 .111582,0.020071\H,0,-0.355599,-1.737518,-0.042976\H,0,0.693767,-0.132
 553,0.016319\\Version=ES64L-G09RevD.01\State=1-A\HF=-155.6946745\MP2=-
 155.9210374\RMSD=6.453e-09\PG=C01 [X(C4H6)]\\@

 Normal termination of Gaussian 09 at Wed Aug 26 09:30:22 2020.
