 Gaussian 09, Revision D.01,
 Gaussian 09:  ES64L-G09RevD.01 24-Apr-2013

 --------------------
 #p B2PLYPD3/Def2QZVP
 --------------------

 ---------
 butadiene
 ---------
 Symbolic Z-matrix:
 Charge =  0 Multiplicity = 1

                         Standard orientation:
 ---------------------------------------------------------------------
 Center     Atomic      Atomic             Coordinates (Angstroms)
 Number     Number       Type             X           Y           Z
 ---------------------------------------------------------------------
      1          6           0        1.845865    0.092755   -0.006166
      2          6           0        0.612653   -0.378238   -0.018803
      3          6           0       -0.604880    0.406442   -0.010389
      4          6           0       -1.840289   -0.123273    0.010832
      5          1           0        2.718039   -0.548434    0.076204
      6          1           0        2.038355    1.159680    0.038709
      7          1           0        0.442000   -1.426102   -0.009411
      8          1           0       -0.513187    1.507095    0.012423
      9          1           0       -2.020474   -1.179491    0.033192
     10          1           0       -2.744828    0.501129   -0.003961
 ---------------------------------------------------------------------

 SCF Done:  E(RB2PLYPD3) =  -155.699663670     A.U. after   11 cycles
 E2(B2PLYPD3) =    -0.2256030753D+00 E(B2PLYPD3) =    -0.15592526674563D+03

 The electronic state is 1-A.
 Alpha  occ. eigenvalues --  -10.62867 -10.62079 -10.61811 -10.61398  -0.93098
 Alpha  occ. eigenvalues --   -0.84974  -0.70320  -0.64152  -0.54722  -0.53889
 Alpha  occ. eigenvalues --   -0.46940  -0.45435  -0.40872  -0.38248  -0.27777
 Alpha virt. eigenvalues --    0.01642   0.06959   0.07476   0.08027   0.09757
 Alpha virt. eigenvalues --    0.11640   0.12461   0.14723   0.15864   0.16197
 Alpha virt. eigenvalues --    0.18883   0.20426   0.21796   0.22728   0.23576

 Mulliken charges:
               1
     1  C   -0.169531
     2  C   -0.029388
     3  C   -0.029736
     4  C   -0.175777
     5  H    0.084639
     6  H    0.062933
     7  H    0.056635
     8  H    0.051917
     9  H    0.065581
    10  H    0.082728
 Sum of Mulliken charges =   0.00000

 Dipole moment (field-independent basis, Debye):
    X=             -0.0268    Y=             -0.0298    Z=              0.1162  Tot=              0.1229
 Quadrupole moment (field-independent basis, Debye-Ang):
   XX=            -23.2772   YY=            -23.2345   ZZ=            -29.2372
   XY=              0.2046   XZ=              0.2576   YZ=             -0.0246

 1\1\GINC-NODE39\SP\RB2PLYPD3-FC\def2QZVP\C4H6\BOITTIER\26-Aug-2020\0\\
 #p B2PLYPD3/Def2QZVP\\butadiene\\0,1\C,0,-3.849767,0.208166,0.018545\C
 ,0,-2.721207,-0.476096,0.049242\C,0,-1.382536,0.076582,0.023054\C,0,-0
 .26241,-0.666789,0.021588\H,0,-4.823051,-0.268049,-0.048802\H,0,-3.847
 531,1.290578,-0.05744\H,0,-2.741578,-1.537402,0.070357\H,0,-1.275052,1
 .17469,-0.031459\H,0,-0.274923,-1.738394,0.030015\H,0,0.7396,-0.214835
 ,0.021986\\Version=ES64L-G09RevD.01\State=1-A\HF=-155.6996637\MP2=-155
 .9252667\RMSD=4.908e-09\PG=C01 [X(C4H6)]\\@

 Normal termination of Gaussian 09 at Wed Aug 26 16:27:15 2020.
