 Gaussian 09, Revision D.01,
 Gaussian 09:  ES64L-G09RevD.01 24-Apr-2013

 --------------------
 #p B2PLYPD3/Def2QZVP
 --------------------

 ---------
 butadiene
 ---------
 Symbolic Z-matrix:
 Charge =  0 Multiplicity = 1

                         Standard orientation:
 ---------------------------------------------------------------------
 Center     Atomic      Atomic             Coordinates (Angstroms)
 Number     Number       Type             X           Y           Z
 ---------------------------------------------------------------------
      1          6           0       -1.834530    0.097435    0.025667
      2          6           0       -0.599939   -0.386906   -0.024978
      3          6           0        0.602448    0.424594   -0.017095
      4          6           0        1.827559   -0.126440    0.020183
      5          1           0       -2.689404   -0.575157   -0.017830
      6          1           0       -2.009412    1.163048    0.048052
      7          1           0       -0.431662   -1.470243   -0.065055
      8          1           0        0.456919    1.499434   -0.035699
      9          1           0        2.011000   -1.181633    0.086725
     10          1           0        2.689332    0.512454   -0.038851
 ---------------------------------------------------------------------

 SCF Done:  E(RB2PLYPD3) =  -155.700306221     A.U. after   11 cycles
 E2(B2PLYPD3) =    -0.2257345011D+00 E(B2PLYPD3) =    -0.15592604072194D+03

 The electronic state is 1-A.
 Alpha  occ. eigenvalues --  -10.62636 -10.62306 -10.61500 -10.61327  -0.93048
 Alpha  occ. eigenvalues --   -0.84856  -0.70177  -0.64048  -0.54428  -0.54018
 Alpha  occ. eigenvalues --   -0.46725  -0.45794  -0.41077  -0.38102  -0.27614
 Alpha virt. eigenvalues --    0.01758   0.07022   0.07351   0.08085   0.09570
 Alpha virt. eigenvalues --    0.11756   0.12351   0.14868   0.15871   0.15983
 Alpha virt. eigenvalues --    0.18738   0.20533   0.21556   0.22869   0.23851

 Mulliken charges:
               1
     1  C   -0.180157
     2  C   -0.020981
     3  C   -0.036353
     4  C   -0.177604
     5  H    0.086194
     6  H    0.065720
     7  H    0.051155
     8  H    0.057375
     9  H    0.071781
    10  H    0.082870
 Sum of Mulliken charges =   0.00000

 Dipole moment (field-independent basis, Debye):
    X=              0.0443    Y=              0.0001    Z=             -0.0448  Tot=              0.0630
 Quadrupole moment (field-independent basis, Debye-Ang):
   XX=            -23.6979   YY=            -22.9741   ZZ=            -29.2632
   XY=             -0.2937   XZ=              0.0314   YZ=             -0.0371

 1\1\GINC-NODE09\SP\RB2PLYPD3-FC\def2QZVP\C4H6\BOITTIER\26-Aug-2020\0\\
 #p B2PLYPD3/Def2QZVP\\butadiene\\0,1\C,0,-3.837528,0.216514,0.042627\C
 ,0,-2.712616,-0.48696,0.010017\C,0,-1.38201,0.090603,-0.005315\C,0,-0.
 278295,-0.673889,0.052051\H,0,-4.801205,-0.289287,0.018692\H,0,-3.8143
 67,1.296301,0.030789\H,0,-2.74558,-1.583513,0.004721\H,0,-1.328455,1.1
 72789,-0.058352\H,0,-0.290804,-1.742193,0.152458\H,0,0.685616,-0.20570
 3,-0.025408\\Version=ES64L-G09RevD.01\State=1-A\HF=-155.7003062\MP2=-1
 55.9260407\RMSD=6.183e-09\PG=C01 [X(C4H6)]\\@

 Normal termination of Gaussian 09 at Wed Aug 26 21:39:17 2020.
