 Gaussian 09, Revision D.01,
 Gaussian 09:  ES64L-G09RevD.01 24-Apr-2013

 --------------------
 #p B2PLYPD3/Def2QZVP
 --------------------

 ---------
 butadiene
 ---------
 Symbolic Z-matrix:
 Charge =  0 Multiplicity = 1

                         Standard orientation:
 ---------------------------------------------------------------------
 Center     Atomic      Atomic             Coordinates (Angstroms)
 Number     Number       Type             X           Y           Z
 ---------------------------------------------------------------------
      1          6           0        1.831412   -0.104613    0.014109
      2          6           0        0.598203    0.405320   -0.020621
      3          6           0       -0.601221   -0.422547   -0.037930
      4          6           0       -1.838092    0.111378    0.007203
      5          1           0        2.710437    0.520399    0.063241
      6          1           0        2.028068   -1.149628    0.019609
      7          1           0        0.481711    1.469430   -0.021376
      8          1           0       -0.437922   -1.487067    0.028475
      9          1           0       -1.986033    1.201825    0.051425
     10          1           0       -2.738080   -0.492188    0.082061
 ---------------------------------------------------------------------

 SCF Done:  E(RB2PLYPD3) =  -155.699729459     A.U. after   11 cycles
 E2(B2PLYPD3) =    -0.2258957339D+00 E(B2PLYPD3) =    -0.15592562519257D+03

 The electronic state is 1-A.
 Alpha  occ. eigenvalues --  -10.62783 -10.62367 -10.61983 -10.61176  -0.92907
 Alpha  occ. eigenvalues --   -0.84651  -0.70112  -0.64515  -0.54630  -0.53798
 Alpha  occ. eigenvalues --   -0.46702  -0.45560  -0.41343  -0.38014  -0.27527
 Alpha virt. eigenvalues --    0.01692   0.07022   0.07412   0.08129   0.09338
 Alpha virt. eigenvalues --    0.11670   0.12529   0.14677   0.15809   0.16290
 Alpha virt. eigenvalues --    0.18792   0.20416   0.21780   0.23092   0.23695

 Mulliken charges:
               1
     1  C   -0.176287
     2  C   -0.026673
     3  C   -0.039494
     4  C   -0.171736
     5  H    0.080653
     6  H    0.064462
     7  H    0.059439
     8  H    0.061510
     9  H    0.063961
    10  H    0.084165
 Sum of Mulliken charges =   0.00000

 Dipole moment (field-independent basis, Debye):
    X=              0.0160    Y=             -0.0097    Z=              0.1642  Tot=              0.1652
 Quadrupole moment (field-independent basis, Debye-Ang):
   XX=            -23.4670   YY=            -23.0712   ZZ=            -29.2946
   XY=             -0.2655   XZ=             -0.1690   YZ=             -0.0398

 1\1\GINC-NODE03\SP\RB2PLYPD3-FC\def2QZVP\C4H6\BOITTIER\26-Aug-2020\0\\
 #p B2PLYPD3/Def2QZVP\\butadiene\\0,1\C,0,-3.835035,0.221681,0.034695\C
 ,0,-2.715685,-0.505507,0.017472\C,0,-1.385336,0.088778,-0.018288\C,0,-
 0.266619,-0.66051,0.044978\H,0,-4.813283,-0.23085,0.097826\H,0,-3.8376
 33,1.284799,0.011581\H,0,-2.795381,-1.572633,0.045593\H,0,-1.351466,1.
 166617,0.019062\H,0,-0.320118,-1.75805,0.118862\H,0,0.728554,-0.229546
 ,0.106431\\Version=ES64L-G09RevD.01\State=1-A\HF=-155.6997295\MP2=-155
 .9256252\RMSD=4.702e-09\PG=C01 [X(C4H6)]\\@

 Normal termination of Gaussian 09 at Wed Aug 26 19:28:16 2020.
