 Gaussian 09, Revision D.01,
 Gaussian 09:  ES64L-G09RevD.01 24-Apr-2013

 --------------------
 #p B2PLYPD3/Def2QZVP
 --------------------

 ---------
 butadiene
 ---------
 Symbolic Z-matrix:
 Charge =  0 Multiplicity = 1

                         Standard orientation:
 ---------------------------------------------------------------------
 Center     Atomic      Atomic             Coordinates (Angstroms)
 Number     Number       Type             X           Y           Z
 ---------------------------------------------------------------------
      1          6           0        1.853978    0.119820    0.074516
      2          6           0        0.621553   -0.420931   -0.106990
      3          6           0       -0.642021    0.384288   -0.066057
      4          6           0       -1.867027   -0.111191    0.053903
      5          1           0        2.856604   -0.396347    0.177579
      6          1           0        1.961565    1.167680    0.010429
      7          1           0        0.627815   -1.503363   -0.017658
      8          1           0       -0.510335    1.509153   -0.161123
      9          1           0       -2.114223   -1.123230   -0.003889
     10          1           0       -2.620324    0.514194    0.262423
 ---------------------------------------------------------------------

 SCF Done:  E(RB2PLYPD3) =  -155.680975719     A.U. after   12 cycles
 E2(B2PLYPD3) =    -0.2263092319D+00 E(B2PLYPD3) =    -0.15590728495113D+03

 The electronic state is 1-A.
 Alpha  occ. eigenvalues --  -10.63727 -10.63350 -10.62103 -10.60197  -0.92197
 Alpha  occ. eigenvalues --   -0.85254  -0.70267  -0.64063  -0.54810  -0.54121
 Alpha  occ. eigenvalues --   -0.46752  -0.45413  -0.41084  -0.37269  -0.27788
 Alpha virt. eigenvalues --    0.01647   0.06999   0.07577   0.07932   0.09018
 Alpha virt. eigenvalues --    0.11408   0.12717   0.14320   0.15594   0.16958
 Alpha virt. eigenvalues --    0.18994   0.19269   0.22062   0.23219   0.24024

 Mulliken charges:
               1
     1  C   -0.161143
     2  C   -0.046354
     3  C   -0.036527
     4  C   -0.173246
     5  H    0.077896
     6  H    0.058243
     7  H    0.063796
     8  H    0.055324
     9  H    0.074328
    10  H    0.087682
 Sum of Mulliken charges =   0.00000

 Dipole moment (field-independent basis, Debye):
    X=             -0.0158    Y=              0.0137    Z=              0.1297  Tot=              0.1314
 Quadrupole moment (field-independent basis, Debye-Ang):
   XX=            -22.9303   YY=            -23.3429   ZZ=            -29.2143
   XY=              0.1834   XZ=             -0.0787   YZ=             -0.1094

 1\1\GINC-NODE07\SP\RB2PLYPD3-FC\def2QZVP\C4H6\BOITTIER\26-Aug-2020\0\\
 #p B2PLYPD3/Def2QZVP\\butadiene\\0,1\C,0,-3.861853,0.221524,-0.059997\
 C,0,-2.739622,-0.517731,0.135779\C,0,-1.357045,0.058287,0.077866\C,0,-
 0.235166,-0.642098,-0.028807\H,0,-4.93826,-0.117762,-0.152409\H,0,-3.7
 88442,1.273543,-0.020487\H,0,-2.931183,-1.584912,0.071678\H,0,-1.29412
 5,1.190996,0.146519\H,0,-0.164581,-1.67989,0.05289\H,0,0.613458,-0.159
 806,-0.250785\\Version=ES64L-G09RevD.01\State=1-A\HF=-155.6809757\MP2=
 -155.907285\RMSD=4.365e-09\PG=C01 [X(C4H6)]\\@

 Normal termination of Gaussian 09 at Wed Aug 26 14:17:41 2020.
