 Gaussian 09, Revision D.01,
 Gaussian 09:  ES64L-G09RevD.01 24-Apr-2013

 --------------------
 #p B2PLYPD3/Def2QZVP
 --------------------

 ---------
 butadiene
 ---------
 Symbolic Z-matrix:
 Charge =  0 Multiplicity = 1

                         Standard orientation:
 ---------------------------------------------------------------------
 Center     Atomic      Atomic             Coordinates (Angstroms)
 Number     Number       Type             X           Y           Z
 ---------------------------------------------------------------------
      1          6           0       -1.847881    0.082792    0.036228
      2          6           0       -0.596248   -0.359480   -0.057501
      3          6           0        0.603666    0.418171   -0.029625
      4          6           0        1.843269   -0.138093    0.007253
      5          1           0       -2.710423   -0.540633    0.126253
      6          1           0       -2.064887    1.110683    0.022976
      7          1           0       -0.435671   -1.448080   -0.055056
      8          1           0        0.484556    1.479103   -0.082530
      9          1           0        2.016090   -1.179240    0.066885
     10          1           0        2.693497    0.557822    0.183349
 ---------------------------------------------------------------------

 SCF Done:  E(RB2PLYPD3) =  -155.695216089     A.U. after   11 cycles
 E2(B2PLYPD3) =    -0.2261455208D+00 E(B2PLYPD3) =    -0.15592136160966D+03

 The electronic state is 1-A.
 Alpha  occ. eigenvalues --  -10.62682 -10.62353 -10.62052 -10.60981  -0.93194
 Alpha  occ. eigenvalues --   -0.84793  -0.70875  -0.64393  -0.54612  -0.54257
 Alpha  occ. eigenvalues --   -0.47034  -0.45534  -0.41261  -0.38125  -0.27398
 Alpha virt. eigenvalues --    0.01183   0.06949   0.07553   0.08023   0.09696
 Alpha virt. eigenvalues --    0.11689   0.12484   0.14946   0.15687   0.16205
 Alpha virt. eigenvalues --    0.18894   0.20196   0.22010   0.22887   0.23532

 Mulliken charges:
               1
     1  C   -0.176879
     2  C   -0.017361
     3  C   -0.039077
     4  C   -0.175307
     5  H    0.085568
     6  H    0.061034
     7  H    0.046437
     8  H    0.061573
     9  H    0.075457
    10  H    0.078555
 Sum of Mulliken charges =   0.00000

 Dipole moment (field-independent basis, Debye):
    X=             -0.0397    Y=              0.0279    Z=              0.1805  Tot=              0.1869
 Quadrupole moment (field-independent basis, Debye-Ang):
   XX=            -23.5158   YY=            -23.1652   ZZ=            -29.1956
   XY=             -0.2973   XZ=              0.2246   YZ=             -0.0764

 1\1\GINC-NODE24\SP\RB2PLYPD3-FC\def2QZVP\C4H6\BOITTIER\26-Aug-2020\0\\
 #p B2PLYPD3/Def2QZVP\\butadiene\\0,1\C,0,-3.854636,0.204403,0.055507\C
 ,0,-2.704796,-0.461717,-0.016088\C,0,-1.383248,0.084927,-0.014233\C,0,
 -0.265543,-0.685871,0.049105\H,0,-4.815964,-0.247517,0.166679\H,0,-3.8
 80885,1.253298,0.001118\H,0,-2.745125,-1.560407,0.029673\H,0,-1.307358
 ,1.146901,-0.109172\H,0,-0.284995,-1.737923,0.150192\H,0,0.697795,-0.1
 50039,0.200957\\Version=ES64L-G09RevD.01\State=1-A\HF=-155.6952161\MP2
 =-155.9213616\RMSD=7.020e-09\PG=C01 [X(C4H6)]\\@

 Normal termination of Gaussian 09 at Wed Aug 26 11:04:13 2020.
