 Gaussian 09, Revision D.01,
 Gaussian 09:  ES64L-G09RevD.01 24-Apr-2013

 --------------------
 #p B2PLYPD3/Def2QZVP
 --------------------

 ---------
 butadiene
 ---------
 Symbolic Z-matrix:
 Charge =  0 Multiplicity = 1

                         Standard orientation:
 ---------------------------------------------------------------------
 Center     Atomic      Atomic             Coordinates (Angstroms)
 Number     Number       Type             X           Y           Z
 ---------------------------------------------------------------------
      1          6           0       -1.840463   -0.116428    0.001811
      2          6           0       -0.608347    0.406415   -0.011997
      3          6           0        0.611606   -0.388572   -0.035298
      4          6           0        1.848495    0.103780    0.015653
      5          1           0       -2.726003    0.493107    0.073523
      6          1           0       -1.983673   -1.207186    0.035693
      7          1           0       -0.510566    1.509078   -0.013169
      8          1           0        0.462395   -1.467532    0.009232
      9          1           0        1.974290    1.173996    0.010543
     10          1           0        2.715816   -0.532636    0.063169
 ---------------------------------------------------------------------

 SCF Done:  E(RB2PLYPD3) =  -155.700132808     A.U. after   11 cycles
 E2(B2PLYPD3) =    -0.2259170879D+00 E(B2PLYPD3) =    -0.15592604989556D+03

 The electronic state is 1-A.
 Alpha  occ. eigenvalues --  -10.62878 -10.62552 -10.61750 -10.61411  -0.92896
 Alpha  occ. eigenvalues --   -0.84970  -0.70066  -0.63729  -0.54663  -0.53849
 Alpha  occ. eigenvalues --   -0.46758  -0.45366  -0.41040  -0.38122  -0.27755
 Alpha virt. eigenvalues --    0.01701   0.07026   0.07350   0.08021   0.09615
 Alpha virt. eigenvalues --    0.11659   0.12457   0.14575   0.15789   0.16220
 Alpha virt. eigenvalues --    0.18794   0.20338   0.21575   0.22876   0.23800

 Mulliken charges:
               1
     1  C   -0.172851
     2  C   -0.030712
     3  C   -0.025081
     4  C   -0.177302
     5  H    0.087422
     6  H    0.061351
     7  H    0.049053
     8  H    0.051351
     9  H    0.065986
    10  H    0.090784
 Sum of Mulliken charges =   0.00000

 Dipole moment (field-independent basis, Debye):
    X=             -0.0113    Y=              0.0003    Z=              0.1333  Tot=              0.1338
 Quadrupole moment (field-independent basis, Debye-Ang):
   XX=            -23.4217   YY=            -23.1700   ZZ=            -29.3061
   XY=             -0.0196   XZ=             -0.0573   YZ=             -0.0691

 1\1\GINC-NODE24\SP\RB2PLYPD3-FC\def2QZVP\C4H6\BOITTIER\26-Aug-2020\0\\
 #p B2PLYPD3/Def2QZVP\\butadiene\\0,1\C,0,-3.843858,0.226496,0.01096\C,
 0,-2.724021,-0.505886,0.046245\C,0,-1.382284,0.060303,0.044315\C,0,-0.
 252592,-0.645224,0.013814\H,0,-4.823775,-0.218357,-0.041253\H,0,-3.791
 386,1.32347,-0.061878\H,0,-2.823441,-1.607661,0.086705\H,0,-1.337852,1
 .146363,-0.03876\H,0,-0.318671,-1.719919,0.057128\H,0,0.713697,-0.1749
 07,-0.054123\\Version=ES64L-G09RevD.01\State=1-A\HF=-155.7001328\MP2=-
 155.9260499\RMSD=2.516e-09\PG=C01 [X(C4H6)]\\@

 Normal termination of Gaussian 09 at Wed Aug 26 18:45:31 2020.
