 Gaussian 09, Revision D.01,
 Gaussian 09:  ES64L-G09RevD.01 24-Apr-2013

 --------------------
 #p B2PLYPD3/Def2QZVP
 --------------------

 ---------
 butadiene
 ---------
 Symbolic Z-matrix:
 Charge =  0 Multiplicity = 1

                         Standard orientation:
 ---------------------------------------------------------------------
 Center     Atomic      Atomic             Coordinates (Angstroms)
 Number     Number       Type             X           Y           Z
 ---------------------------------------------------------------------
      1          6           0       -1.836662    0.097169    0.003928
      2          6           0       -0.603075   -0.385537   -0.020708
      3          6           0        0.602900    0.415599    0.001051
      4          6           0        1.827396   -0.118732    0.005498
      5          1           0       -2.718246   -0.534970    0.066716
      6          1           0       -1.978987    1.160989    0.014323
      7          1           0       -0.459689   -1.444198   -0.014446
      8          1           0        0.478297    1.496179   -0.051967
      9          1           0        1.965635   -1.190456   -0.003315
     10          1           0        2.769642    0.461463    0.050077
 ---------------------------------------------------------------------

 SCF Done:  E(RB2PLYPD3) =  -155.700118886     A.U. after   11 cycles
 E2(B2PLYPD3) =    -0.2255466335D+00 E(B2PLYPD3) =    -0.15592566551968D+03

 The electronic state is 1-A.
 Alpha  occ. eigenvalues --  -10.62635 -10.62079 -10.61846 -10.61247  -0.93241
 Alpha  occ. eigenvalues --   -0.84963  -0.70037  -0.64363  -0.54717  -0.53859
 Alpha  occ. eigenvalues --   -0.46954  -0.45260  -0.41154  -0.38263  -0.27745
 Alpha virt. eigenvalues --    0.01805   0.07001   0.07450   0.08051   0.09635
 Alpha virt. eigenvalues --    0.11661   0.12584   0.14594   0.15789   0.16252
 Alpha virt. eigenvalues --    0.18777   0.20453   0.21773   0.22864   0.23726

 Mulliken charges:
               1
     1  C   -0.176565
     2  C   -0.023970
     3  C   -0.033309
     4  C   -0.170913
     5  H    0.087071
     6  H    0.062572
     7  H    0.054594
     8  H    0.055706
     9  H    0.062538
    10  H    0.082277
 Sum of Mulliken charges =   0.00000

 Dipole moment (field-independent basis, Debye):
    X=              0.0309    Y=             -0.0221    Z=              0.0443  Tot=              0.0583
 Quadrupole moment (field-independent basis, Debye-Ang):
   XX=            -23.3420   YY=            -23.2265   ZZ=            -29.2183
   XY=             -0.1158   XZ=             -0.1236   YZ=             -0.0538

 1\1\GINC-NODE11\SP\RB2PLYPD3-FC\def2QZVP\C4H6\BOITTIER\26-Aug-2020\0\\
 #p B2PLYPD3/Def2QZVP\\butadiene\\0,1\C,0,-3.840613,0.209768,0.024696\C
 ,0,-2.713889,-0.487223,0.017858\C,0,-1.383571,0.08453,0.013211\C,0,-0.
 274908,-0.660593,0.037207\H,0,-4.82103,-0.25123,0.108339\H,0,-3.789559
 ,1.281578,-0.001636\H,0,-2.762885,-1.553585,0.060661\H,0,-1.312407,1.1
 67479,-0.077056\H,0,-0.331391,-1.739387,0.065388\H,0,0.75642,-0.25791,
 0.062711\\Version=ES64L-G09RevD.01\State=1-A\HF=-155.7001189\MP2=-155.
 9256655\RMSD=4.118e-09\PG=C01 [X(C4H6)]\\@

 Normal termination of Gaussian 09 at Wed Aug 26 12:32:47 2020.
