 Gaussian 09, Revision D.01,
 Gaussian 09:  ES64L-G09RevD.01 24-Apr-2013

 --------------------
 #p B2PLYPD3/Def2QZVP
 --------------------

 ---------
 butadiene
 ---------
 Symbolic Z-matrix:
 Charge =  0 Multiplicity = 1

                         Standard orientation:
 ---------------------------------------------------------------------
 Center     Atomic      Atomic             Coordinates (Angstroms)
 Number     Number       Type             X           Y           Z
 ---------------------------------------------------------------------
      1          6           0       -1.841111   -0.069074    0.019234
      2          6           0       -0.589347    0.322489   -0.090116
      3          6           0        0.611580   -0.432352   -0.023822
      4          6           0        1.844203    0.137234    0.044476
      5          1           0       -2.692273    0.620993    0.159355
      6          1           0       -2.211044   -1.018351   -0.013454
      7          1           0       -0.446261    1.435196    0.120724
      8          1           0        0.406920   -1.535695    0.083203
      9          1           0        2.015723    1.244574   -0.056453
     10          1           0        2.774985   -0.496499    0.007992
 ---------------------------------------------------------------------

 SCF Done:  E(RB2PLYPD3) =  -155.679696667     A.U. after   11 cycles
 E2(B2PLYPD3) =    -0.2273246530D+00 E(B2PLYPD3) =    -0.15590702131961D+03

 The electronic state is 1-A.
 Alpha  occ. eigenvalues --  -10.63527 -10.63184 -10.62516 -10.61000  -0.93281
 Alpha  occ. eigenvalues --   -0.84721  -0.70922  -0.63381  -0.54975  -0.53303
 Alpha  occ. eigenvalues --   -0.46823  -0.44653  -0.40133  -0.38164  -0.27657
 Alpha virt. eigenvalues --    0.00969   0.06901   0.07236   0.07770   0.09577
 Alpha virt. eigenvalues --    0.11458   0.12474   0.14904   0.15347   0.16009
 Alpha virt. eigenvalues --    0.18725   0.19692   0.22213   0.22658   0.23731

 Mulliken charges:
               1
     1  C   -0.167982
     2  C   -0.002210
     3  C   -0.051401
     4  C   -0.164225
     5  H    0.071366
     6  H    0.061674
     7  H    0.044764
     8  H    0.054639
     9  H    0.070549
    10  H    0.082825
 Sum of Mulliken charges =   0.00000

 Dipole moment (field-independent basis, Debye):
    X=             -0.0657    Y=             -0.0911    Z=              0.1574  Tot=              0.1934
 Quadrupole moment (field-independent basis, Debye-Ang):
   XX=            -23.0215   YY=            -23.6213   ZZ=            -29.2825
   XY=              0.6195   XZ=             -0.5818   YZ=              0.1188

 1\1\GINC-NODE27\SP\RB2PLYPD3-FC\def2QZVP\C4H6\BOITTIER\26-Aug-2020\0\\
 #p B2PLYPD3/Def2QZVP\\butadiene\\0,1\C,0,-3.852606,0.190782,-0.013554\
 C,0,-2.695724,-0.424706,0.108884\C,0,-1.375299,0.093214,0.040756\C,0,-
 0.26956,-0.696076,-0.012291\H,0,-4.816498,-0.331227,-0.150379\H,0,-4.0
 40034,1.192574,0.004635\H,0,-2.760822,-1.547428,-0.086825\H,0,-1.37117
 1,1.213797,-0.081647\H,0,-0.306969,-1.814521,0.103853\H,0,0.762526,-0.
 245614,0.022142\\Version=ES64L-G09RevD.01\State=1-A\HF=-155.6796967\MP
 2=-155.9070213\RMSD=9.536e-09\PG=C01 [X(C4H6)]\\@

 Normal termination of Gaussian 09 at Wed Aug 26 14:00:15 2020.
