 Gaussian 09, Revision D.01,
 Gaussian 09:  ES64L-G09RevD.01 24-Apr-2013

 --------------------
 #p B2PLYPD3/Def2QZVP
 --------------------

 ---------
 butadiene
 ---------
 Symbolic Z-matrix:
 Charge =  0 Multiplicity = 1

                         Standard orientation:
 ---------------------------------------------------------------------
 Center     Atomic      Atomic             Coordinates (Angstroms)
 Number     Number       Type             X           Y           Z
 ---------------------------------------------------------------------
      1          6           0        1.834649    0.108663   -0.006980
      2          6           0        0.601878   -0.388178    0.002470
      3          6           0       -0.603632    0.407377   -0.010636
      4          6           0       -1.823530   -0.115116    0.001772
      5          1           0        2.654580   -0.559981   -0.023996
      6          1           0        2.046844    1.160796    0.088138
      7          1           0        0.468584   -1.478360   -0.016934
      8          1           0       -0.506847    1.497713   -0.009273
      9          1           0       -1.965455   -1.185247    0.065741
     10          1           0       -2.753894    0.488602   -0.023428
 ---------------------------------------------------------------------

 SCF Done:  E(RB2PLYPD3) =  -155.699809708     A.U. after   11 cycles
 E2(B2PLYPD3) =    -0.2255028310D+00 E(B2PLYPD3) =    -0.15592531253865D+03

 The electronic state is 1-A.
 Alpha  occ. eigenvalues --  -10.62492 -10.62392 -10.61638 -10.61049  -0.93216
 Alpha  occ. eigenvalues --   -0.85106  -0.70105  -0.63896  -0.54616  -0.54129
 Alpha  occ. eigenvalues --   -0.46580  -0.45440  -0.41088  -0.38321  -0.27747
 Alpha virt. eigenvalues --    0.01849   0.07017   0.07378   0.07996   0.09697
 Alpha virt. eigenvalues --    0.11680   0.12425   0.14789   0.15878   0.16193
 Alpha virt. eigenvalues --    0.18730   0.20475   0.21704   0.22690   0.23878

 Mulliken charges:
               1
     1  C   -0.177788
     2  C   -0.029247
     3  C   -0.027031
     4  C   -0.170627
     5  H    0.084839
     6  H    0.069827
     7  H    0.051531
     8  H    0.054258
     9  H    0.061943
    10  H    0.082296
 Sum of Mulliken charges =   0.00000

 Dipole moment (field-independent basis, Debye):
    X=             -0.0130    Y=             -0.0030    Z=              0.0767  Tot=              0.0778
 Quadrupole moment (field-independent basis, Debye-Ang):
   XX=            -23.4929   YY=            -23.0975   ZZ=            -29.2093
   XY=              0.1339   XZ=              0.0501   YZ=              0.0483

 1\1\GINC-NODE15\SP\RB2PLYPD3-FC\def2QZVP\C4H6\BOITTIER\26-Aug-2020\0\\
 #p B2PLYPD3/Def2QZVP\\butadiene\\0,1\C,0,-3.836478,0.220618,0.022678\C
 ,0,-2.713212,-0.489909,0.032204\C,0,-1.384235,0.075827,0.022336\C,0,-0
 .278257,-0.657699,0.029707\H,0,-4.763233,-0.288729,0.059439\H,0,-3.856
 313,1.290129,-0.106975\H,0,-2.778102,-1.585081,0.087232\H,0,-1.283341,
 1.165166,-0.014581\H,0,-0.331345,-1.737403,0.000776\H,0,0.745602,-0.23
 0687,0.0375\\Version=ES64L-G09RevD.01\State=1-A\HF=-155.6998097\MP2=-1
 55.9253125\RMSD=4.228e-09\PG=C01 [X(C4H6)]\\@

 Normal termination of Gaussian 09 at Wed Aug 26 16:30:50 2020.
