 Gaussian 09, Revision D.01,
 Gaussian 09:  ES64L-G09RevD.01 24-Apr-2013

 --------------------
 #p B2PLYPD3/Def2QZVP
 --------------------

 ---------
 butadiene
 ---------
 Symbolic Z-matrix:
 Charge =  0 Multiplicity = 1

                         Standard orientation:
 ---------------------------------------------------------------------
 Center     Atomic      Atomic             Coordinates (Angstroms)
 Number     Number       Type             X           Y           Z
 ---------------------------------------------------------------------
      1          6           0       -1.859375   -0.117529    0.033502
      2          6           0       -0.604799    0.386068   -0.068469
      3          6           0        0.632001   -0.417171   -0.049987
      4          6           0        1.845537    0.127326    0.053026
      5          1           0       -2.669687    0.582299    0.126962
      6          1           0       -2.078972   -1.152970    0.016794
      7          1           0       -0.525033    1.457574   -0.005711
      8          1           0        0.525980   -1.485718    0.018596
      9          1           0        1.909757    1.223862    0.008920
     10          1           0        2.757769   -0.497214    0.026010
 ---------------------------------------------------------------------

 SCF Done:  E(RB2PLYPD3) =  -155.696302982     A.U. after   11 cycles
 E2(B2PLYPD3) =    -0.2262551855D+00 E(B2PLYPD3) =    -0.15592255816704D+03

 The electronic state is 1-A.
 Alpha  occ. eigenvalues --  -10.62863 -10.62636 -10.61951 -10.61452  -0.92552
 Alpha  occ. eigenvalues --   -0.84846  -0.69772  -0.64240  -0.54478  -0.53748
 Alpha  occ. eigenvalues --   -0.46149  -0.45906  -0.41401  -0.37715  -0.27655
 Alpha virt. eigenvalues --    0.01602   0.06978   0.07531   0.07982   0.09276
 Alpha virt. eigenvalues --    0.11734   0.12365   0.14624   0.15702   0.16124
 Alpha virt. eigenvalues --    0.18840   0.19861   0.21375   0.22960   0.24526

 Mulliken charges:
               1
     1  C   -0.181697
     2  C   -0.035286
     3  C   -0.037677
     4  C   -0.168335
     5  H    0.082846
     6  H    0.073614
     7  H    0.055926
     8  H    0.060170
     9  H    0.063987
    10  H    0.086452
 Sum of Mulliken charges =   0.00000

 Dipole moment (field-independent basis, Debye):
    X=             -0.0037    Y=             -0.0384    Z=              0.0873  Tot=              0.0955
 Quadrupole moment (field-independent basis, Debye-Ang):
   XX=            -23.6800   YY=            -22.9783   ZZ=            -29.3681
   XY=             -0.0665   XZ=             -0.3313   YZ=              0.0444

 1\1\GINC-NODE31\SP\RB2PLYPD3-FC\def2QZVP\C4H6\BOITTIER\26-Aug-2020\0\\
 #p B2PLYPD3/Def2QZVP\\butadiene\\0,1\C,0,-3.865236,0.219296,-0.023153\
 C,0,-2.71666,-0.490921,0.096574\C,0,-1.359573,0.085645,0.063476\C,0,-0
 .258513,-0.662893,-0.020879\H,0,-4.784387,-0.332003,-0.102709\H,0,-3.9
 02431,1.2772,-0.033002\H,0,-2.823431,-1.561313,0.060686\H,0,-1.279187,
 1.154366,-0.031974\H,0,-0.384914,-1.752559,0.050617\H,0,0.747994,-0.20
 5014,-0.00545\\Version=ES64L-G09RevD.01\State=1-A\HF=-155.696303\MP2=-
 155.9225582\RMSD=7.341e-09\PG=C01 [X(C4H6)]\\@

 Normal termination of Gaussian 09 at Wed Aug 26 09:31:37 2020.
