 Gaussian 09, Revision D.01,
 Gaussian 09:  ES64L-G09RevD.01 24-Apr-2013

 --------------------
 #p B2PLYPD3/Def2QZVP
 --------------------

 ---------
 butadiene
 ---------
 Symbolic Z-matrix:
 Charge =  0 Multiplicity = 1

                         Standard orientation:
 ---------------------------------------------------------------------
 Center     Atomic      Atomic             Coordinates (Angstroms)
 Number     Number       Type             X           Y           Z
 ---------------------------------------------------------------------
      1          6           0        1.842329    0.107854   -0.001884
      2          6           0        0.603016   -0.397251   -0.014219
      3          6           0       -0.608656    0.396462    0.009927
      4          6           0       -1.837212   -0.115482   -0.017862
      5          1           0        2.721720   -0.504625    0.034114
      6          1           0        2.013177    1.183153   -0.034966
      7          1           0        0.517746   -1.473123    0.060784
      8          1           0       -0.507963    1.479441    0.038551
      9          1           0       -2.036723   -1.182576    0.001530
     10          1           0       -2.704814    0.548237    0.044217
 ---------------------------------------------------------------------

 SCF Done:  E(RB2PLYPD3) =  -155.700481634     A.U. after   11 cycles
 E2(B2PLYPD3) =    -0.2257183380D+00 E(B2PLYPD3) =    -0.15592619997198D+03

 The electronic state is 1-A.
 Alpha  occ. eigenvalues --  -10.62550 -10.62476 -10.61610 -10.61496  -0.93009
 Alpha  occ. eigenvalues --   -0.84962  -0.70109  -0.64037  -0.54524  -0.54138
 Alpha  occ. eigenvalues --   -0.46620  -0.45301  -0.41219  -0.38157  -0.27699
 Alpha virt. eigenvalues --    0.01694   0.07007   0.07455   0.07974   0.09653
 Alpha virt. eigenvalues --    0.11636   0.12411   0.14707   0.15815   0.16304
 Alpha virt. eigenvalues --    0.18842   0.20308   0.21745   0.22612   0.23832

 Mulliken charges:
               1
     1  C   -0.175003
     2  C   -0.030102
     3  C   -0.033383
     4  C   -0.170602
     5  H    0.085709
     6  H    0.061842
     7  H    0.056571
     8  H    0.056239
     9  H    0.067886
    10  H    0.080842
 Sum of Mulliken charges =   0.00000

 Dipole moment (field-independent basis, Debye):
    X=              0.0102    Y=             -0.0073    Z=              0.1278  Tot=              0.1284
 Quadrupole moment (field-independent basis, Debye-Ang):
   XX=            -23.4302   YY=            -23.0979   ZZ=            -29.2669
   XY=              0.0762   XZ=             -0.0731   YZ=             -0.0768

 1\1\GINC-NODE10\SP\RB2PLYPD3-FC\def2QZVP\C4H6\BOITTIER\26-Aug-2020\0\\
 #p B2PLYPD3/Def2QZVP\\butadiene\\0,1\C,0,-3.845698,0.220377,0.0193\C,0
 ,-2.716238,-0.497153,0.044779\C,0,-1.382574,0.067031,0.002939\C,0,-0.2
 64866,-0.654945,0.04402\H,0,-4.820297,-0.226182,-0.002977\H,0,-3.82202
 1,1.309384,0.026693\H,0,-2.824362,-1.572452,-0.00459\H,0,-1.288702,1.1
 49635,-0.051473\H,0,-0.258832,-1.740669,0.050145\H,0,0.706942,-0.15818
 5,-0.03298\\Version=ES64L-G09RevD.01\State=1-A\HF=-155.7004816\MP2=-15
 5.9262\RMSD=2.754e-09\PG=C01 [X(C4H6)]\\@

 Normal termination of Gaussian 09 at Wed Aug 26 16:34:47 2020.
