 Gaussian 09, Revision D.01,
 Gaussian 09:  ES64L-G09RevD.01 24-Apr-2013

 --------------------
 #p B2PLYPD3/Def2QZVP
 --------------------

 ---------
 butadiene
 ---------
 Symbolic Z-matrix:
 Charge =  0 Multiplicity = 1

                         Standard orientation:
 ---------------------------------------------------------------------
 Center     Atomic      Atomic             Coordinates (Angstroms)
 Number     Number       Type             X           Y           Z
 ---------------------------------------------------------------------
      1          6           0       -1.834646    0.114362    0.011108
      2          6           0       -0.602096   -0.403439   -0.032410
      3          6           0        0.601407    0.390485   -0.012870
      4          6           0        1.830784   -0.112466    0.007453
      5          1           0       -2.718668   -0.527842    0.038859
      6          1           0       -1.941797    1.208341    0.066622
      7          1           0       -0.483562   -1.466927   -0.014920
      8          1           0        0.474387    1.476266   -0.030065
      9          1           0        2.006260   -1.179185    0.082918
     10          1           0        2.690682    0.555695    0.016900
 ---------------------------------------------------------------------

 SCF Done:  E(RB2PLYPD3) =  -155.700221464     A.U. after   11 cycles
 E2(B2PLYPD3) =    -0.2258043328D+00 E(B2PLYPD3) =    -0.15592602579675D+03

 The electronic state is 1-A.
 Alpha  occ. eigenvalues --  -10.62359 -10.62213 -10.61830 -10.61459  -0.93237
 Alpha  occ. eigenvalues --   -0.84923  -0.69922  -0.64067  -0.54424  -0.53977
 Alpha  occ. eigenvalues --   -0.46440  -0.45517  -0.41278  -0.38297  -0.27654
 Alpha virt. eigenvalues --    0.01747   0.06991   0.07381   0.08002   0.09695
 Alpha virt. eigenvalues --    0.11746   0.12340   0.14707   0.15837   0.16068
 Alpha virt. eigenvalues --    0.18674   0.20492   0.21380   0.22735   0.24045

 Mulliken charges:
               1
     1  C   -0.176293
     2  C   -0.030358
     3  C   -0.024137
     4  C   -0.178181
     5  H    0.088164
     6  H    0.063838
     7  H    0.054913
     8  H    0.050151
     9  H    0.067436
    10  H    0.084467
 Sum of Mulliken charges =   0.00000

 Dipole moment (field-independent basis, Debye):
    X=              0.0065    Y=             -0.0285    Z=              0.1210  Tot=              0.1245
 Quadrupole moment (field-independent basis, Debye-Ang):
   XX=            -23.7118   YY=            -23.0405   ZZ=            -29.2667
   XY=              0.0367   XZ=             -0.0504   YZ=             -0.0621

 1\1\GINC-NODE22\SP\RB2PLYPD3-FC\def2QZVP\C4H6\BOITTIER\26-Aug-2020\0\\
 #p B2PLYPD3/Def2QZVP\\butadiene\\0,1\C,0,-3.835845,0.227309,0.032095\C
 ,0,-2.716055,-0.503896,0.007618\C,0,-1.389832,0.061989,0.002729\C,0,-0
 .270224,-0.651952,0.041561\H,0,-4.820388,-0.245024,0.07972\H,0,-3.7452
 54,1.324023,0.051227\H,0,-2.789668,-1.57027,0.060458\H,0,-1.320577,1.1
 51812,-0.050567\H,0,-0.288138,-1.729791,0.152539\H,0,0.695393,-0.14855
 6,0.030219\\Version=ES64L-G09RevD.01\State=1-A\HF=-155.7002215\MP2=-15
 5.9260258\RMSD=4.198e-09\PG=C01 [X(C4H6)]\\@

 Normal termination of Gaussian 09 at Wed Aug 26 21:08:12 2020.
