 Gaussian 09, Revision D.01,
 Gaussian 09:  ES64L-G09RevD.01 24-Apr-2013

 --------------------
 #p B2PLYPD3/Def2QZVP
 --------------------

 ---------
 butadiene
 ---------
 Symbolic Z-matrix:
 Charge =  0 Multiplicity = 1

                         Standard orientation:
 ---------------------------------------------------------------------
 Center     Atomic      Atomic             Coordinates (Angstroms)
 Number     Number       Type             X           Y           Z
 ---------------------------------------------------------------------
      1          6           0        1.847998   -0.122226   -0.031190
      2          6           0        0.609123    0.409696    0.029008
      3          6           0       -0.614373   -0.386803    0.010914
      4          6           0       -1.847487    0.099471   -0.015939
      5          1           0        2.743943    0.510675    0.013394
      6          1           0        2.009874   -1.208237   -0.037496
      7          1           0        0.505842    1.500218    0.053569
      8          1           0       -0.506950   -1.454657    0.088296
      9          1           0       -2.006754    1.174911   -0.060302
     10          1           0       -2.717522   -0.523739   -0.014215
 ---------------------------------------------------------------------

 SCF Done:  E(RB2PLYPD3) =  -155.699909284     A.U. after   11 cycles
 E2(B2PLYPD3) =    -0.2259296400D+00 E(B2PLYPD3) =    -0.15592583892442D+03

 The electronic state is 1-A.
 Alpha  occ. eigenvalues --  -10.63027 -10.62339 -10.62137 -10.61293  -0.92795
 Alpha  occ. eigenvalues --   -0.84868  -0.69981  -0.63959  -0.54558  -0.53847
 Alpha  occ. eigenvalues --   -0.46732  -0.45302  -0.41133  -0.37971  -0.27747
 Alpha virt. eigenvalues --    0.01665   0.06998   0.07431   0.07986   0.09596
 Alpha virt. eigenvalues --    0.11614   0.12413   0.14576   0.15804   0.16273
 Alpha virt. eigenvalues --    0.18865   0.20300   0.21642   0.22597   0.23772

 Mulliken charges:
               1
     1  C   -0.171258
     2  C   -0.040848
     3  C   -0.024440
     4  C   -0.174760
     5  H    0.084401
     6  H    0.066306
     7  H    0.055854
     8  H    0.055377
     9  H    0.061399
    10  H    0.087968
 Sum of Mulliken charges =   0.00000

 Dipole moment (field-independent basis, Debye):
    X=             -0.0089    Y=             -0.0138    Z=              0.0657  Tot=              0.0677
 Quadrupole moment (field-independent basis, Debye-Ang):
   XX=            -23.3736   YY=            -23.1441   ZZ=            -29.3260
   XY=             -0.0205   XZ=              0.0991   YZ=             -0.0555

 1\1\GINC-NODE16\SP\RB2PLYPD3-FC\def2QZVP\C4H6\BOITTIER\26-Aug-2020\0\\
 #p B2PLYPD3/Def2QZVP\\butadiene\\0,1\C,0,-3.849963,0.231078,-0.009758\
 C,0,-2.724412,-0.50981,0.065058\C,0,-1.37946,0.057092,0.027549\C,0,-0.
 251836,-0.640072,0.014168\H,0,-4.843506,-0.2321,0.050306\H,0,-3.817333
 ,1.328085,-0.044027\H,0,-2.815443,-1.600432,0.117645\H,0,-1.296133,1.1
 28729,0.07745\H,0,-0.285354,-1.727502,-0.002488\H,0,0.714665,-0.180673
 ,0.000625\\Version=ES64L-G09RevD.01\State=1-A\HF=-155.6999093\MP2=-155
 .9258389\RMSD=6.179e-09\PG=C01 [X(C4H6)]\\@

 Normal termination of Gaussian 09 at Wed Aug 26 21:08:12 2020.
