 Gaussian 09, Revision D.01,
 Gaussian 09:  ES64L-G09RevD.01 24-Apr-2013

 --------------------
 #p B2PLYPD3/Def2QZVP
 --------------------

 ---------
 butadiene
 ---------
 Symbolic Z-matrix:
 Charge =  0 Multiplicity = 1

                         Standard orientation:
 ---------------------------------------------------------------------
 Center     Atomic      Atomic             Coordinates (Angstroms)
 Number     Number       Type             X           Y           Z
 ---------------------------------------------------------------------
      1          6           0        1.826881   -0.115011    0.014841
      2          6           0        0.600134    0.409682   -0.034099
      3          6           0       -0.581450   -0.391306   -0.023301
      4          6           0       -1.832872    0.085373    0.018072
      5          1           0        2.705095    0.472664    0.026012
      6          1           0        1.951188   -1.172280    0.116683
      7          1           0        0.467471    1.507253   -0.101922
      8          1           0       -0.482878   -1.459967   -0.018982
      9          1           0       -1.961452    1.186327    0.205026
     10          1           0       -2.755582   -0.466427   -0.079895
 ---------------------------------------------------------------------

 SCF Done:  E(RB2PLYPD3) =  -155.695809369     A.U. after   11 cycles
 E2(B2PLYPD3) =    -0.2260907671D+00 E(B2PLYPD3) =    -0.15592190013633D+03

 The electronic state is 1-A.
 Alpha  occ. eigenvalues --  -10.62678 -10.62275 -10.61893 -10.61182  -0.93403
 Alpha  occ. eigenvalues --   -0.84833  -0.70428  -0.64036  -0.55168  -0.53846
 Alpha  occ. eigenvalues --   -0.46968  -0.44911  -0.41434  -0.38253  -0.27399
 Alpha virt. eigenvalues --    0.01423   0.07071   0.07385   0.08029   0.09606
 Alpha virt. eigenvalues --    0.11623   0.12639   0.14618   0.15802   0.16487
 Alpha virt. eigenvalues --    0.18769   0.20173   0.21857   0.22641   0.23571

 Mulliken charges:
               1
     1  C   -0.173722
     2  C   -0.026696
     3  C   -0.026795
     4  C   -0.175935
     5  H    0.087879
     6  H    0.065215
     7  H    0.053820
     8  H    0.054876
     9  H    0.050953
    10  H    0.090405
 Sum of Mulliken charges =   0.00000

 Dipole moment (field-independent basis, Debye):
    X=              0.0461    Y=             -0.0432    Z=              0.0904  Tot=              0.1103
 Quadrupole moment (field-independent basis, Debye-Ang):
   XX=            -23.2549   YY=            -23.3598   ZZ=            -29.1789
   XY=              0.0610   XZ=              0.1558   YZ=              0.0549

 1\1\GINC-NODE28\SP\RB2PLYPD3-FC\def2QZVP\C4H6\BOITTIER\26-Aug-2020\0\\
 #p B2PLYPD3/Def2QZVP\\butadiene\\0,1\C,0,-3.826017,0.22992,0.036301\C,
 0,-2.715609,-0.510756,0.004691\C,0,-1.407844,0.061468,-0.007452\C,0,-0
 .26403,-0.633805,0.049782\H,0,-4.796536,-0.187281,0.064282\H,0,-3.7551
 9,1.294712,0.1059\H,0,-2.785413,-1.615658,-0.029673\H,0,-1.310067,1.12
 9839,-0.035647\H,0,-0.337342,-1.73364,0.270175\H,0,0.743322,-0.262575,
 -0.063817\\Version=ES64L-G09RevD.01\State=1-A\HF=-155.6958094\MP2=-155
 .9219001\RMSD=7.352e-09\PG=C01 [X(C4H6)]\\@

 Normal termination of Gaussian 09 at Wed Aug 26 10:28:37 2020.
