 Gaussian 09, Revision D.01,
 Gaussian 09:  ES64L-G09RevD.01 24-Apr-2013

 --------------------
 #p B2PLYPD3/Def2QZVP
 --------------------

 ---------
 butadiene
 ---------
 Symbolic Z-matrix:
 Charge =  0 Multiplicity = 1

                         Standard orientation:
 ---------------------------------------------------------------------
 Center     Atomic      Atomic             Coordinates (Angstroms)
 Number     Number       Type             X           Y           Z
 ---------------------------------------------------------------------
      1          6           0        1.800005    0.072355    0.053627
      2          6           0        0.565192   -0.362444   -0.053135
      3          6           0       -0.589808    0.436290   -0.121030
      4          6           0       -1.814741   -0.134749    0.026262
      5          1           0        2.681136   -0.557203    0.135693
      6          1           0        2.159277    1.082631    0.094247
      7          1           0        0.433595   -1.475307   -0.135781
      8          1           0       -0.345936    1.507223    0.039667
      9          1           0       -1.957929   -1.120858    0.186289
     10          1           0       -2.734028    0.494807    0.245544
 ---------------------------------------------------------------------

 SCF Done:  E(RB2PLYPD3) =  -155.679690453     A.U. after   11 cycles
 E2(B2PLYPD3) =    -0.2268178502D+00 E(B2PLYPD3) =    -0.15590650830366D+03

 The electronic state is 1-A.
 Alpha  occ. eigenvalues --  -10.63038 -10.62218 -10.61996 -10.60981  -0.93890
 Alpha  occ. eigenvalues --   -0.84733  -0.71196  -0.64129  -0.55183  -0.54014
 Alpha  occ. eigenvalues --   -0.46643  -0.44955  -0.40370  -0.38851  -0.27345
 Alpha virt. eigenvalues --    0.01097   0.06990   0.07324   0.07932   0.09404
 Alpha virt. eigenvalues --    0.11603   0.12695   0.15004   0.15376   0.16591
 Alpha virt. eigenvalues --    0.18732   0.19744   0.21866   0.23319   0.23572

 Mulliken charges:
               1
     1  C   -0.175649
     2  C   -0.008444
     3  C   -0.035237
     4  C   -0.162371
     5  H    0.072465
     6  H    0.053750
     7  H    0.047954
     8  H    0.063748
     9  H    0.074192
    10  H    0.069592
 Sum of Mulliken charges =   0.00000

 Dipole moment (field-independent basis, Debye):
    X=              0.0583    Y=             -0.0170    Z=              0.3870  Tot=              0.3917
 Quadrupole moment (field-independent basis, Debye-Ang):
   XX=            -23.4625   YY=            -23.4734   ZZ=            -29.0531
   XY=              0.7322   XZ=             -0.6405   YZ=              0.1541

 1\1\GINC-NODE38\SP\RB2PLYPD3-FC\def2QZVP\C4H6\BOITTIER\26-Aug-2020\0\\
 #p B2PLYPD3/Def2QZVP\\butadiene\\0,1\C,0,-3.810254,0.199791,-0.036746\
 C,0,-2.680974,-0.460336,0.08229\C,0,-1.393444,0.103242,0.117745\C,0,-0
 .302519,-0.697545,-0.012109\H,0,-4.79667,-0.251047,-0.093307\H,0,-3.96
 9149,1.258233,-0.113147\H,0,-2.764798,-1.574118,0.205075\H,0,-1.428618
 ,1.194747,-0.081192\H,0,-0.352996,-1.697797,-0.136489\H,0,0.718389,-0.
 264663,-0.256803\\Version=ES64L-G09RevD.01\State=1-A\HF=-155.6796905\M
 P2=-155.9065083\RMSD=7.833e-09\PG=C01 [X(C4H6)]\\@

 Normal termination of Gaussian 09 at Wed Aug 26 12:23:05 2020.
