 Gaussian 09, Revision D.01,
 Gaussian 09:  ES64L-G09RevD.01 24-Apr-2013

 --------------------
 #p B2PLYPD3/Def2QZVP
 --------------------

 ---------
 butadiene
 ---------
 Symbolic Z-matrix:
 Charge =  0 Multiplicity = 1

                         Standard orientation:
 ---------------------------------------------------------------------
 Center     Atomic      Atomic             Coordinates (Angstroms)
 Number     Number       Type             X           Y           Z
 ---------------------------------------------------------------------
      1          6           0        1.841829    0.116019    0.015795
      2          6           0        0.615701   -0.407743   -0.034196
      3          6           0       -0.598842    0.377980   -0.024953
      4          6           0       -1.844653   -0.100644    0.011486
      5          1           0        2.738350   -0.483363    0.042430
      6          1           0        1.970662    1.188947    0.058641
      7          1           0        0.489806   -1.463135    0.007342
      8          1           0       -0.523703    1.466589   -0.025974
      9          1           0       -2.060115   -1.169094    0.053008
     10          1           0       -2.699208    0.546385    0.055762
 ---------------------------------------------------------------------

 SCF Done:  E(RB2PLYPD3) =  -155.700519540     A.U. after   11 cycles
 E2(B2PLYPD3) =    -0.2255364376D+00 E(B2PLYPD3) =    -0.15592605597791D+03

 The electronic state is 1-A.
 Alpha  occ. eigenvalues --  -10.62482 -10.62350 -10.61568 -10.61429  -0.93081
 Alpha  occ. eigenvalues --   -0.85029  -0.70362  -0.64188  -0.54813  -0.54080
 Alpha  occ. eigenvalues --   -0.46887  -0.45364  -0.41192  -0.38202  -0.27698
 Alpha virt. eigenvalues --    0.01637   0.06999   0.07515   0.08039   0.09747
 Alpha virt. eigenvalues --    0.11629   0.12485   0.14692   0.15852   0.16319
 Alpha virt. eigenvalues --    0.18873   0.20466   0.21697   0.22517   0.23919

 Mulliken charges:
               1
     1  C   -0.169774
     2  C   -0.037453
     3  C   -0.024101
     4  C   -0.176333
     5  H    0.086595
     6  H    0.065234
     7  H    0.060173
     8  H    0.050141
     9  H    0.060622
    10  H    0.084896
 Sum of Mulliken charges =   0.00000

 Dipole moment (field-independent basis, Debye):
    X=              0.0288    Y=             -0.0085    Z=              0.1361  Tot=              0.1394
 Quadrupole moment (field-independent basis, Debye-Ang):
   XX=            -23.2809   YY=            -23.1918   ZZ=            -29.2243
   XY=              0.0279   XZ=             -0.0078   YZ=             -0.0222

 1\1\GINC-NODE05\SP\RB2PLYPD3-FC\def2QZVP\C4H6\BOITTIER\26-Aug-2020\0\\
 #p B2PLYPD3/Def2QZVP\\butadiene\\0,1\C,0,-3.841839,0.228182,-0.000824\
 C,0,-2.728566,-0.504196,0.065972\C,0,-1.393439,0.05179,0.036351\C,0,-0
 .253053,-0.642141,0.015501\H,0,-4.830945,-0.202244,-0.011852\H,0,-3.77
 7471,1.305244,-0.074328\H,0,-2.792994,-1.565868,0.054624\H,0,-1.273289
 ,1.135939,0.006336\H,0,-0.231678,-1.732627,0.004682\H,0,0.703005,-0.15
 937,-0.045774\\Version=ES64L-G09RevD.01\State=1-A\HF=-155.7005195\MP2=
 -155.926056\RMSD=4.515e-09\PG=C01 [X(C4H6)]\\@

 Normal termination of Gaussian 09 at Wed Aug 26 13:38:29 2020.
