 Gaussian 09, Revision D.01,
 Gaussian 09:  ES64L-G09RevD.01 24-Apr-2013

 --------------------
 #p B2PLYPD3/Def2QZVP
 --------------------

 ---------
 butadiene
 ---------
 Symbolic Z-matrix:
 Charge =  0 Multiplicity = 1

                         Standard orientation:
 ---------------------------------------------------------------------
 Center     Atomic      Atomic             Coordinates (Angstroms)
 Number     Number       Type             X           Y           Z
 ---------------------------------------------------------------------
      1          6           0        1.819418   -0.120330   -0.025388
      2          6           0        0.590276    0.413153    0.028168
      3          6           0       -0.587225   -0.386543    0.015110
      4          6           0       -1.823788    0.101233   -0.044457
      5          1           0        2.752278    0.490557   -0.061064
      6          1           0        1.930622   -1.200259   -0.040512
      7          1           0        0.504225    1.539251    0.157119
      8          1           0       -0.450582   -1.483855    0.107858
      9          1           0       -2.031583    1.144565   -0.076623
     10          1           0       -2.697048   -0.535337    0.072624
 ---------------------------------------------------------------------

 SCF Done:  E(RB2PLYPD3) =  -155.695347644     A.U. after   11 cycles
 E2(B2PLYPD3) =    -0.2264599362D+00 E(B2PLYPD3) =    -0.15592180757985D+03

 The electronic state is 1-A.
 Alpha  occ. eigenvalues --  -10.62929 -10.62556 -10.62007 -10.61216  -0.93387
 Alpha  occ. eigenvalues --   -0.84736  -0.70103  -0.63506  -0.54396  -0.53988
 Alpha  occ. eigenvalues --   -0.46275  -0.45080  -0.41341  -0.38237  -0.27493
 Alpha virt. eigenvalues --    0.01548   0.07055   0.07144   0.07856   0.09662
 Alpha virt. eigenvalues --    0.11637   0.12480   0.14691   0.15726   0.16273
 Alpha virt. eigenvalues --    0.18669   0.20078   0.21860   0.22550   0.23731

 Mulliken charges:
               1
     1  C   -0.174384
     2  C   -0.027332
     3  C   -0.024395
     4  C   -0.174046
     5  H    0.084922
     6  H    0.063449
     7  H    0.052839
     8  H    0.052071
     9  H    0.065857
    10  H    0.081019
 Sum of Mulliken charges =   0.00000

 Dipole moment (field-independent basis, Debye):
    X=              0.0232    Y=              0.0112    Z=              0.1689  Tot=              0.1708
 Quadrupole moment (field-independent basis, Debye-Ang):
   XX=            -23.5396   YY=            -23.1883   ZZ=            -29.2806
   XY=             -0.1433   XZ=             -0.3119   YZ=             -0.0690

 1\1\GINC-NODE32\SP\RB2PLYPD3-FC\def2QZVP\C4H6\BOITTIER\26-Aug-2020\0\\
 #p B2PLYPD3/Def2QZVP\\butadiene\\0,1\C,0,-3.819505,0.233137,-0.007807\
 C,0,-2.707444,-0.512561,0.06646\C,0,-1.404444,0.059605,0.034675\C,0,-0
 .276944,-0.64587,-0.005448\H,0,-4.847741,-0.199245,-0.029293\H,0,-3.73
 3008,1.314394,-0.055177\H,0,-2.8269,-1.631259,0.228864\H,0,-1.339669,1
 .165765,0.094513\H,0,-0.261876,-1.710073,-0.006029\H,0,0.697446,-0.175
 017,0.096408\\Version=ES64L-G09RevD.01\State=1-A\HF=-155.6953476\MP2=-
 155.9218076\RMSD=3.716e-09\PG=C01 [X(C4H6)]\\@

 Normal termination of Gaussian 09 at Wed Aug 26 09:27:29 2020.
