 Gaussian 09, Revision D.01,
 Gaussian 09:  ES64L-G09RevD.01 24-Apr-2013

 --------------------
 #p B2PLYPD3/Def2QZVP
 --------------------

 ---------
 butadiene
 ---------
 Symbolic Z-matrix:
 Charge =  0 Multiplicity = 1

                         Standard orientation:
 ---------------------------------------------------------------------
 Center     Atomic      Atomic             Coordinates (Angstroms)
 Number     Number       Type             X           Y           Z
 ---------------------------------------------------------------------
      1          6           0       -1.837775    0.114829    0.028561
      2          6           0       -0.606225   -0.420315   -0.019690
      3          6           0        0.596415    0.383573   -0.049524
      4          6           0        1.838082   -0.104056    0.042086
      5          1           0       -2.751173   -0.451413   -0.050992
      6          1           0       -1.826636    1.227150    0.132915
      7          1           0       -0.482297   -1.483273   -0.098329
      8          1           0        0.429053    1.478980   -0.038984
      9          1           0        1.982833   -1.145408    0.136218
     10          1           0        2.705244    0.529778   -0.089422
 ---------------------------------------------------------------------

 SCF Done:  E(RB2PLYPD3) =  -155.695578481     A.U. after   11 cycles
 E2(B2PLYPD3) =    -0.2263588514D+00 E(B2PLYPD3) =    -0.15592193733264D+03

 The electronic state is 1-A.
 Alpha  occ. eigenvalues --  -10.62713 -10.62404 -10.62006 -10.61266  -0.93123
 Alpha  occ. eigenvalues --   -0.84825  -0.70063  -0.64046  -0.54886  -0.53661
 Alpha  occ. eigenvalues --   -0.46773  -0.45292  -0.41431  -0.37979  -0.27542
 Alpha virt. eigenvalues --    0.01477   0.07034   0.07391   0.08047   0.09513
 Alpha virt. eigenvalues --    0.11701   0.12574   0.14572   0.15596   0.16216
 Alpha virt. eigenvalues --    0.18775   0.19946   0.21611   0.22692   0.24015

 Mulliken charges:
               1
     1  C   -0.177132
     2  C   -0.029525
     3  C   -0.024301
     4  C   -0.178449
     5  H    0.095797
     6  H    0.057195
     7  H    0.053776
     8  H    0.047595
     9  H    0.066686
    10  H    0.088358
 Sum of Mulliken charges =   0.00000

 Dipole moment (field-independent basis, Debye):
    X=             -0.0067    Y=             -0.0793    Z=             -0.0595  Tot=              0.0994
 Quadrupole moment (field-independent basis, Debye-Ang):
   XX=            -23.5303   YY=            -23.2672   ZZ=            -29.2633
   XY=              0.1363   XZ=             -0.0041   YZ=              0.0568

 1\1\GINC-NODE17\SP\RB2PLYPD3-FC\def2QZVP\C4H6\BOITTIER\26-Aug-2020\0\\
 #p B2PLYPD3/Def2QZVP\\butadiene\\0,1\C,0,-3.838199,0.228626,0.047096\C
 ,0,-2.721896,-0.518413,0.012127\C,0,-1.395271,0.057366,-0.032752\C,0,-
 0.260236,-0.641788,0.071121\H,0,-4.838087,-0.167242,-0.021942\H,0,-3.6
 28701,1.323086,0.127955\H,0,-2.789634,-1.587852,-0.043848\H,0,-1.36463
 5,1.165036,-0.045615\H,0,-0.303254,-1.690045,0.187455\H,0,0.705746,-0.
 175629,-0.072355\\Version=ES64L-G09RevD.01\State=1-A\HF=-155.6955785\M
 P2=-155.9219373\RMSD=5.104e-09\PG=C01 [X(C4H6)]\\@

 Normal termination of Gaussian 09 at Wed Aug 26 11:20:58 2020.
