 Gaussian 09, Revision D.01,
 Gaussian 09:  ES64L-G09RevD.01 24-Apr-2013

 --------------------
 #p B2PLYPD3/Def2QZVP
 --------------------

 ---------
 butadiene
 ---------
 Symbolic Z-matrix:
 Charge =  0 Multiplicity = 1

                         Standard orientation:
 ---------------------------------------------------------------------
 Center     Atomic      Atomic             Coordinates (Angstroms)
 Number     Number       Type             X           Y           Z
 ---------------------------------------------------------------------
      1          6           0       -1.817017    0.095654    0.040557
      2          6           0       -0.584116   -0.387511   -0.058381
      3          6           0        0.603763    0.422151   -0.012705
      4          6           0        1.816591   -0.118273    0.028274
      5          1           0       -2.650581   -0.568766    0.111930
      6          1           0       -2.072122    1.190186   -0.051944
      7          1           0       -0.501608   -1.469221   -0.030877
      8          1           0        0.449236    1.482396   -0.073569
      9          1           0        1.945996   -1.195907   -0.032067
     10          1           0        2.713756    0.489187    0.090062
 ---------------------------------------------------------------------

 SCF Done:  E(RB2PLYPD3) =  -155.697298175     A.U. after   11 cycles
 E2(B2PLYPD3) =    -0.2256657026D+00 E(B2PLYPD3) =    -0.15592296387748D+03

 The electronic state is 1-A.
 Alpha  occ. eigenvalues --  -10.62238 -10.62123 -10.61523 -10.61477  -0.93428
 Alpha  occ. eigenvalues --   -0.84975  -0.69997  -0.64055  -0.54698  -0.53906
 Alpha  occ. eigenvalues --   -0.46662  -0.45112  -0.41370  -0.38284  -0.27623
 Alpha virt. eigenvalues --    0.01891   0.07055   0.07318   0.08061   0.09532
 Alpha virt. eigenvalues --    0.11690   0.12356   0.14793   0.15716   0.16335
 Alpha virt. eigenvalues --    0.18695   0.20070   0.21761   0.22712   0.24251

 Mulliken charges:
               1
     1  C   -0.174243
     2  C   -0.027333
     3  C   -0.032132
     4  C   -0.172930
     5  H    0.079990
     6  H    0.060156
     7  H    0.053817
     8  H    0.061767
     9  H    0.067226
    10  H    0.083681
 Sum of Mulliken charges =   0.00000

 Dipole moment (field-independent basis, Debye):
    X=              0.0130    Y=             -0.0140    Z=             -0.0456  Tot=              0.0494
 Quadrupole moment (field-independent basis, Debye-Ang):
   XX=            -23.6686   YY=            -23.0379   ZZ=            -29.1868
   XY=             -0.1165   XZ=             -0.0593   YZ=             -0.1259

 1\1\GINC-NODE36\SP\RB2PLYPD3-FC\def2QZVP\C4H6\BOITTIER\26-Aug-2020\0\\
 #p B2PLYPD3/Def2QZVP\\butadiene\\0,1\C,0,-3.822826,0.213942,0.058417\C
 ,0,-2.700364,-0.491338,-0.018662\C,0,-1.383631,0.087185,-0.003807\C,0,
 -0.290622,-0.665009,0.061205\H,0,-4.763914,-0.282401,0.155241\H,0,-3.8
 72873,1.3321,-0.078887\H,0,-2.817984,-1.567771,0.052876\H,0,-1.340938,
 1.154442,-0.107932\H,0,-0.361902,-1.749599,0.044887\H,0,0.703274,-0.23
 095,0.099857\\Version=ES64L-G09RevD.01\State=1-A\HF=-155.6972982\MP2=-
 155.9229639\RMSD=5.433e-09\PG=C01 [X(C4H6)]\\@

 Normal termination of Gaussian 09 at Wed Aug 26 09:38:14 2020.
