 Gaussian 09, Revision D.01,
 Gaussian 09:  ES64L-G09RevD.01 24-Apr-2013

 --------------------
 #p B2PLYPD3/Def2QZVP
 --------------------

 ---------
 butadiene
 ---------
 Symbolic Z-matrix:
 Charge =  0 Multiplicity = 1

                         Standard orientation:
 ---------------------------------------------------------------------
 Center     Atomic      Atomic             Coordinates (Angstroms)
 Number     Number       Type             X           Y           Z
 ---------------------------------------------------------------------
      1          6           0       -1.842805   -0.124551   -0.026677
      2          6           0       -0.615087    0.419579    0.022355
      3          6           0        0.592862   -0.383500    0.011450
      4          6           0        1.854668    0.085060   -0.021554
      5          1           0       -2.688720    0.509122   -0.039600
      6          1           0       -1.972479   -1.188118   -0.004225
      7          1           0       -0.421630    1.497286    0.114933
      8          1           0        0.436022   -1.426481    0.075476
      9          1           0        1.997929    1.173383   -0.070337
     10          1           0        2.711046   -0.544717    0.010306
 ---------------------------------------------------------------------

 SCF Done:  E(RB2PLYPD3) =  -155.697956530     A.U. after   11 cycles
 E2(B2PLYPD3) =    -0.2259830360D+00 E(B2PLYPD3) =    -0.15592393956618D+03

 The electronic state is 1-A.
 Alpha  occ. eigenvalues --  -10.62831 -10.62151 -10.61593 -10.61473  -0.92959
 Alpha  occ. eigenvalues --   -0.84773  -0.70598  -0.64225  -0.54854  -0.53858
 Alpha  occ. eigenvalues --   -0.47104  -0.45828  -0.41352  -0.37827  -0.27503
 Alpha virt. eigenvalues --    0.01458   0.07061   0.07408   0.08184   0.09547
 Alpha virt. eigenvalues --    0.11708   0.12467   0.14726   0.15784   0.16074
 Alpha virt. eigenvalues --    0.18766   0.20540   0.21516   0.22918   0.23901

 Mulliken charges:
               1
     1  C   -0.179767
     2  C   -0.034427
     3  C   -0.021431
     4  C   -0.184851
     5  H    0.090093
     6  H    0.072845
     7  H    0.053257
     8  H    0.052761
     9  H    0.059088
    10  H    0.092432
 Sum of Mulliken charges =   0.00000

 Dipole moment (field-independent basis, Debye):
    X=             -0.0539    Y=             -0.0350    Z=              0.1015  Tot=              0.1201
 Quadrupole moment (field-independent basis, Debye-Ang):
   XX=            -23.4945   YY=            -23.1373   ZZ=            -29.2768
   XY=              0.1296   XZ=              0.0185   YZ=             -0.0660

 1\1\GINC-NODE23\SP\RB2PLYPD3-FC\def2QZVP\C4H6\BOITTIER\26-Aug-2020\0\\
 #p B2PLYPD3/Def2QZVP\\butadiene\\0,1\C,0,-3.839642,0.244468,0.041739\C
 ,0,-2.732337,-0.516291,0.011832\C,0,-1.397851,0.052232,0.000685\C,0,-0
 .242918,-0.638012,0.05054\H,0,-4.787134,-0.223087,0.072271\H,0,-3.7726
 84,1.312629,-0.01342\H,0,-2.739587,-1.613508,-0.047423\H,0,-1.361515,1
 .103871,-0.095456\H,0,-0.300952,-1.732186,0.132801\H,0,0.714079,-0.176
 775,0.00122\\Version=ES64L-G09RevD.01\State=1-A\HF=-155.6979565\MP2=-1
 55.9239396\RMSD=6.449e-09\PG=C01 [X(C4H6)]\\@

 Normal termination of Gaussian 09 at Wed Aug 26 10:12:17 2020.
