 Gaussian 09, Revision D.01,
 Gaussian 09:  ES64L-G09RevD.01 24-Apr-2013

 --------------------
 #p B2PLYPD3/Def2QZVP
 --------------------

 ---------
 butadiene
 ---------
 Symbolic Z-matrix:
 Charge =  0 Multiplicity = 1

                         Standard orientation:
 ---------------------------------------------------------------------
 Center     Atomic      Atomic             Coordinates (Angstroms)
 Number     Number       Type             X           Y           Z
 ---------------------------------------------------------------------
      1          6           0        1.840950   -0.158476   -0.043854
      2          6           0        0.618870    0.433031    0.014118
      3          6           0       -0.621371   -0.333414    0.096280
      4          6           0       -1.871888    0.072619   -0.035715
      5          1           0        2.711408    0.522166    0.010338
      6          1           0        2.051036   -1.177427   -0.035467
      7          1           0        0.494297    1.522585    0.069264
      8          1           0       -0.417795   -1.445070   -0.057688
      9          1           0       -2.027793    1.116463   -0.122398
     10          1           0       -2.610519   -0.621277   -0.049024
 ---------------------------------------------------------------------

 SCF Done:  E(RB2PLYPD3) =  -155.685341981     A.U. after   11 cycles
 E2(B2PLYPD3) =    -0.2262669468D+00 E(B2PLYPD3) =    -0.15591160892737D+03

 The electronic state is 1-A.
 Alpha  occ. eigenvalues --  -10.63292 -10.62528 -10.61976 -10.60438  -0.92773
 Alpha  occ. eigenvalues --   -0.85286  -0.70902  -0.63449  -0.55550  -0.53616
 Alpha  occ. eigenvalues --   -0.48270  -0.44959  -0.40389  -0.37789  -0.27752
 Alpha virt. eigenvalues --    0.01319   0.07039   0.07393   0.08068   0.09480
 Alpha virt. eigenvalues --    0.11691   0.12323   0.14995   0.15158   0.16354
 Alpha virt. eigenvalues --    0.18851   0.19630   0.21888   0.23061   0.23990

 Mulliken charges:
               1
     1  C   -0.174887
     2  C   -0.043658
     3  C   -0.008363
     4  C   -0.184492
     5  H    0.078010
     6  H    0.080393
     7  H    0.053251
     8  H    0.035174
     9  H    0.065472
    10  H    0.099099
 Sum of Mulliken charges =   0.00000

 Dipole moment (field-independent basis, Debye):
    X=              0.0403    Y=              0.0114    Z=             -0.0998  Tot=              0.1083
 Quadrupole moment (field-independent basis, Debye-Ang):
   XX=            -23.5649   YY=            -23.1442   ZZ=            -29.2357
   XY=             -0.2963   XZ=              0.4950   YZ=              0.1641

 1\1\GINC-NODE03\SP\RB2PLYPD3-FC\def2QZVP\C4H6\BOITTIER\26-Aug-2020\0\\
 #p B2PLYPD3/Def2QZVP\\butadiene\\0,1\C,0,-3.838546,0.269607,-0.027782\
 C,0,-2.741472,-0.52764,0.0591\C,0,-1.383281,0.007244,0.099131\C,0,-0.2
 27118,-0.622592,-0.013433\H,0,-4.816102,-0.240294,0.063285\H,0,-3.8628
 1,1.308786,-0.072335\H,0,-2.813275,-1.617606,0.170924\H,0,-1.386325,1.
 128034,-0.11241\H,0,-0.261466,-1.680519,-0.045683\H,0,0.623565,-0.0739
 48,-0.064158\\Version=ES64L-G09RevD.01\State=1-A\HF=-155.685342\MP2=-1
 55.9116089\RMSD=8.226e-09\PG=C01 [X(C4H6)]\\@

 Normal termination of Gaussian 09 at Wed Aug 26 12:11:28 2020.
