 Gaussian 09, Revision D.01,
 Gaussian 09:  ES64L-G09RevD.01 24-Apr-2013

 --------------------
 #p B2PLYPD3/Def2QZVP
 --------------------

 ---------
 butadiene
 ---------
 Symbolic Z-matrix:
 Charge =  0 Multiplicity = 1

                         Standard orientation:
 ---------------------------------------------------------------------
 Center     Atomic      Atomic             Coordinates (Angstroms)
 Number     Number       Type             X           Y           Z
 ---------------------------------------------------------------------
      1          6           0       -1.818371   -0.113983    0.018131
      2          6           0       -0.597064    0.426651   -0.014703
      3          6           0        0.593412   -0.387702   -0.021855
      4          6           0        1.838577    0.102701   -0.008740
      5          1           0       -2.794112    0.453242    0.030220
      6          1           0       -1.921250   -1.236456    0.015657
      7          1           0       -0.463401    1.507824    0.000933
      8          1           0        0.398402   -1.433836   -0.059575
      9          1           0        2.011069    1.149262    0.017057
     10          1           0        2.669967   -0.606036    0.158710
 ---------------------------------------------------------------------

 SCF Done:  E(RB2PLYPD3) =  -155.694871016     A.U. after   11 cycles
 E2(B2PLYPD3) =    -0.2264441558D+00 E(B2PLYPD3) =    -0.15592131517165D+03

 The electronic state is 1-A.
 Alpha  occ. eigenvalues --  -10.62628 -10.62502 -10.62236 -10.61503  -0.93294
 Alpha  occ. eigenvalues --   -0.84594  -0.69714  -0.64340  -0.54097  -0.53752
 Alpha  occ. eigenvalues --   -0.46533  -0.45303  -0.41113  -0.38259  -0.27557
 Alpha virt. eigenvalues --    0.01618   0.06934   0.07316   0.08009   0.09466
 Alpha virt. eigenvalues --    0.11729   0.12420   0.14569   0.15650   0.16177
 Alpha virt. eigenvalues --    0.18619   0.20054   0.21732   0.22864   0.23918

 Mulliken charges:
               1
     1  C   -0.167421
     2  C   -0.030902
     3  C   -0.023979
     4  C   -0.180950
     5  H    0.083145
     6  H    0.054264
     7  H    0.054258
     8  H    0.058358
     9  H    0.070603
    10  H    0.082622
 Sum of Mulliken charges =   0.00000

 Dipole moment (field-independent basis, Debye):
    X=             -0.0805    Y=              0.0176    Z=              0.1266  Tot=              0.1511
 Quadrupole moment (field-independent basis, Debye-Ang):
   XX=            -23.7908   YY=            -23.1179   ZZ=            -29.3210
   XY=              0.1795   XZ=              0.3769   YZ=             -0.0319

 1\1\GINC-NODE03\SP\RB2PLYPD3-FC\def2QZVP\C4H6\BOITTIER\26-Aug-2020\0\\
 #p B2PLYPD3/Def2QZVP\\butadiene\\0,1\C,0,-3.820377,0.231927,0.002021\C
 ,0,-2.718295,-0.521763,0.050183\C,0,-1.398985,0.060907,0.030891\C,0,-0
 .264574,-0.649172,0.031549\H,0,-4.88343,-0.147332,0.008515\H,0,-3.7162
 99,1.353834,-0.030035\H,0,-2.784646,-1.609115,0.067774\H,0,-1.399203,1
 .125716,0.036522\H,0,-0.286492,-1.709921,0.037874\H,0,0.681227,-0.1098
 59,-0.158607\\Version=ES64L-G09RevD.01\State=1-A\HF=-155.694871\MP2=-1
 55.9213152\RMSD=6.204e-09\PG=C01 [X(C4H6)]\\@

 Normal termination of Gaussian 09 at Wed Aug 26 08:40:56 2020.
