 Gaussian 09, Revision D.01,
 Gaussian 09:  ES64L-G09RevD.01 24-Apr-2013

 --------------------
 #p B2PLYPD3/Def2QZVP
 --------------------

 ---------
 butadiene
 ---------
 Symbolic Z-matrix:
 Charge =  0 Multiplicity = 1

                         Standard orientation:
 ---------------------------------------------------------------------
 Center     Atomic      Atomic             Coordinates (Angstroms)
 Number     Number       Type             X           Y           Z
 ---------------------------------------------------------------------
      1          6           0        1.838847    0.105031   -0.002769
      2          6           0        0.595368   -0.386098    0.003196
      3          6           0       -0.610581    0.403222    0.007686
      4          6           0       -1.835113   -0.122325   -0.010457
      5          1           0        2.701501   -0.532215    0.006326
      6          1           0        2.025749    1.160315   -0.018827
      7          1           0        0.517416   -1.470196    0.025731
      8          1           0       -0.485503    1.500351   -0.014356
      9          1           0       -1.979927   -1.169456   -0.035488
     10          1           0       -2.710360    0.512225    0.050675
 ---------------------------------------------------------------------

 SCF Done:  E(RB2PLYPD3) =  -155.700474087     A.U. after   11 cycles
 E2(B2PLYPD3) =    -0.2255515735D+00 E(B2PLYPD3) =    -0.15592602566017D+03

 The electronic state is 1-A.
 Alpha  occ. eigenvalues --  -10.62649 -10.62379 -10.61262 -10.61222  -0.93138
 Alpha  occ. eigenvalues --   -0.85064  -0.70393  -0.64033  -0.54568  -0.54431
 Alpha  occ. eigenvalues --   -0.46539  -0.45665  -0.41315  -0.38246  -0.27613
 Alpha virt. eigenvalues --    0.01660   0.07020   0.07455   0.08005   0.09742
 Alpha virt. eigenvalues --    0.11692   0.12477   0.14795   0.15835   0.16253
 Alpha virt. eigenvalues --    0.18773   0.20434   0.21811   0.22648   0.23961

 Mulliken charges:
               1
     1  C   -0.178160
     2  C   -0.025261
     3  C   -0.030378
     4  C   -0.175233
     5  H    0.085300
     6  H    0.063199
     7  H    0.051289
     8  H    0.053129
     9  H    0.070260
    10  H    0.085855
 Sum of Mulliken charges =   0.00000

 Dipole moment (field-independent basis, Debye):
    X=             -0.0114    Y=             -0.0135    Z=              0.0188  Tot=              0.0258
 Quadrupole moment (field-independent basis, Debye-Ang):
   XX=            -23.4248   YY=            -23.0934   ZZ=            -29.2219
   XY=              0.0745   XZ=             -0.0784   YZ=             -0.0021

 1\1\GINC-NODE33\SP\RB2PLYPD3-FC\def2QZVP\C4H6\BOITTIER\26-Aug-2020\0\\
 #p B2PLYPD3/Def2QZVP\\butadiene\\0,1\C,0,-3.84413,0.216655,0.022167\C,
 0,-2.708215,-0.488394,0.031403\C,0,-1.380851,0.072697,0.006058\C,0,-0.
 269623,-0.662153,0.04034\H,0,-4.806636,-0.256481,0.030038\H,0,-3.83975
 9,1.288385,0.008329\H,0,-2.824952,-1.569209,0.039456\H,0,-1.308162,1.1
 74722,-0.002906\H,0,-0.313792,-1.71721,0.094974\H,0,0.704517,-0.195872
 ,-0.03764\\Version=ES64L-G09RevD.01\State=1-A\HF=-155.7004741\MP2=-155
 .9260257\RMSD=3.391e-09\PG=C01 [X(C4H6)]\\@

 Normal termination of Gaussian 09 at Wed Aug 26 22:05:43 2020.
