 Gaussian 09, Revision D.01,
 Gaussian 09:  ES64L-G09RevD.01 24-Apr-2013

 --------------------
 #p B2PLYPD3/Def2QZVP
 --------------------

 ---------
 butadiene
 ---------
 Symbolic Z-matrix:
 Charge =  0 Multiplicity = 1

                         Standard orientation:
 ---------------------------------------------------------------------
 Center     Atomic      Atomic             Coordinates (Angstroms)
 Number     Number       Type             X           Y           Z
 ---------------------------------------------------------------------
      1          6           0        1.845706   -0.100700    0.009109
      2          6           0        0.607916    0.387742   -0.011356
      3          6           0       -0.606969   -0.409192   -0.004122
      4          6           0       -1.842964    0.107456    0.002073
      5          1           0        2.706894    0.544275   -0.015450
      6          1           0        2.043281   -1.171042    0.029148
      7          1           0        0.474800    1.469770   -0.039068
      8          1           0       -0.470568   -1.466379    0.009511
      9          1           0       -2.014016    1.197242    0.091863
     10          1           0       -2.762527   -0.485706   -0.050227
 ---------------------------------------------------------------------

 SCF Done:  E(RB2PLYPD3) =  -155.699998441     A.U. after   11 cycles
 E2(B2PLYPD3) =    -0.2257971743D+00 E(B2PLYPD3) =    -0.15592579561487D+03

 The electronic state is 1-A.
 Alpha  occ. eigenvalues --  -10.62553 -10.62493 -10.62082 -10.61477  -0.92962
 Alpha  occ. eigenvalues --   -0.84836  -0.70164  -0.64127  -0.54751  -0.53660
 Alpha  occ. eigenvalues --   -0.47045  -0.45200  -0.41001  -0.38099  -0.27713
 Alpha virt. eigenvalues --    0.01636   0.06976   0.07420   0.08072   0.09633
 Alpha virt. eigenvalues --    0.11605   0.12443   0.14621   0.15879   0.16211
 Alpha virt. eigenvalues --    0.18880   0.20547   0.21641   0.22631   0.23613

 Mulliken charges:
               1
     1  C   -0.175904
     2  C   -0.025346
     3  C   -0.037619
     4  C   -0.169234
     5  H    0.086353
     6  H    0.063626
     7  H    0.053106
     8  H    0.059708
     9  H    0.061138
    10  H    0.084173
 Sum of Mulliken charges =   0.00000

 Dipole moment (field-independent basis, Debye):
    X=             -0.0084    Y=             -0.0128    Z=              0.0146  Tot=              0.0212
 Quadrupole moment (field-independent basis, Debye-Ang):
   XX=            -23.2549   YY=            -23.2356   ZZ=            -29.2852
   XY=             -0.1810   XZ=             -0.0374   YZ=              0.0425

 1\1\GINC-NODE36\SP\RB2PLYPD3-FC\def2QZVP\C4H6\BOITTIER\26-Aug-2020\0\\
 #p B2PLYPD3/Def2QZVP\\butadiene\\0,1\C,0,-3.849049,0.216612,0.026825\C
 ,0,-2.720089,-0.488061,0.024577\C,0,-1.381088,0.075808,0.009503\C,0,-0
 .258904,-0.655431,0.034786\H,0,-4.812765,-0.262401,0.020609\H,0,-3.849
 712,1.305129,0.012711\H,0,-2.784962,-1.576647,0.031242\H,0,-1.323988,1
 .140128,-0.010459\H,0,-0.287464,-1.754819,0.159226\H,0,0.752589,-0.240
 32,-0.034054\\Version=ES64L-G09RevD.01\State=1-A\HF=-155.6999984\MP2=-
 155.9257956\RMSD=3.760e-09\PG=C01 [X(C4H6)]\\@

 Normal termination of Gaussian 09 at Wed Aug 26 18:51:54 2020.
