 Gaussian 09, Revision D.01,
 Gaussian 09:  ES64L-G09RevD.01 24-Apr-2013

 --------------------
 #p B2PLYPD3/Def2QZVP
 --------------------

 ---------
 butadiene
 ---------
 Symbolic Z-matrix:
 Charge =  0 Multiplicity = 1

                         Standard orientation:
 ---------------------------------------------------------------------
 Center     Atomic      Atomic             Coordinates (Angstroms)
 Number     Number       Type             X           Y           Z
 ---------------------------------------------------------------------
      1          6           0       -1.830651   -0.117727   -0.012823
      2          6           0       -0.610451    0.410612    0.007324
      3          6           0        0.606632   -0.390825    0.024441
      4          6           0        1.843234    0.102077   -0.027300
      5          1           0       -2.729318    0.479610   -0.044581
      6          1           0       -1.947589   -1.201515   -0.002411
      7          1           0       -0.501961    1.512295    0.060502
      8          1           0        0.420894   -1.449876    0.036875
      9          1           0        1.975180    1.178777    0.015819
     10          1           0        2.730204   -0.544112   -0.016053
 ---------------------------------------------------------------------

 SCF Done:  E(RB2PLYPD3) =  -155.699986606     A.U. after   11 cycles
 E2(B2PLYPD3) =    -0.2257778729D+00 E(B2PLYPD3) =    -0.15592576447851D+03

 The electronic state is 1-A.
 Alpha  occ. eigenvalues --  -10.62679 -10.62414 -10.61690 -10.61532  -0.93046
 Alpha  occ. eigenvalues --   -0.84973  -0.69917  -0.63921  -0.54552  -0.53763
 Alpha  occ. eigenvalues --   -0.46877  -0.45383  -0.40997  -0.38123  -0.27825
 Alpha virt. eigenvalues --    0.01845   0.07019   0.07336   0.08046   0.09597
 Alpha virt. eigenvalues --    0.11691   0.12471   0.14572   0.15773   0.16151
 Alpha virt. eigenvalues --    0.18751   0.20335   0.21549   0.23013   0.23803

 Mulliken charges:
               1
     1  C   -0.176172
     2  C   -0.023698
     3  C   -0.030908
     4  C   -0.174555
     5  H    0.088383
     6  H    0.060917
     7  H    0.048612
     8  H    0.053461
     9  H    0.066228
    10  H    0.087731
 Sum of Mulliken charges =   0.00000

 Dipole moment (field-independent basis, Debye):
    X=             -0.0471    Y=             -0.0091    Z=              0.0690  Tot=              0.0840
 Quadrupole moment (field-independent basis, Debye-Ang):
   XX=            -23.4651   YY=            -23.1848   ZZ=            -29.2834
   XY=              0.0339   XZ=              0.1031   YZ=              0.0468

 1\1\GINC-NODE02\SP\RB2PLYPD3-FC\def2QZVP\C4H6\BOITTIER\26-Aug-2020\0\\
 #p B2PLYPD3/Def2QZVP\\butadiene\\0,1\C,0,-3.833171,0.228391,0.031929\C
 ,0,-2.726995,-0.509695,0.025665\C,0,-1.386435,0.060859,-0.009728\C,0,-
 0.257546,-0.643577,0.055033\H,0,-4.82394,-0.197919,0.077311\H,0,-3.754
 748,1.315074,-0.004794\H,0,-2.817144,-1.613995,-0.000758\H,0,-1.38013,
 1.135449,-0.047936\H,0,-0.320121,-1.72725,0.038083\H,0,0.730507,-0.166
 635,0.028964\\Version=ES64L-G09RevD.01\State=1-A\HF=-155.6999866\MP2=-
 155.9257645\RMSD=3.131e-09\PG=C01 [X(C4H6)]\\@

 Normal termination of Gaussian 09 at Wed Aug 26 21:20:17 2020.
