 Gaussian 09, Revision D.01,
 Gaussian 09:  ES64L-G09RevD.01 24-Apr-2013

 --------------------
 #p B2PLYPD3/Def2QZVP
 --------------------

 ---------
 butadiene
 ---------
 Symbolic Z-matrix:
 Charge =  0 Multiplicity = 1

                         Standard orientation:
 ---------------------------------------------------------------------
 Center     Atomic      Atomic             Coordinates (Angstroms)
 Number     Number       Type             X           Y           Z
 ---------------------------------------------------------------------
      1          6           0       -1.834505    0.106239    0.012648
      2          6           0       -0.604087   -0.404203   -0.022912
      3          6           0        0.604409    0.410924   -0.003388
      4          6           0        1.838186   -0.122250    0.015717
      5          1           0       -2.727109   -0.517049   -0.034361
      6          1           0       -1.980863    1.184461    0.077265
      7          1           0       -0.456187   -1.475273   -0.004352
      8          1           0        0.454728    1.469149   -0.054237
      9          1           0        2.008174   -1.163979    0.047381
     10          1           0        2.677238    0.558432   -0.044084
 ---------------------------------------------------------------------

 SCF Done:  E(RB2PLYPD3) =  -155.699986710     A.U. after   11 cycles
 E2(B2PLYPD3) =    -0.2257063368D+00 E(B2PLYPD3) =    -0.15592569304678D+03

 The electronic state is 1-A.
 Alpha  occ. eigenvalues --  -10.62466 -10.62352 -10.61584 -10.61348  -0.92959
 Alpha  occ. eigenvalues --   -0.84828  -0.70079  -0.64421  -0.54289  -0.54168
 Alpha  occ. eigenvalues --   -0.46684  -0.45959  -0.41234  -0.37972  -0.27593
 Alpha virt. eigenvalues --    0.01750   0.07011   0.07440   0.08110   0.09459
 Alpha virt. eigenvalues --    0.11767   0.12382   0.14804   0.15702   0.16154
 Alpha virt. eigenvalues --    0.18733   0.20392   0.21630   0.23027   0.23942

 Mulliken charges:
               1
     1  C   -0.175907
     2  C   -0.029460
     3  C   -0.033294
     4  C   -0.182205
     5  H    0.085757
     6  H    0.062681
     7  H    0.055109
     8  H    0.058913
     9  H    0.074439
    10  H    0.083966
 Sum of Mulliken charges =   0.00000

 Dipole moment (field-independent basis, Debye):
    X=             -0.0035    Y=             -0.0084    Z=             -0.0267  Tot=              0.0282
 Quadrupole moment (field-independent basis, Debye-Ang):
   XX=            -23.6987   YY=            -22.9707   ZZ=            -29.2690
   XY=             -0.2085   XZ=             -0.1217   YZ=             -0.0487

 1\1\GINC-NODE04\SP\RB2PLYPD3-FC\def2QZVP\C4H6\BOITTIER\26-Aug-2020\0\\
 #p B2PLYPD3/Def2QZVP\\butadiene\\0,1\C,0,-3.837424,0.222736,0.031681\C
 ,0,-2.719783,-0.502737,0.014071\C,0,-1.383732,0.080535,0.007855\C,0,-0
 .266622,-0.666112,0.045632\H,0,-4.828244,-0.230001,0.004401\H,0,-3.786
 075,1.311168,0.060632\H,0,-2.767901,-1.581711,0.068018\H,0,-1.339852,1
 .146154,-0.077942\H,0,-0.287645,-1.719814,0.11173\H,0,0.681368,-0.1507
 48,-0.035778\\Version=ES64L-G09RevD.01\State=1-A\HF=-155.6999867\MP2=-
 155.925693\RMSD=6.034e-09\PG=C01 [X(C4H6)]\\@

 Normal termination of Gaussian 09 at Wed Aug 26 08:40:28 2020.
