 Gaussian 09, Revision D.01,
 Gaussian 09:  ES64L-G09RevD.01 24-Apr-2013

 --------------------
 #p B2PLYPD3/Def2QZVP
 --------------------

 ---------
 butadiene
 ---------
 Symbolic Z-matrix:
 Charge =  0 Multiplicity = 1

                         Standard orientation:
 ---------------------------------------------------------------------
 Center     Atomic      Atomic             Coordinates (Angstroms)
 Number     Number       Type             X           Y           Z
 ---------------------------------------------------------------------
      1          6           0        1.834951   -0.127996    0.033044
      2          6           0        0.613704    0.480571   -0.035952
      3          6           0       -0.594393   -0.391902    0.040846
      4          6           0       -1.835672    0.068262   -0.016418
      5          1           0        2.861917    0.356508   -0.136396
      6          1           0        1.921018   -1.244629    0.086479
      7          1           0        0.408692    1.621492   -0.045920
      8          1           0       -0.456218   -1.480411   -0.097885
      9          1           0       -2.175618    1.126027    0.210481
     10          1           0       -2.671332   -0.552600   -0.145878
 ---------------------------------------------------------------------

 SCF Done:  E(RB2PLYPD3) =  -155.678416280     A.U. after   12 cycles
 E2(B2PLYPD3) =    -0.2280823132D+00 E(B2PLYPD3) =    -0.15590649859304D+03

 The electronic state is 1-A.
 Alpha  occ. eigenvalues --  -10.64597 -10.63341 -10.63032 -10.61444  -0.92197
 Alpha  occ. eigenvalues --   -0.84213  -0.69224  -0.63212  -0.54484  -0.52271
 Alpha  occ. eigenvalues --   -0.46900  -0.44013  -0.40447  -0.37503  -0.27664
 Alpha virt. eigenvalues --    0.01540   0.06896   0.07066   0.07884   0.08575
 Alpha virt. eigenvalues --    0.11272   0.12415   0.14308   0.15566   0.16393
 Alpha virt. eigenvalues --    0.18488   0.19726   0.22011   0.22507   0.23929

 Mulliken charges:
               1
     1  C   -0.153340
     2  C   -0.046887
     3  C   -0.026736
     4  C   -0.172221
     5  H    0.076750
     6  H    0.060151
     7  H    0.065011
     8  H    0.060963
     9  H    0.057718
    10  H    0.078592
 Sum of Mulliken charges =   0.00000

 Dipole moment (field-independent basis, Debye):
    X=             -0.0404    Y=             -0.0538    Z=             -0.1108  Tot=              0.1297
 Quadrupole moment (field-independent basis, Debye-Ang):
   XX=            -23.3438   YY=            -23.3049   ZZ=            -29.5157
   XY=             -0.5844   XZ=             -0.2304   YZ=              0.2540

 1\1\GINC-NODE24\SP\RB2PLYPD3-FC\def2QZVP\C4H6\BOITTIER\26-Aug-2020\0\\
 #p B2PLYPD3/Def2QZVP\\butadiene\\0,1\C,0,-3.828227,0.255208,0.039157\C
 ,0,-2.741671,-0.572264,0.003905\C,0,-1.392167,0.06297,0.047759\C,0,-0.
 258295,-0.622034,0.017671\H,0,-4.927917,-0.037069,-0.113713\H,0,-3.704
 985,1.36963,0.041974\H,0,-2.752419,-1.730678,0.04622\H,0,-1.325974,1.1
 50814,-0.140403\H,0,-0.120235,-1.713238,0.293581\H,0,0.677816,-0.17382
 3,-0.13517\\Version=ES64L-G09RevD.01\State=1-A\HF=-155.6784163\MP2=-15
 5.9064986\RMSD=2.547e-09\PG=C01 [X(C4H6)]\\@

 Normal termination of Gaussian 09 at Wed Aug 26 13:54:40 2020.
