 Gaussian 09, Revision D.01,
 Gaussian 09:  ES64L-G09RevD.01 24-Apr-2013

 --------------------
 #p B2PLYPD3/Def2QZVP
 --------------------

 ---------
 butadiene
 ---------
 Symbolic Z-matrix:
 Charge =  0 Multiplicity = 1

                         Standard orientation:
 ---------------------------------------------------------------------
 Center     Atomic      Atomic             Coordinates (Angstroms)
 Number     Number       Type             X           Y           Z
 ---------------------------------------------------------------------
      1          6           0       -1.819411    0.124309    0.012828
      2          6           0       -0.605335   -0.413082   -0.036488
      3          6           0        0.597884    0.394332   -0.023681
      4          6           0        1.817308   -0.109089    0.001513
      5          1           0       -2.718809   -0.531217    0.127479
      6          1           0       -1.955799    1.216050   -0.006724
      7          1           0       -0.481121   -1.497937   -0.051165
      8          1           0        0.526266    1.469825    0.041557
      9          1           0        2.009319   -1.157060    0.113342
     10          1           0        2.677463    0.521524    0.050487
 ---------------------------------------------------------------------

 SCF Done:  E(RB2PLYPD3) =  -155.697997423     A.U. after   11 cycles
 E2(B2PLYPD3) =    -0.2254482728D+00 E(B2PLYPD3) =    -0.15592344569527D+03

 The electronic state is 1-A.
 Alpha  occ. eigenvalues --  -10.62479 -10.62074 -10.61948 -10.60773  -0.93312
 Alpha  occ. eigenvalues --   -0.85144  -0.69683  -0.64113  -0.54328  -0.54272
 Alpha  occ. eigenvalues --   -0.46420  -0.45340  -0.41197  -0.38314  -0.27780
 Alpha virt. eigenvalues --    0.02038   0.07010   0.07370   0.07977   0.09560
 Alpha virt. eigenvalues --    0.11750   0.12411   0.14695   0.15752   0.16289
 Alpha virt. eigenvalues --    0.18677   0.20234   0.21726   0.22778   0.24091

 Mulliken charges:
               1
     1  C   -0.172292
     2  C   -0.034478
     3  C   -0.025476
     4  C   -0.173010
     5  H    0.081784
     6  H    0.069022
     7  H    0.058762
     8  H    0.054625
     9  H    0.062065
    10  H    0.078998
 Sum of Mulliken charges =   0.00000

 Dipole moment (field-independent basis, Debye):
    X=              0.0200    Y=              0.0006    Z=              0.2113  Tot=              0.2122
 Quadrupole moment (field-independent basis, Debye-Ang):
   XX=            -23.7734   YY=            -22.9918   ZZ=            -29.1725
   XY=             -0.0398   XZ=              0.0647   YZ=             -0.0836

 1\1\GINC-NODE03\SP\RB2PLYPD3-FC\def2QZVP\C4H6\BOITTIER\26-Aug-2020\0\\
 #p B2PLYPD3/Def2QZVP\\butadiene\\0,1\C,0,-3.818804,0.232423,0.034293\C
 ,0,-2.720212,-0.5142,0.005131\C,0,-1.392239,0.065635,-0.004725\C,0,-0.
 282086,-0.64617,0.039518\H,0,-4.82033,-0.248186,0.167475\H,0,-3.758341
 ,1.329805,-0.020303\H,0,-2.791536,-1.603724,0.025266\H,0,-1.27067,1.13
 8174,0.026105\H,0,-0.279716,-1.707499,0.185092\H,0,0.676907,-0.177869,
 0.070572\\Version=ES64L-G09RevD.01\State=1-A\HF=-155.6979974\MP2=-155.
 9234457\RMSD=4.531e-09\PG=C01 [X(C4H6)]\\@

 Normal termination of Gaussian 09 at Wed Aug 26 09:16:38 2020.
