 Gaussian 09, Revision D.01,
 Gaussian 09:  ES64L-G09RevD.01 24-Apr-2013

 --------------------
 #p B2PLYPD3/Def2QZVP
 --------------------

 ---------
 butadiene
 ---------
 Symbolic Z-matrix:
 Charge =  0 Multiplicity = 1

                         Standard orientation:
 ---------------------------------------------------------------------
 Center     Atomic      Atomic             Coordinates (Angstroms)
 Number     Number       Type             X           Y           Z
 ---------------------------------------------------------------------
      1          6           0        1.854610    0.106509    0.051230
      2          6           0        0.646599   -0.394178   -0.110327
      3          6           0       -0.627337    0.423333   -0.048667
      4          6           0       -1.878029   -0.136969    0.000346
      5          1           0        2.673116   -0.572434    0.154599
      6          1           0        2.013525    1.184834    0.022985
      7          1           0        0.530061   -1.468501    0.110613
      8          1           0       -0.400200    1.545810    0.034509
      9          1           0       -1.979629   -1.179590    0.095142
     10          1           0       -2.811931    0.497714    0.226659
 ---------------------------------------------------------------------

 SCF Done:  E(RB2PLYPD3) =  -155.681841506     A.U. after   11 cycles
 E2(B2PLYPD3) =    -0.2275083606D+00 E(B2PLYPD3) =    -0.15590934986699D+03

 The electronic state is 1-A.
 Alpha  occ. eigenvalues --  -10.64518 -10.62825 -10.62627 -10.61490  -0.92071
 Alpha  occ. eigenvalues --   -0.84734  -0.69382  -0.63294  -0.54425  -0.52799
 Alpha  occ. eigenvalues --   -0.46761  -0.45490  -0.40212  -0.37272  -0.28072
 Alpha virt. eigenvalues --    0.01568   0.06957   0.07146   0.07915   0.08710
 Alpha virt. eigenvalues --    0.11629   0.12323   0.14423   0.15299   0.16117
 Alpha virt. eigenvalues --    0.18816   0.19394   0.21770   0.23277   0.23815

 Mulliken charges:
               1
     1  C   -0.171944
     2  C   -0.021682
     3  C   -0.049743
     4  C   -0.167924
     5  H    0.088033
     6  H    0.067376
     7  H    0.052348
     8  H    0.050478
     9  H    0.073379
    10  H    0.079678
 Sum of Mulliken charges =   0.00000

 Dipole moment (field-independent basis, Debye):
    X=              0.1714    Y=             -0.0285    Z=              0.4797  Tot=              0.5102
 Quadrupole moment (field-independent basis, Debye-Ang):
   XX=            -23.7392   YY=            -23.2372   ZZ=            -29.4324
   XY=              0.2537   XZ=             -0.3033   YZ=             -0.2013

 1\1\GINC-NODE22\SP\RB2PLYPD3-FC\def2QZVP\C4H6\BOITTIER\26-Aug-2020\0\\
 #p B2PLYPD3/Def2QZVP\\butadiene\\0,1\C,0,-3.860987,0.210469,-0.037255\
 C,0,-2.757117,-0.489667,0.128153\C,0,-1.361283,0.094538,0.05472\C,0,-0
 .226458,-0.674072,0.010203\H,0,-4.784907,-0.317868,-0.131239\H,0,-3.83
 1011,1.30028,-0.021447\H,0,-2.828852,-1.57039,-0.080312\H,0,-1.391282,
 1.238368,-0.04129\H,0,-0.30696,-1.719563,-0.072476\H,0,0.802251,-0.213
 005,-0.225145\\Version=ES64L-G09RevD.01\State=1-A\HF=-155.6818415\MP2=
 -155.9093499\RMSD=8.033e-09\PG=C01 [X(C4H6)]\\@

 Normal termination of Gaussian 09 at Wed Aug 26 14:30:02 2020.
