 Gaussian 09, Revision D.01,
 Gaussian 09:  ES64L-G09RevD.01 24-Apr-2013

 --------------------
 #p B2PLYPD3/Def2QZVP
 --------------------

 ---------
 butadiene
 ---------
 Symbolic Z-matrix:
 Charge =  0 Multiplicity = 1

                         Standard orientation:
 ---------------------------------------------------------------------
 Center     Atomic      Atomic             Coordinates (Angstroms)
 Number     Number       Type             X           Y           Z
 ---------------------------------------------------------------------
      1          6           0        1.840697    0.083788   -0.030861
      2          6           0        0.604950   -0.357446    0.037096
      3          6           0       -0.616195    0.386010    0.021978
      4          6           0       -1.862423   -0.123664   -0.082475
      5          1           0        2.776466   -0.559442   -0.086137
      6          1           0        2.116243    1.140154   -0.109470
      7          1           0        0.463541   -1.467992    0.289587
      8          1           0       -0.394219    1.488845    0.166004
      9          1           0       -2.124445   -1.132645   -0.114501
     10          1           0       -2.639752    0.598955    0.180093
 ---------------------------------------------------------------------

 SCF Done:  E(RB2PLYPD3) =  -155.681623376     A.U. after   12 cycles
 E2(B2PLYPD3) =    -0.2270172261D+00 E(B2PLYPD3) =    -0.15590864060181D+03

 The electronic state is 1-A.
 Alpha  occ. eigenvalues --  -10.63393 -10.62725 -10.62228 -10.61721  -0.93166
 Alpha  occ. eigenvalues --   -0.85002  -0.70877  -0.62946  -0.54478  -0.53934
 Alpha  occ. eigenvalues --   -0.47015  -0.45276  -0.40158  -0.37276  -0.27957
 Alpha virt. eigenvalues --    0.01051   0.06910   0.07168   0.07715   0.09912
 Alpha virt. eigenvalues --    0.11363   0.12421   0.14861   0.15469   0.16068
 Alpha virt. eigenvalues --    0.19028   0.19203   0.21972   0.22369   0.23210

 Mulliken charges:
               1
     1  C   -0.168226
     2  C   -0.016668
     3  C   -0.037171
     4  C   -0.171556
     5  H    0.081489
     6  H    0.056209
     7  H    0.048567
     8  H    0.049898
     9  H    0.077643
    10  H    0.079816
 Sum of Mulliken charges =   0.00000

 Dipole moment (field-independent basis, Debye):
    X=              0.1122    Y=             -0.0058    Z=              0.2957  Tot=              0.3163
 Quadrupole moment (field-independent basis, Debye-Ang):
   XX=            -23.3432   YY=            -23.6195   ZZ=            -29.1710
   XY=              0.7043   XZ=             -0.6971   YZ=              0.1220

 1\1\GINC-NODE25\SP\RB2PLYPD3-FC\def2QZVP\C4H6\BOITTIER\26-Aug-2020\0\\
 #p B2PLYPD3/Def2QZVP\\butadiene\\0,1\C,0,-3.849118,0.210031,0.051653\C
 ,0,-2.716719,-0.453861,-0.005756\C,0,-1.379273,0.051301,-0.01988\C,0,-
 0.247541,-0.676173,0.097285\H,0,-4.886931,-0.247124,0.131768\H,0,-3.92
 4243,1.3011,0.095696\H,0,-2.785094,-1.578996,-0.221295\H,0,-1.39532,1.
 170911,-0.200092\H,0,-0.175899,-1.714618,0.162269\H,0,0.647211,-0.1184
 77,-0.192118\\Version=ES64L-G09RevD.01\State=1-A\HF=-155.6816234\MP2=-
 155.9086406\RMSD=2.700e-09\PG=C01 [X(C4H6)]\\@

 Normal termination of Gaussian 09 at Wed Aug 26 13:28:26 2020.
