 Gaussian 09, Revision D.01,
 Gaussian 09:  ES64L-G09RevD.01 24-Apr-2013

 --------------------
 #p B2PLYPD3/Def2QZVP
 --------------------

 ---------
 butadiene
 ---------
 Symbolic Z-matrix:
 Charge =  0 Multiplicity = 1

                         Standard orientation:
 ---------------------------------------------------------------------
 Center     Atomic      Atomic             Coordinates (Angstroms)
 Number     Number       Type             X           Y           Z
 ---------------------------------------------------------------------
      1          6           0       -1.855406   -0.101408    0.010252
      2          6           0       -0.643236    0.395209   -0.034396
      3          6           0        0.623552   -0.428462   -0.041180
      4          6           0        1.861309    0.130965    0.022401
      5          1           0       -2.732893    0.505422    0.178946
      6          1           0       -1.953675   -1.174216    0.092706
      7          1           0       -0.447557    1.472314   -0.076108
      8          1           0        0.512501   -1.433801   -0.165556
      9          1           0        2.061289    1.214811   -0.008220
     10          1           0        2.643023   -0.562353    0.235776
 ---------------------------------------------------------------------

 SCF Done:  E(RB2PLYPD3) =  -155.688871970     A.U. after   11 cycles
 E2(B2PLYPD3) =    -0.2258030165D+00 E(B2PLYPD3) =    -0.15591467498699D+03

 The electronic state is 1-A.
 Alpha  occ. eigenvalues --  -10.62656 -10.62591 -10.62007 -10.61068  -0.92388
 Alpha  occ. eigenvalues --   -0.85161  -0.69718  -0.64549  -0.54241  -0.53910
 Alpha  occ. eigenvalues --   -0.47340  -0.46087  -0.40890  -0.37033  -0.27954
 Alpha virt. eigenvalues --    0.01875   0.06990   0.07485   0.08225   0.09073
 Alpha virt. eigenvalues --    0.11715   0.12414   0.14528   0.15472   0.15959
 Alpha virt. eigenvalues --    0.18857   0.20257   0.21525   0.23139   0.23772

 Mulliken charges:
               1
     1  C   -0.167134
     2  C   -0.028569
     3  C   -0.058348
     4  C   -0.179282
     5  H    0.086190
     6  H    0.059730
     7  H    0.054421
     8  H    0.074128
     9  H    0.074969
    10  H    0.083895
 Sum of Mulliken charges =   0.00000

 Dipole moment (field-independent basis, Debye):
    X=              0.0267    Y=             -0.0217    Z=              0.1884  Tot=              0.1915
 Quadrupole moment (field-independent basis, Debye-Ang):
   XX=            -23.8746   YY=            -22.9859   ZZ=            -29.1785
   XY=              0.1871   XZ=             -0.1116   YZ=             -0.0701

 1\1\GINC-NODE36\SP\RB2PLYPD3-FC\def2QZVP\C4H6\BOITTIER\26-Aug-2020\0\\
 #p B2PLYPD3/Def2QZVP\\butadiene\\0,1\C,0,-3.859612,0.210013,0.001444\C
 ,0,-2.753476,-0.490238,0.065409\C,0,-1.361629,0.097762,0.049638\C,0,-0
 .24164,-0.672234,0.007504\H,0,-4.830552,-0.238213,-0.150387\H,0,-3.768
 024,1.280212,-0.115422\H,0,-2.750037,-1.583083,0.141973\H,0,-1.293916,
 1.110414,0.141608\H,0,-0.235182,-1.772821,0.07321\H,0,0.649173,-0.1342
 53,-0.225572\\Version=ES64L-G09RevD.01\State=1-A\HF=-155.688872\MP2=-1
 55.914675\RMSD=7.069e-09\PG=C01 [X(C4H6)]\\@

 Normal termination of Gaussian 09 at Wed Aug 26 15:28:27 2020.
