 Gaussian 09, Revision D.01,
 Gaussian 09:  ES64L-G09RevD.01 24-Apr-2013

 --------------------
 #p B2PLYPD3/Def2QZVP
 --------------------

 ---------
 butadiene
 ---------
 Symbolic Z-matrix:
 Charge =  0 Multiplicity = 1

                         Standard orientation:
 ---------------------------------------------------------------------
 Center     Atomic      Atomic             Coordinates (Angstroms)
 Number     Number       Type             X           Y           Z
 ---------------------------------------------------------------------
      1          6           0       -1.826119    0.119705   -0.019776
      2          6           0       -0.600107   -0.417839    0.014622
      3          6           0        0.595954    0.378673    0.008806
      4          6           0        1.827477   -0.089327   -0.009544
      5          1           0       -2.707988   -0.504338   -0.044912
      6          1           0       -1.989395    1.210196    0.066441
      7          1           0       -0.480829   -1.482314    0.045321
      8          1           0        0.461700    1.467989   -0.009232
      9          1           0        2.013386   -1.162493   -0.008942
     10          1           0        2.719904    0.523685   -0.013331
 ---------------------------------------------------------------------

 SCF Done:  E(RB2PLYPD3) =  -155.699839429     A.U. after   11 cycles
 E2(B2PLYPD3) =    -0.2255746384D+00 E(B2PLYPD3) =    -0.15592541406768D+03

 The electronic state is 1-A.
 Alpha  occ. eigenvalues --  -10.62401 -10.62172 -10.61846 -10.61234  -0.93370
 Alpha  occ. eigenvalues --   -0.84987  -0.70159  -0.64045  -0.54885  -0.53806
 Alpha  occ. eigenvalues --   -0.46888  -0.45118  -0.41061  -0.38422  -0.27703
 Alpha virt. eigenvalues --    0.01775   0.07019   0.07367   0.08047   0.09737
 Alpha virt. eigenvalues --    0.11667   0.12472   0.14682   0.15843   0.16277
 Alpha virt. eigenvalues --    0.18766   0.20458   0.21724   0.22720   0.23737

 Mulliken charges:
               1
     1  C   -0.172398
     2  C   -0.038289
     3  C   -0.017096
     4  C   -0.173503
     5  H    0.083776
     6  H    0.066666
     7  H    0.058759
     8  H    0.049501
     9  H    0.056999
    10  H    0.085586
 Sum of Mulliken charges =   0.00000

 Dipole moment (field-independent basis, Debye):
    X=             -0.0131    Y=             -0.0258    Z=              0.0531  Tot=              0.0604
 Quadrupole moment (field-independent basis, Debye-Ang):
   XX=            -23.3983   YY=            -23.1837   ZZ=            -29.2084
   XY=             -0.1078   XZ=             -0.0848   YZ=              0.0495

 1\1\GINC-NODE23\SP\RB2PLYPD3-FC\def2QZVP\C4H6\BOITTIER\26-Aug-2020\0\\
 #p B2PLYPD3/Def2QZVP\\butadiene\\0,1\C,0,-3.825171,0.235774,0.000556\C
 ,0,-2.717578,-0.515171,0.051163\C,0,-1.396381,0.049401,0.024276\C,0,-0
 .270908,-0.635657,0.020218\H,0,-4.806128,-0.21744,-0.008006\H,0,-3.786
 54,1.339714,0.056117\H,0,-2.794243,-1.582286,0.111702\H,0,-1.329859,1.
 144012,-0.024317\H,0,-0.283768,-1.724296,0.05098\H,0,0.7183,-0.196009,
 0.000186\\Version=ES64L-G09RevD.01\State=1-A\HF=-155.6998394\MP2=-155.
 9254141\RMSD=5.796e-09\PG=C01 [X(C4H6)]\\@

 Normal termination of Gaussian 09 at Wed Aug 26 16:36:53 2020.
