 Gaussian 09, Revision D.01,
 Gaussian 09:  ES64L-G09RevD.01 24-Apr-2013

 --------------------
 #p B2PLYPD3/Def2QZVP
 --------------------

 ---------
 butadiene
 ---------
 Symbolic Z-matrix:
 Charge =  0 Multiplicity = 1

                         Standard orientation:
 ---------------------------------------------------------------------
 Center     Atomic      Atomic             Coordinates (Angstroms)
 Number     Number       Type             X           Y           Z
 ---------------------------------------------------------------------
      1          6           0        1.860088   -0.120137    0.062512
      2          6           0        0.633523    0.407496   -0.056235
      3          6           0       -0.628243   -0.340194   -0.086164
      4          6           0       -1.885941    0.095279    0.023968
      5          1           0        2.815609    0.381179    0.157865
      6          1           0        1.831217   -1.231804   -0.033963
      7          1           0        0.583117    1.509852   -0.057950
      8          1           0       -0.439731   -1.436492   -0.099493
      9          1           0       -2.082894    1.214259    0.047643
     10          1           0       -2.583878   -0.691661    0.321415
 ---------------------------------------------------------------------

 SCF Done:  E(RB2PLYPD3) =  -155.684440534     A.U. after   11 cycles
 E2(B2PLYPD3) =    -0.2273990980D+00 E(B2PLYPD3) =    -0.15591183963174D+03

 The electronic state is 1-A.
 Alpha  occ. eigenvalues --  -10.63184 -10.63062 -10.62440 -10.62262  -0.92684
 Alpha  occ. eigenvalues --   -0.85125  -0.69812  -0.62967  -0.54462  -0.53484
 Alpha  occ. eigenvalues --   -0.47072  -0.44596  -0.40515  -0.37624  -0.27926
 Alpha virt. eigenvalues --    0.01296   0.06885   0.07292   0.07872   0.09645
 Alpha virt. eigenvalues --    0.11533   0.12302   0.14206   0.15741   0.16199
 Alpha virt. eigenvalues --    0.18883   0.19633   0.21029   0.22256   0.24290

 Mulliken charges:
               1
     1  C   -0.167204
     2  C   -0.029454
     3  C   -0.019449
     4  C   -0.175340
     5  H    0.098477
     6  H    0.048084
     7  H    0.041167
     8  H    0.039372
     9  H    0.072499
    10  H    0.091849
 Sum of Mulliken charges =   0.00000

 Dipole moment (field-independent basis, Debye):
    X=              0.1641    Y=              0.0364    Z=              0.2295  Tot=              0.2845
 Quadrupole moment (field-independent basis, Debye-Ang):
   XX=            -23.7510   YY=            -23.4341   ZZ=            -29.3225
   XY=              0.2970   XZ=             -0.5804   YZ=             -0.0698

 1\1\GINC-NODE17\SP\RB2PLYPD3-FC\def2QZVP\C4H6\BOITTIER\26-Aug-2020\0\\
 #p B2PLYPD3/Def2QZVP\\butadiene\\0,1\C,0,-3.865775,0.228428,0.080302\C
 ,0,-2.747821,-0.504064,-0.022612\C,0,-1.376207,0.015055,-0.056969\C,0,
 -0.212459,-0.628159,0.06767\H,0,-4.893553,-0.099545,0.177957\H,0,-3.64
 5906,1.316812,-0.033819\H,0,-2.887685,-1.598553,-0.00634\H,0,-1.373387
 ,1.127058,-0.089013\H,0,-0.210897,-1.763779,0.110473\H,0,0.609442,0.03
 2026,0.356632\\Version=ES64L-G09RevD.01\State=1-A\HF=-155.6844405\MP2=
 -155.9118396\RMSD=4.242e-09\PG=C01 [X(C4H6)]\\@

 Normal termination of Gaussian 09 at Wed Aug 26 14:28:30 2020.
