 Gaussian 09, Revision D.01,
 Gaussian 09:  ES64L-G09RevD.01 24-Apr-2013

 --------------------
 #p B2PLYPD3/Def2QZVP
 --------------------

 ---------
 butadiene
 ---------
 Symbolic Z-matrix:
 Charge =  0 Multiplicity = 1

                         Standard orientation:
 ---------------------------------------------------------------------
 Center     Atomic      Atomic             Coordinates (Angstroms)
 Number     Number       Type             X           Y           Z
 ---------------------------------------------------------------------
      1          6           0       -1.840015    0.113385   -0.006768
      2          6           0       -0.604813   -0.422800   -0.014901
      3          6           0        0.596138    0.395655   -0.008654
      4          6           0        1.837016   -0.101549    0.011637
      5          1           0       -2.730985   -0.493249    0.126118
      6          1           0       -1.941942    1.212676   -0.007010
      7          1           0       -0.432094   -1.470620   -0.036305
      8          1           0        0.452485    1.457620   -0.004433
      9          1           0        2.020372   -1.166256    0.000233
     10          1           0        2.702207    0.551679    0.033511
 ---------------------------------------------------------------------

 SCF Done:  E(RB2PLYPD3) =  -155.699460403     A.U. after   11 cycles
 E2(B2PLYPD3) =    -0.2260103738D+00 E(B2PLYPD3) =    -0.15592547077710D+03

 The electronic state is 1-A.
 Alpha  occ. eigenvalues --  -10.62494 -10.62304 -10.62001 -10.61489  -0.93014
 Alpha  occ. eigenvalues --   -0.84645  -0.70059  -0.64525  -0.54520  -0.53722
 Alpha  occ. eigenvalues --   -0.46690  -0.45708  -0.41417  -0.38002  -0.27514
 Alpha virt. eigenvalues --    0.01605   0.06997   0.07406   0.08152   0.09431
 Alpha virt. eigenvalues --    0.11732   0.12468   0.14649   0.15799   0.16110
 Alpha virt. eigenvalues --    0.18716   0.20369   0.21611   0.23031   0.23921

 Mulliken charges:
               1
     1  C   -0.173281
     2  C   -0.037344
     3  C   -0.024197
     4  C   -0.180734
     5  H    0.087331
     6  H    0.063139
     7  H    0.060338
     8  H    0.055038
     9  H    0.064981
    10  H    0.084730
 Sum of Mulliken charges =   0.00000

 Dipole moment (field-independent basis, Debye):
    X=              0.0144    Y=             -0.0189    Z=              0.0894  Tot=              0.0925
 Quadrupole moment (field-independent basis, Debye-Ang):
   XX=            -23.6381   YY=            -23.0648   ZZ=            -29.3005
   XY=             -0.1472   XZ=             -0.2782   YZ=             -0.0292

 1\1\GINC-NODE29\SP\RB2PLYPD3-FC\def2QZVP\C4H6\BOITTIER\26-Aug-2020\0\\
 #p B2PLYPD3/Def2QZVP\\butadiene\\0,1\C,0,-3.838874,0.233305,0.017311\C
 ,0,-2.722244,-0.519274,0.024251\C,0,-1.392147,0.066153,0.006718\C,0,-0
 .262672,-0.64835,0.040951\H,0,-4.824798,-0.196587,0.167766\H,0,-3.7385
 98,1.332289,-0.014438\H,0,-2.743648,-1.581199,0.032868\H,0,-1.33968,1.
 136193,-0.019488\H,0,-0.276642,-1.728531,0.060046\H,0,0.707253,-0.1636
 04,0.043861\\Version=ES64L-G09RevD.01\State=1-A\HF=-155.6994604\MP2=-1
 55.9254708\RMSD=4.847e-09\PG=C01 [X(C4H6)]\\@

 Normal termination of Gaussian 09 at Wed Aug 26 13:51:06 2020.
