 Gaussian 09, Revision D.01,
 Gaussian 09:  ES64L-G09RevD.01 24-Apr-2013

 --------------------
 #p B2PLYPD3/Def2QZVP
 --------------------

 ---------
 butadiene
 ---------
 Symbolic Z-matrix:
 Charge =  0 Multiplicity = 1

                         Standard orientation:
 ---------------------------------------------------------------------
 Center     Atomic      Atomic             Coordinates (Angstroms)
 Number     Number       Type             X           Y           Z
 ---------------------------------------------------------------------
      1          6           0        1.832042    0.108460    0.027316
      2          6           0        0.589902   -0.411594   -0.025384
      3          6           0       -0.581464    0.385496   -0.009999
      4          6           0       -1.820326   -0.095534    0.008136
      5          1           0        2.718224   -0.532219    0.040371
      6          1           0        1.935075    1.198049    0.063419
      7          1           0        0.382555   -1.475202   -0.185218
      8          1           0       -0.450998    1.500124   -0.099394
      9          1           0       -2.055998   -1.154608    0.193953
     10          1           0       -2.649791    0.542882   -0.013546
 ---------------------------------------------------------------------

 SCF Done:  E(RB2PLYPD3) =  -155.694635587     A.U. after   11 cycles
 E2(B2PLYPD3) =    -0.2264478621D+00 E(B2PLYPD3) =    -0.15592108344946D+03

 The electronic state is 1-A.
 Alpha  occ. eigenvalues --  -10.62527 -10.62436 -10.62079 -10.61148  -0.93510
 Alpha  occ. eigenvalues --   -0.84715  -0.70606  -0.63468  -0.54895  -0.53567
 Alpha  occ. eigenvalues --   -0.46623  -0.45451  -0.41225  -0.38263  -0.27405
 Alpha virt. eigenvalues --    0.01382   0.07099   0.07235   0.07992   0.09571
 Alpha virt. eigenvalues --    0.11721   0.12384   0.14850   0.15508   0.16143
 Alpha virt. eigenvalues --    0.18624   0.20245   0.21623   0.22574   0.23930

 Mulliken charges:
               1
     1  C   -0.180068
     2  C   -0.031638
     3  C   -0.015543
     4  C   -0.181468
     5  H    0.090429
     6  H    0.068671
     7  H    0.058060
     8  H    0.044141
     9  H    0.062909
    10  H    0.084506
 Sum of Mulliken charges =   0.00000

 Dipole moment (field-independent basis, Debye):
    X=             -0.0227    Y=             -0.0016    Z=             -0.0101  Tot=              0.0249
 Quadrupole moment (field-independent basis, Debye-Ang):
   XX=            -23.5954   YY=            -23.2299   ZZ=            -29.2138
   XY=              0.1774   XZ=             -0.1440   YZ=             -0.0870

 1\1\GINC-NODE27\SP\RB2PLYPD3-FC\def2QZVP\C4H6\BOITTIER\26-Aug-2020\0\\
 #p B2PLYPD3/Def2QZVP\\butadiene\\0,1\C,0,-3.828681,0.235705,-0.005267\
 C,0,-2.706011,-0.506813,0.06125\C,0,-1.405932,0.055542,0.026058\C,0,-0
 .279465,-0.649824,0.020766\H,0,-4.819413,-0.227328,-0.002368\H,0,-3.72
 5529,1.324003,-0.069213\H,0,-2.701289,-1.586074,0.248271\H,0,-1.32448,
 1.176733,0.086918\H,0,-0.247573,-1.738645,-0.137855\H,0,0.655172,-0.17
 8148,0.026523\\Version=ES64L-G09RevD.01\State=1-A\HF=-155.6946356\MP2=
 -155.9210834\RMSD=7.537e-09\PG=C01 [X(C4H6)]\\@

 Normal termination of Gaussian 09 at Wed Aug 26 11:20:58 2020.
