 Gaussian 09, Revision D.01,
 Gaussian 09:  ES64L-G09RevD.01 24-Apr-2013

 --------------------
 #p B2PLYPD3/Def2QZVP
 --------------------

 ---------
 butadiene
 ---------
 Symbolic Z-matrix:
 Charge =  0 Multiplicity = 1

                         Standard orientation:
 ---------------------------------------------------------------------
 Center     Atomic      Atomic             Coordinates (Angstroms)
 Number     Number       Type             X           Y           Z
 ---------------------------------------------------------------------
      1          6           0       -1.842924   -0.120117    0.028186
      2          6           0       -0.613377    0.404198   -0.029466
      3          6           0        0.617263   -0.395695   -0.023340
      4          6           0        1.853960    0.106658    0.012526
      5          1           0       -2.713728    0.521356    0.042482
      6          1           0       -2.001609   -1.199308   -0.006236
      7          1           0       -0.537522    1.495000   -0.011201
      8          1           0        0.468099   -1.452846   -0.051727
      9          1           0        1.987883    1.202970   -0.003648
     10          1           0        2.707344   -0.537432    0.102897
 ---------------------------------------------------------------------

 SCF Done:  E(RB2PLYPD3) =  -155.699823800     A.U. after   11 cycles
 E2(B2PLYPD3) =    -0.2258304643D+00 E(B2PLYPD3) =    -0.15592565426392D+03

 The electronic state is 1-A.
 Alpha  occ. eigenvalues --  -10.62726 -10.62486 -10.61683 -10.61638  -0.92737
 Alpha  occ. eigenvalues --   -0.84961  -0.69877  -0.63977  -0.54489  -0.53889
 Alpha  occ. eigenvalues --   -0.46605  -0.45568  -0.41193  -0.37898  -0.27772
 Alpha virt. eigenvalues --    0.01776   0.06999   0.07416   0.08041   0.09534
 Alpha virt. eigenvalues --    0.11679   0.12346   0.14576   0.15791   0.16197
 Alpha virt. eigenvalues --    0.18806   0.20210   0.21514   0.22895   0.23984

 Mulliken charges:
               1
     1  C   -0.175616
     2  C   -0.029833
     3  C   -0.034946
     4  C   -0.175596
     5  H    0.085440
     6  H    0.064590
     7  H    0.052054
     8  H    0.057047
     9  H    0.066307
    10  H    0.090554
 Sum of Mulliken charges =   0.00000

 Dipole moment (field-independent basis, Debye):
    X=             -0.0251    Y=             -0.0196    Z=              0.0295  Tot=              0.0434
 Quadrupole moment (field-independent basis, Debye-Ang):
   XX=            -23.5693   YY=            -23.0461   ZZ=            -29.3210
   XY=             -0.0454   XZ=              0.1765   YZ=              0.0128

 1\1\GINC-NODE32\SP\RB2PLYPD3-FC\def2QZVP\C4H6\BOITTIER\26-Aug-2020\0\\
 #p B2PLYPD3/Def2QZVP\\butadiene\\0,1\C,0,-3.846994,0.226647,-0.008623\
 C,0,-2.728762,-0.504323,0.063881\C,0,-1.376521,0.065779,0.036164\C,0,-
 0.247805,-0.647381,0.014584\H,0,-4.817218,-0.251523,-0.005556\H,0,-3.8
 12973,1.317445,-0.003992\H,0,-2.846289,-1.591514,0.075691\H,0,-1.33703
 8,1.133049,0.035373\H,0,-0.308988,-1.749289,0.060991\H,0,0.705261,-0.1
 66411,-0.09319\\Version=ES64L-G09RevD.01\State=1-A\HF=-155.6998238\MP2
 =-155.9256543\RMSD=3.160e-09\PG=C01 [X(C4H6)]\\@

 Normal termination of Gaussian 09 at Wed Aug 26 12:22:26 2020.
