 Gaussian 09, Revision D.01,
 Gaussian 09:  ES64L-G09RevD.01 24-Apr-2013

 --------------------
 #p B2PLYPD3/Def2QZVP
 --------------------

 ---------
 butadiene
 ---------
 Symbolic Z-matrix:
 Charge =  0 Multiplicity = 1

                         Standard orientation:
 ---------------------------------------------------------------------
 Center     Atomic      Atomic             Coordinates (Angstroms)
 Number     Number       Type             X           Y           Z
 ---------------------------------------------------------------------
      1          6           0        1.838945   -0.093838   -0.037473
      2          6           0        0.601440    0.367116    0.037152
      3          6           0       -0.620797   -0.433814   -0.008503
      4          6           0       -1.860022    0.118261   -0.014864
      5          1           0        2.668031    0.603210   -0.065068
      6          1           0        2.229193   -1.093092    0.128877
      7          1           0        0.505206    1.501977   -0.042291
      8          1           0       -0.440370   -1.492579    0.089006
      9          1           0       -2.020407    1.189481    0.168023
     10          1           0       -2.699046   -0.455345   -0.136416
 ---------------------------------------------------------------------

 SCF Done:  E(RB2PLYPD3) =  -155.687256664     A.U. after   11 cycles
 E2(B2PLYPD3) =    -0.2264101344D+00 E(B2PLYPD3) =    -0.15591366679806D+03

 The electronic state is 1-A.
 Alpha  occ. eigenvalues --  -10.63108 -10.63012 -10.61617 -10.61323  -0.92645
 Alpha  occ. eigenvalues --   -0.84945  -0.70836  -0.63539  -0.55362  -0.53195
 Alpha  occ. eigenvalues --   -0.46894  -0.45734  -0.40592  -0.37609  -0.27603
 Alpha virt. eigenvalues --    0.01317   0.06946   0.07364   0.08058   0.09252
 Alpha virt. eigenvalues --    0.11403   0.12443   0.15019   0.15508   0.16506
 Alpha virt. eigenvalues --    0.18819   0.19466   0.22480   0.22774   0.23971

 Mulliken charges:
               1
     1  C   -0.165360
     2  C   -0.024052
     3  C   -0.047323
     4  C   -0.172570
     5  H    0.068990
     6  H    0.063063
     7  H    0.048896
     8  H    0.066686
     9  H    0.071169
    10  H    0.090500
 Sum of Mulliken charges =   0.00000

 Dipole moment (field-independent basis, Debye):
    X=             -0.0153    Y=             -0.0507    Z=              0.1733  Tot=              0.1812
 Quadrupole moment (field-independent basis, Debye-Ang):
   XX=            -23.1299   YY=            -23.3184   ZZ=            -29.2225
   XY=             -0.4486   XZ=              0.1281   YZ=             -0.0770

 1\1\GINC-NODE05\SP\RB2PLYPD3-FC\def2QZVP\C4H6\BOITTIER\26-Aug-2020\0\\
 #p B2PLYPD3/Def2QZVP\\butadiene\\0,1\C,0,-3.848097,0.21155,-0.013115\C
 ,0,-2.71638,-0.467921,0.070567\C,0,-1.367736,0.093443,0.011685\C,0,-0.
 251302,-0.677312,0.016005\H,0,-4.791373,-0.321366,-0.029012\H,0,-4.047
 356,1.268316,0.135265\H,0,-2.83085,-1.60232,0.011257\H,0,-1.34998,1.16
 887,0.09034\H,0,-0.290345,-1.756383,0.217907\H,0,0.678648,-0.27015,-0.
 115034\\Version=ES64L-G09RevD.01\State=1-A\HF=-155.6872567\MP2=-155.91
 36668\RMSD=8.651e-09\PG=C01 [X(C4H6)]\\@

 Normal termination of Gaussian 09 at Wed Aug 26 16:44:29 2020.
