 Gaussian 09, Revision D.01,
 Gaussian 09:  ES64L-G09RevD.01 24-Apr-2013

 --------------------
 #p B2PLYPD3/Def2QZVP
 --------------------

 ---------
 butadiene
 ---------
 Symbolic Z-matrix:
 Charge =  0 Multiplicity = 1

                         Standard orientation:
 ---------------------------------------------------------------------
 Center     Atomic      Atomic             Coordinates (Angstroms)
 Number     Number       Type             X           Y           Z
 ---------------------------------------------------------------------
      1          6           0       -1.859303   -0.150439   -0.044342
      2          6           0       -0.638839    0.441657    0.053848
      3          6           0        0.621031   -0.348764    0.005993
      4          6           0        1.865686    0.095732   -0.077448
      5          1           0       -2.838785    0.324202    0.024956
      6          1           0       -1.929029   -1.193297   -0.166627
      7          1           0       -0.576105    1.575119    0.133740
      8          1           0        0.632043   -1.441412    0.318905
      9          1           0        2.079014    1.105734   -0.027681
     10          1           0        2.701418   -0.599460    0.088403
 ---------------------------------------------------------------------

 SCF Done:  E(RB2PLYPD3) =  -155.682464550     A.U. after   12 cycles
 E2(B2PLYPD3) =    -0.2268366170D+00 E(B2PLYPD3) =    -0.15590930116735D+03

 The electronic state is 1-A.
 Alpha  occ. eigenvalues --  -10.64262 -10.63168 -10.62017 -10.60886  -0.92219
 Alpha  occ. eigenvalues --   -0.85140  -0.70026  -0.63421  -0.54394  -0.53954
 Alpha  occ. eigenvalues --   -0.46791  -0.45104  -0.40898  -0.36845  -0.28068
 Alpha virt. eigenvalues --    0.01437   0.07012   0.07209   0.07749   0.09231
 Alpha virt. eigenvalues --    0.11408   0.12650   0.14318   0.15458   0.16662
 Alpha virt. eigenvalues --    0.19129   0.19701   0.21942   0.22133   0.23821

 Mulliken charges:
               1
     1  C   -0.157956
     2  C   -0.059754
     3  C   -0.017273
     4  C   -0.169460
     5  H    0.084513
     6  H    0.069120
     7  H    0.058396
     8  H    0.053872
     9  H    0.063664
    10  H    0.074878
 Sum of Mulliken charges =   0.00000

 Dipole moment (field-independent basis, Debye):
    X=             -0.1147    Y=              0.0291    Z=              0.3613  Tot=              0.3802
 Quadrupole moment (field-independent basis, Debye-Ang):
   XX=            -23.0536   YY=            -23.4659   ZZ=            -29.2631
   XY=              0.0646   XZ=              0.6408   YZ=             -0.1050

 1\1\GINC-NODE30\SP\RB2PLYPD3-FC\def2QZVP\C4H6\BOITTIER\26-Aug-2020\0\\
 #p B2PLYPD3/Def2QZVP\\butadiene\\0,1\C,0,-3.858067,0.246709,0.061739\C
 ,0,-2.753758,-0.54284,-0.021119\C,0,-1.379763,0.02825,-0.003148\C,0,-0
 .225522,-0.614117,0.090642\H,0,-4.903326,-0.060444,0.011138\H,0,-3.752
 599,1.289979,0.150237\H,0,-2.880798,-1.672908,-0.064274\H,0,-1.190174,
 1.093436,-0.3515\H,0,-0.183304,-1.646589,0.073084\H,0,0.71258,-0.07311
 7,-0.100489\\Version=ES64L-G09RevD.01\State=1-A\HF=-155.6824646\MP2=-1
 55.9093012\RMSD=3.521e-09\PG=C01 [X(C4H6)]\\@

 Normal termination of Gaussian 09 at Wed Aug 26 14:24:12 2020.
