 Gaussian 09, Revision D.01,
 Gaussian 09:  ES64L-G09RevD.01 24-Apr-2013

 --------------------
 #p B2PLYPD3/Def2QZVP
 --------------------

 ---------
 butadiene
 ---------
 Symbolic Z-matrix:
 Charge =  0 Multiplicity = 1

                         Standard orientation:
 ---------------------------------------------------------------------
 Center     Atomic      Atomic             Coordinates (Angstroms)
 Number     Number       Type             X           Y           Z
 ---------------------------------------------------------------------
      1          6           0        1.808613    0.087639    0.006081
      2          6           0        0.582721   -0.389679   -0.050001
      3          6           0       -0.557001    0.391836   -0.065008
      4          6           0       -1.787253   -0.122556    0.052924
      5          1           0        2.680804   -0.523708    0.272165
      6          1           0        1.952522    1.189136    0.115439
      7          1           0        0.383887   -1.361655   -0.152162
      8          1           0       -0.604607    1.541321   -0.094951
      9          1           0       -1.986021   -1.125054    0.048144
     10          1           0       -2.709070    0.476519    0.147391
 ---------------------------------------------------------------------

 SCF Done:  E(RB2PLYPD3) =  -155.677039470     A.U. after   11 cycles
 E2(B2PLYPD3) =    -0.2260874824D+00 E(B2PLYPD3) =    -0.15590312695285D+03

 The electronic state is 1-A.
 Alpha  occ. eigenvalues --  -10.62506 -10.61657 -10.61016 -10.60977  -0.94711
 Alpha  occ. eigenvalues --   -0.85040  -0.70957  -0.64900  -0.55555  -0.54115
 Alpha  occ. eigenvalues --   -0.46480  -0.44544  -0.41833  -0.38807  -0.27332
 Alpha virt. eigenvalues --    0.01348   0.06984   0.07542   0.07854   0.09834
 Alpha virt. eigenvalues --    0.11693   0.12688   0.14768   0.15555   0.16534
 Alpha virt. eigenvalues --    0.18704   0.19822   0.22221   0.22845   0.23566

 Mulliken charges:
               1
     1  C   -0.160867
     2  C   -0.042131
     3  C   -0.004955
     4  C   -0.179084
     5  H    0.077691
     6  H    0.057217
     7  H    0.073170
     8  H    0.046413
     9  H    0.059614
    10  H    0.072931
 Sum of Mulliken charges =   0.00000

 Dipole moment (field-independent basis, Debye):
    X=             -0.1481    Y=             -0.1166    Z=              0.2186  Tot=              0.2887
 Quadrupole moment (field-independent basis, Debye-Ang):
   XX=            -23.6785   YY=            -23.3198   ZZ=            -28.9010
   XY=              0.0637   XZ=              0.5014   YZ=              0.0707

 1\1\GINC-NODE31\SP\RB2PLYPD3-FC\def2QZVP\C4H6\BOITTIER\26-Aug-2020\0\\
 #p B2PLYPD3/Def2QZVP\\butadiene\\0,1\C,0,-3.806987,0.208389,-0.001646\
 C,0,-2.690647,-0.48532,0.077986\C,0,-1.425953,0.071897,0.074277\C,0,-0
 .312178,-0.664906,-0.018748\H,0,-4.777254,-0.239669,-0.252822\H,0,-3.7
 44494,1.313164,-0.14838\H,0,-2.675187,-1.47329,0.21358\H,0,-1.166382,1
 .193075,0.066384\H,0,-0.302425,-1.686129,0.020531\H,0,0.704613,-0.2502
 55,-0.127197\\Version=ES64L-G09RevD.01\State=1-A\HF=-155.6770395\MP2=-
 155.903127\RMSD=7.234e-09\PG=C01 [X(C4H6)]\\@

 Normal termination of Gaussian 09 at Wed Aug 26 12:14:36 2020.
