 Gaussian 09, Revision D.01,
 Gaussian 09:  ES64L-G09RevD.01 24-Apr-2013

 --------------------
 #p B2PLYPD3/Def2QZVP
 --------------------

 ---------
 butadiene
 ---------
 Symbolic Z-matrix:
 Charge =  0 Multiplicity = 1

                         Standard orientation:
 ---------------------------------------------------------------------
 Center     Atomic      Atomic             Coordinates (Angstroms)
 Number     Number       Type             X           Y           Z
 ---------------------------------------------------------------------
      1          6           0        1.836027    0.106920    0.009291
      2          6           0        0.605846   -0.406274   -0.031098
      3          6           0       -0.607057    0.414819   -0.015292
      4          6           0       -1.833482   -0.117129    0.004735
      5          1           0        2.732535   -0.514584    0.041424
      6          1           0        1.975588    1.170187    0.055960
      7          1           0        0.428019   -1.477714    0.018025
      8          1           0       -0.464954    1.500730   -0.020180
      9          1           0       -1.983289   -1.202092    0.046333
     10          1           0       -2.695901    0.533455    0.052622
 ---------------------------------------------------------------------

 SCF Done:  E(RB2PLYPD3) =  -155.700296282     A.U. after   11 cycles
 E2(B2PLYPD3) =    -0.2258875076D+00 E(B2PLYPD3) =    -0.15592618378946D+03

 The electronic state is 1-A.
 Alpha  occ. eigenvalues --  -10.62696 -10.62566 -10.61662 -10.61492  -0.92867
 Alpha  occ. eigenvalues --   -0.84823  -0.69839  -0.64016  -0.54422  -0.53752
 Alpha  occ. eigenvalues --   -0.46650  -0.45707  -0.41017  -0.38020  -0.27723
 Alpha virt. eigenvalues --    0.01873   0.07023   0.07297   0.08094   0.09405
 Alpha virt. eigenvalues --    0.11729   0.12414   0.14658   0.15741   0.16128
 Alpha virt. eigenvalues --    0.18720   0.20375   0.21636   0.23090   0.23793

 Mulliken charges:
               1
     1  C   -0.175458
     2  C   -0.028255
     3  C   -0.031275
     4  C   -0.177463
     5  H    0.085544
     6  H    0.065487
     7  H    0.054924
     8  H    0.053527
     9  H    0.066844
    10  H    0.086125
 Sum of Mulliken charges =   0.00000

 Dipole moment (field-independent basis, Debye):
    X=              0.0013    Y=              0.0155    Z=              0.1487  Tot=              0.1495
 Quadrupole moment (field-independent basis, Debye-Ang):
   XX=            -23.6532   YY=            -23.0301   ZZ=            -29.3180
   XY=              0.1870   XZ=              0.0143   YZ=             -0.0350

 1\1\GINC-NODE29\SP\RB2PLYPD3-FC\def2QZVP\C4H6\BOITTIER\26-Aug-2020\0\\
 #p B2PLYPD3/Def2QZVP\\butadiene\\0,1\C,0,-3.838568,0.221749,0.005712\C
 ,0,-2.72125,-0.50409,0.061402\C,0,-1.380003,0.083659,0.026993\C,0,-0.2
 69935,-0.661471,0.022757\H,0,-4.8327,-0.228144,-0.012286\H,0,-3.783851
 ,1.291204,-0.068207\H,0,-2.740074,-1.590921,0.039839\H,0,-1.323551,1.1
 77142,0.004035\H,0,-0.31874,-1.756344,0.009008\H,0,0.695702,-0.178852,
 -0.040041\\Version=ES64L-G09RevD.01\State=1-A\HF=-155.7002963\MP2=-155
 .9261838\RMSD=2.829e-09\PG=C01 [X(C4H6)]\\@

 Normal termination of Gaussian 09 at Wed Aug 26 18:57:33 2020.
