 Gaussian 09, Revision D.01,
 Gaussian 09:  ES64L-G09RevD.01 24-Apr-2013

 --------------------
 #p B2PLYPD3/Def2QZVP
 --------------------

 ---------
 butadiene
 ---------
 Symbolic Z-matrix:
 Charge =  0 Multiplicity = 1

                         Standard orientation:
 ---------------------------------------------------------------------
 Center     Atomic      Atomic             Coordinates (Angstroms)
 Number     Number       Type             X           Y           Z
 ---------------------------------------------------------------------
      1          6           0       -1.855034    0.135717    0.042787
      2          6           0       -0.623649   -0.425611   -0.023425
      3          6           0        0.619003    0.369017   -0.095712
      4          6           0        1.865008   -0.092321    0.011330
      5          1           0       -2.707322   -0.479769    0.207795
      6          1           0       -2.005711    1.242730   -0.042738
      7          1           0       -0.635596   -1.538628   -0.143033
      8          1           0        0.529136    1.518883   -0.014943
      9          1           0        2.029086   -1.130049    0.062370
     10          1           0        2.758434    0.466024    0.320672
 ---------------------------------------------------------------------

 SCF Done:  E(RB2PLYPD3) =  -155.683861786     A.U. after   11 cycles
 E2(B2PLYPD3) =    -0.2273313392D+00 E(B2PLYPD3) =    -0.15591119312512D+03

 The electronic state is 1-A.
 Alpha  occ. eigenvalues --  -10.63784 -10.63724 -10.62198 -10.61350  -0.92288
 Alpha  occ. eigenvalues --   -0.84949  -0.69879  -0.63148  -0.54686  -0.53419
 Alpha  occ. eigenvalues --   -0.46500  -0.44848  -0.40879  -0.37459  -0.27690
 Alpha virt. eigenvalues --    0.01313   0.06988   0.07271   0.07772   0.09056
 Alpha virt. eigenvalues --    0.11415   0.12590   0.14137   0.15555   0.16508
 Alpha virt. eigenvalues --    0.18947   0.20088   0.21593   0.22799   0.23268

 Mulliken charges:
               1
     1  C   -0.173740
     2  C   -0.048593
     3  C   -0.025177
     4  C   -0.157014
     5  H    0.088590
     6  H    0.068976
     7  H    0.060622
     8  H    0.048516
     9  H    0.057694
    10  H    0.080127
 Sum of Mulliken charges =   0.00000

 Dipole moment (field-independent basis, Debye):
    X=             -0.0842    Y=             -0.0858    Z=              0.2687  Tot=              0.2943
 Quadrupole moment (field-independent basis, Debye-Ang):
   XX=            -23.3534   YY=            -23.3674   ZZ=            -29.2982
   XY=              0.0456   XZ=              0.7204   YZ=              0.1361

 1\1\GINC-NODE11\SP\RB2PLYPD3-FC\def2QZVP\C4H6\BOITTIER\26-Aug-2020\0\\
 #p B2PLYPD3/Def2QZVP\\butadiene\\0,1\C,0,-3.856862,0.237427,0.05914\C,
 0,-2.7392,-0.526915,0.0102\C,0,-1.378711,0.042593,-0.06447\C,0,-0.2303
 88,-0.623034,0.058473\H,0,-4.802565,-0.220812,0.226793\H,0,-3.815753,1
 .352439,-0.0436\H,0,-2.940583,-1.623269,-0.093279\H,0,-1.271161,1.1920
 32,-0.001113\H,0,-0.246289,-1.672613,0.125823\H,0,0.743813,-0.220713,0
 .366243\\Version=ES64L-G09RevD.01\State=1-A\HF=-155.6838618\MP2=-155.9
 111931\RMSD=7.660e-09\PG=C01 [X(C4H6)]\\@

 Normal termination of Gaussian 09 at Wed Aug 26 15:00:41 2020.
