 Gaussian 09, Revision D.01,
 Gaussian 09:  ES64L-G09RevD.01 24-Apr-2013

 --------------------
 #p B2PLYPD3/Def2QZVP
 --------------------

 ---------
 butadiene
 ---------
 Symbolic Z-matrix:
 Charge =  0 Multiplicity = 1

                         Standard orientation:
 ---------------------------------------------------------------------
 Center     Atomic      Atomic             Coordinates (Angstroms)
 Number     Number       Type             X           Y           Z
 ---------------------------------------------------------------------
      1          6           0       -1.840347    0.131407    0.032674
      2          6           0       -0.618368   -0.408840   -0.085763
      3          6           0        0.606097    0.390397   -0.123024
      4          6           0        1.832996   -0.127182    0.054804
      5          1           0       -2.704823   -0.574833    0.186083
      6          1           0       -1.916906    1.193089    0.228365
      7          1           0       -0.535809   -1.465744    0.049955
      8          1           0        0.500536    1.484796   -0.088955
      9          1           0        2.153164   -1.203933    0.051775
     10          1           0        2.621572    0.651933    0.300630
 ---------------------------------------------------------------------

 SCF Done:  E(RB2PLYPD3) =  -155.685490071     A.U. after   11 cycles
 E2(B2PLYPD3) =    -0.2273525254D+00 E(B2PLYPD3) =    -0.15591284259617D+03

 The electronic state is 1-A.
 Alpha  occ. eigenvalues --  -10.63076 -10.62747 -10.62463 -10.61907  -0.92774
 Alpha  occ. eigenvalues --   -0.84636  -0.69135  -0.63850  -0.54285  -0.52931
 Alpha  occ. eigenvalues --   -0.46053  -0.45390  -0.40905  -0.37787  -0.27516
 Alpha virt. eigenvalues --    0.01485   0.06830   0.07303   0.07758   0.09059
 Alpha virt. eigenvalues --    0.11627   0.12199   0.14635   0.15545   0.16210
 Alpha virt. eigenvalues --    0.18745   0.19743   0.21265   0.22907   0.23756

 Mulliken charges:
               1
     1  C   -0.170021
     2  C   -0.033531
     3  C   -0.035434
     4  C   -0.172529
     5  H    0.077248
     6  H    0.066750
     7  H    0.060331
     8  H    0.057572
     9  H    0.080173
    10  H    0.069442
 Sum of Mulliken charges =   0.00000

 Dipole moment (field-independent basis, Debye):
    X=              0.0896    Y=             -0.0638    Z=              0.5043  Tot=              0.5161
 Quadrupole moment (field-independent basis, Debye-Ang):
   XX=            -24.5473   YY=            -22.8566   ZZ=            -29.3128
   XY=             -0.1026   XZ=             -0.1252   YZ=              0.1674

 1\1\GINC-NODE31\SP\RB2PLYPD3-FC\def2QZVP\C4H6\BOITTIER\26-Aug-2020\0\\
 #p B2PLYPD3/Def2QZVP\\butadiene\\0,1\C,0,-3.838208,0.239708,0.06778\C,
 0,-2.730493,-0.50883,-0.040778\C,0,-1.384694,0.061981,-0.090615\C,0,-0
 .267472,-0.660189,0.096674\H,0,-4.81301,-0.30092,0.232429\H,0,-3.72650
 7,1.301417,0.245603\H,0,-2.834687,-1.561386,0.112686\H,0,-1.296163,1.1
 58306,-0.074959\H,0,-0.141564,-1.776354,0.1119\H,0,0.646338,-0.027856,
 0.329932\\Version=ES64L-G09RevD.01\State=1-A\HF=-155.6854901\MP2=-155.
 9128426\RMSD=4.203e-09\PG=C01 [X(C4H6)]\\@

 Normal termination of Gaussian 09 at Wed Aug 26 15:31:11 2020.
