 Gaussian 09, Revision D.01,
 Gaussian 09:  ES64L-G09RevD.01 24-Apr-2013

 --------------------
 #p B2PLYPD3/Def2QZVP
 --------------------

 ---------
 butadiene
 ---------
 Symbolic Z-matrix:
 Charge =  0 Multiplicity = 1

                         Standard orientation:
 ---------------------------------------------------------------------
 Center     Atomic      Atomic             Coordinates (Angstroms)
 Number     Number       Type             X           Y           Z
 ---------------------------------------------------------------------
      1          6           0        1.834518    0.116790   -0.018116
      2          6           0        0.609107   -0.404192    0.012276
      3          6           0       -0.602093    0.386057   -0.002472
      4          6           0       -1.841699   -0.104665   -0.001191
      5          1           0        2.698110   -0.523125    0.029572
      6          1           0        2.034867    1.198611   -0.052155
      7          1           0        0.519960   -1.478249    0.064079
      8          1           0       -0.516459    1.486288    0.098153
      9          1           0       -2.018663   -1.175414   -0.069213
     10          1           0       -2.716811    0.527953   -0.013417
 ---------------------------------------------------------------------

 SCF Done:  E(RB2PLYPD3) =  -155.699896114     A.U. after   11 cycles
 E2(B2PLYPD3) =    -0.2257345839D+00 E(B2PLYPD3) =    -0.15592563069820D+03

 The electronic state is 1-A.
 Alpha  occ. eigenvalues --  -10.62636 -10.62468 -10.61619 -10.61445  -0.93042
 Alpha  occ. eigenvalues --   -0.85021  -0.70116  -0.63784  -0.54606  -0.54083
 Alpha  occ. eigenvalues --   -0.46665  -0.45137  -0.41139  -0.38178  -0.27745
 Alpha virt. eigenvalues --    0.01728   0.07036   0.07407   0.07937   0.09683
 Alpha virt. eigenvalues --    0.11608   0.12391   0.14699   0.15760   0.16329
 Alpha virt. eigenvalues --    0.18827   0.20193   0.21757   0.22584   0.23805

 Mulliken charges:
               1
     1  C   -0.169829
     2  C   -0.037707
     3  C   -0.025414
     4  C   -0.175384
     5  H    0.083086
     6  H    0.066722
     7  H    0.057973
     8  H    0.052957
     9  H    0.061911
    10  H    0.085685
 Sum of Mulliken charges =   0.00000

 Dipole moment (field-independent basis, Debye):
    X=              0.0262    Y=             -0.0164    Z=              0.0524  Tot=              0.0608
 Quadrupole moment (field-independent basis, Debye-Ang):
   XX=            -23.4047   YY=            -23.1242   ZZ=            -29.2552
   XY=              0.0423   XZ=              0.1395   YZ=              0.0391

 1\1\GINC-NODE09\SP\RB2PLYPD3-FC\def2QZVP\C4H6\BOITTIER\26-Aug-2020\0\\
 #p B2PLYPD3/Def2QZVP\\butadiene\\0,1\C,0,-3.836115,0.228043,0.031919\C
 ,0,-2.723313,-0.503777,0.022507\C,0,-1.390592,0.057925,0.014613\C,0,-0
 .258341,-0.6457,0.033333\H,0,-4.800095,-0.248884,0.002936\H,0,-3.84028
 4,1.328775,0.029405\H,0,-2.827233,-1.577639,0.006677\H,0,-1.279005,1.1
 51838,-0.122759\H,0,-0.274903,-1.727985,0.137413\H,0,0.715568,-0.17918
 1,0.027151\\Version=ES64L-G09RevD.01\State=1-A\HF=-155.6998961\MP2=-15
 5.9256307\RMSD=3.764e-09\PG=C01 [X(C4H6)]\\@

 Normal termination of Gaussian 09 at Wed Aug 26 21:42:37 2020.
