 Gaussian 09, Revision D.01,
 Gaussian 09:  ES64L-G09RevD.01 24-Apr-2013

 --------------------
 #p B2PLYPD3/Def2QZVP
 --------------------

 ---------
 butadiene
 ---------
 Symbolic Z-matrix:
 Charge =  0 Multiplicity = 1

                         Standard orientation:
 ---------------------------------------------------------------------
 Center     Atomic      Atomic             Coordinates (Angstroms)
 Number     Number       Type             X           Y           Z
 ---------------------------------------------------------------------
      1          6           0       -1.811364   -0.126662   -0.005580
      2          6           0       -0.589096    0.434616   -0.000447
      3          6           0        0.590680   -0.391512    0.039573
      4          6           0        1.829920    0.089621   -0.034419
      5          1           0       -2.724533    0.478122   -0.024830
      6          1           0       -2.039595   -1.175107   -0.149373
      7          1           0       -0.482943    1.507945    0.155212
      8          1           0        0.435845   -1.431449    0.113608
      9          1           0        2.022506    1.142144   -0.103854
     10          1           0        2.667887   -0.558035    0.014474
 ---------------------------------------------------------------------

 SCF Done:  E(RB2PLYPD3) =  -155.697073463     A.U. after   11 cycles
 E2(B2PLYPD3) =    -0.2257294979D+00 E(B2PLYPD3) =    -0.15592280296088D+03

 The electronic state is 1-A.
 Alpha  occ. eigenvalues --  -10.62710 -10.61879 -10.61772 -10.60901  -0.93266
 Alpha  occ. eigenvalues --   -0.84729  -0.70357  -0.64602  -0.54977  -0.53848
 Alpha  occ. eigenvalues --   -0.46767  -0.45466  -0.41381  -0.38094  -0.27489
 Alpha virt. eigenvalues --    0.01675   0.07095   0.07463   0.08046   0.09352
 Alpha virt. eigenvalues --    0.11681   0.12500   0.14921   0.15606   0.16391
 Alpha virt. eigenvalues --    0.18734   0.19999   0.22265   0.22894   0.23644

 Mulliken charges:
               1
     1  C   -0.173402
     2  C   -0.036902
     3  C   -0.031159
     4  C   -0.177926
     5  H    0.072036
     6  H    0.067439
     7  H    0.067456
     8  H    0.062902
     9  H    0.065429
    10  H    0.084127
 Sum of Mulliken charges =   0.00000

 Dipole moment (field-independent basis, Debye):
    X=             -0.0428    Y=             -0.0299    Z=              0.0256  Tot=              0.0581
 Quadrupole moment (field-independent basis, Debye-Ang):
   XX=            -23.5589   YY=            -23.0509   ZZ=            -29.1503
   XY=              0.3800   XZ=              0.1773   YZ=              0.1147

 1\1\GINC-NODE18\SP\RB2PLYPD3-FC\def2QZVP\C4H6\BOITTIER\26-Aug-2020\0\\
 #p B2PLYPD3/Def2QZVP\\butadiene\\0,1\C,0,-3.810388,0.246772,0.02672\C,
 0,-2.713733,-0.531894,0.031856\C,0,-1.401115,0.059745,-0.022534\C,0,-0
 .272649,-0.641954,0.060295\H,0,-4.819975,-0.177327,0.05648\H,0,-3.8393
 7,1.32172,0.151819\H,0,-2.809362,-1.608807,-0.104695\H,0,-1.360227,1.1
 08883,-0.11506\H,0,-0.278796,-1.710554,0.148455\H,0,0.670923,-0.162279
 ,0.000118\\Version=ES64L-G09RevD.01\State=1-A\HF=-155.6970735\MP2=-155
 .922803\RMSD=5.750e-09\PG=C01 [X(C4H6)]\\@

 Normal termination of Gaussian 09 at Wed Aug 26 09:01:04 2020.
