 Gaussian 09, Revision D.01,
 Gaussian 09:  ES64L-G09RevD.01 24-Apr-2013

 --------------------
 #p B2PLYPD3/Def2QZVP
 --------------------

 ---------
 butadiene
 ---------
 Symbolic Z-matrix:
 Charge =  0 Multiplicity = 1

                         Standard orientation:
 ---------------------------------------------------------------------
 Center     Atomic      Atomic             Coordinates (Angstroms)
 Number     Number       Type             X           Y           Z
 ---------------------------------------------------------------------
      1          6           0       -1.842670   -0.129761   -0.017365
      2          6           0       -0.603018    0.419751    0.006135
      3          6           0        0.608921   -0.368549    0.006297
      4          6           0        1.844031    0.090325    0.006368
      5          1           0       -2.714893    0.469844    0.058704
      6          1           0       -2.046551   -1.190224   -0.113743
      7          1           0       -0.545363    1.503680    0.071626
      8          1           0        0.529233   -1.461309    0.137472
      9          1           0        2.037800    1.174616   -0.103651
     10          1           0        2.696196   -0.567204   -0.059021
 ---------------------------------------------------------------------

 SCF Done:  E(RB2PLYPD3) =  -155.696714227     A.U. after   11 cycles
 E2(B2PLYPD3) =    -0.2259954299D+00 E(B2PLYPD3) =    -0.15592270965668D+03

 The electronic state is 1-A.
 Alpha  occ. eigenvalues --  -10.63029 -10.62371 -10.61712 -10.61353  -0.92965
 Alpha  occ. eigenvalues --   -0.84998  -0.70348  -0.63691  -0.54718  -0.54080
 Alpha  occ. eigenvalues --   -0.46644  -0.45140  -0.41140  -0.38072  -0.27674
 Alpha virt. eigenvalues --    0.01515   0.07054   0.07456   0.07892   0.09609
 Alpha virt. eigenvalues --    0.11560   0.12444   0.14697   0.15660   0.16491
 Alpha virt. eigenvalues --    0.18896   0.19831   0.21800   0.22745   0.23679

 Mulliken charges:
               1
     1  C   -0.172324
     2  C   -0.045408
     3  C   -0.022362
     4  C   -0.169552
     5  H    0.082806
     6  H    0.068604
     7  H    0.060628
     8  H    0.055040
     9  H    0.057731
    10  H    0.084837
 Sum of Mulliken charges =   0.00000

 Dipole moment (field-independent basis, Debye):
    X=             -0.0672    Y=             -0.0185    Z=             -0.0106  Tot=              0.0704
 Quadrupole moment (field-independent basis, Debye-Ang):
   XX=            -23.3432   YY=            -23.1773   ZZ=            -29.2383
   XY=              0.0014   XZ=             -0.3007   YZ=              0.0242

 1\1\GINC-NODE03\SP\RB2PLYPD3-FC\def2QZVP\C4H6\BOITTIER\26-Aug-2020\0\\
 #p B2PLYPD3/Def2QZVP\\butadiene\\0,1\C,0,-3.842825,0.241613,0.030123\C
 ,0,-2.720652,-0.519949,0.028272\C,0,-1.387871,0.040006,0.009326\C,0,-0
 .254022,-0.630885,0.028144\H,0,-4.807855,-0.195439,-0.03142\H,0,-3.854
 791,1.323859,0.093669\H,0,-2.856712,-1.598347,-0.004293\H,0,-1.272182,
 1.125032,-0.15504\H,0,-0.255969,-1.728501,0.171576\H,0,0.701555,-0.133
 617,0.077184\\Version=ES64L-G09RevD.01\State=1-A\HF=-155.6967142\MP2=-
 155.9227097\RMSD=5.862e-09\PG=C01 [X(C4H6)]\\@

 Normal termination of Gaussian 09 at Wed Aug 26 08:49:04 2020.
