 Gaussian 09, Revision D.01,
 Gaussian 09:  ES64L-G09RevD.01 24-Apr-2013

 --------------------
 #p B2PLYPD3/Def2QZVP
 --------------------

 ---------
 butadiene
 ---------
 Symbolic Z-matrix:
 Charge =  0 Multiplicity = 1

                         Standard orientation:
 ---------------------------------------------------------------------
 Center     Atomic      Atomic             Coordinates (Angstroms)
 Number     Number       Type             X           Y           Z
 ---------------------------------------------------------------------
      1          6           0        1.855623    0.117996   -0.010061
      2          6           0        0.617513   -0.413149   -0.012501
      3          6           0       -0.625962    0.381051   -0.004265
      4          6           0       -1.860418   -0.106550    0.017134
      5          1           0        2.808876   -0.495944    0.128896
      6          1           0        1.946264    1.206513   -0.023271
      7          1           0        0.482410   -1.453998   -0.026671
      8          1           0       -0.429056    1.445293   -0.001638
      9          1           0       -2.057497   -1.170675   -0.036170
     10          1           0       -2.671538    0.592722    0.017012
 ---------------------------------------------------------------------

 SCF Done:  E(RB2PLYPD3) =  -155.695347497     A.U. after   11 cycles
 E2(B2PLYPD3) =    -0.2260352596D+00 E(B2PLYPD3) =    -0.15592138275695D+03

 The electronic state is 1-A.
 Alpha  occ. eigenvalues --  -10.62585 -10.62559 -10.62436 -10.61437  -0.92710
 Alpha  occ. eigenvalues --   -0.84870  -0.69836  -0.64361  -0.54154  -0.53728
 Alpha  occ. eigenvalues --   -0.46937  -0.45772  -0.40756  -0.37803  -0.27860
 Alpha virt. eigenvalues --    0.01658   0.06899   0.07464   0.08078   0.09520
 Alpha virt. eigenvalues --    0.11673   0.12336   0.14581   0.15744   0.16009
 Alpha virt. eigenvalues --    0.18772   0.20322   0.21464   0.22902   0.23869

 Mulliken charges:
               1
     1  C   -0.171874
     2  C   -0.035495
     3  C   -0.029736
     4  C   -0.179990
     5  H    0.084861
     6  H    0.061292
     7  H    0.059533
     8  H    0.050738
     9  H    0.071843
    10  H    0.088827
 Sum of Mulliken charges =   0.00000

 Dipole moment (field-independent basis, Debye):
    X=             -0.0196    Y=             -0.0161    Z=              0.0388  Tot=              0.0464
 Quadrupole moment (field-independent basis, Debye-Ang):
   XX=            -23.5413   YY=            -23.1597   ZZ=            -29.3367
   XY=              0.1397   XZ=              0.3953   YZ=             -0.0242

 1\1\GINC-NODE18\SP\RB2PLYPD3-FC\def2QZVP\C4H6\BOITTIER\26-Aug-2020\0\\
 #p B2PLYPD3/Def2QZVP\\butadiene\\0,1\C,0,-3.858697,0.231742,0.021085\C
 ,0,-2.734121,-0.509726,0.045392\C,0,-1.36973,0.051358,0.019422\C,0,-0.
 241058,-0.647349,0.018581\H,0,-4.905625,-0.207807,-0.104057\H,0,-3.755
 27,1.319019,0.001301\H,0,-2.785337,-1.557145,0.091333\H,0,-1.375196,1.
 133073,-0.01598\H,0,-0.235374,-1.727445,0.104633\H,0,0.681007,-0.10291
 5,0.001713\\Version=ES64L-G09RevD.01\State=1-A\HF=-155.6953475\MP2=-15
 5.9213828\RMSD=5.488e-09\PG=C01 [X(C4H6)]\\@

 Normal termination of Gaussian 09 at Wed Aug 26 08:41:24 2020.
