 Gaussian 09, Revision D.01,
 Gaussian 09:  ES64L-G09RevD.01 24-Apr-2013

 --------------------
 #p B2PLYPD3/Def2QZVP
 --------------------

 ---------
 butadiene
 ---------
 Symbolic Z-matrix:
 Charge =  0 Multiplicity = 1

                         Standard orientation:
 ---------------------------------------------------------------------
 Center     Atomic      Atomic             Coordinates (Angstroms)
 Number     Number       Type             X           Y           Z
 ---------------------------------------------------------------------
      1          6           0       -1.842619   -0.137871   -0.074268
      2          6           0       -0.615682    0.456577    0.039406
      3          6           0        0.593923   -0.393511    0.014299
      4          6           0        1.841195    0.112142   -0.020547
      5          1           0       -2.743081    0.410473    0.083289
      6          1           0       -1.823942   -1.210046    0.017175
      7          1           0       -0.486937    1.584865    0.111035
      8          1           0        0.402903   -1.427730    0.146438
      9          1           0        2.156309    1.068714   -0.101496
     10          1           0        2.633849   -0.650294   -0.009782
 ---------------------------------------------------------------------

 SCF Done:  E(RB2PLYPD3) =  -155.685025341     A.U. after   11 cycles
 E2(B2PLYPD3) =    -0.2270836926D+00 E(B2PLYPD3) =    -0.15591210903358D+03

 The electronic state is 1-A.
 Alpha  occ. eigenvalues --  -10.63681 -10.62794 -10.61624 -10.61148  -0.92475
 Alpha  occ. eigenvalues --   -0.84544  -0.70306  -0.64390  -0.55082  -0.53120
 Alpha  occ. eigenvalues --   -0.47659  -0.45154  -0.41075  -0.37375  -0.27464
 Alpha virt. eigenvalues --    0.01341   0.06997   0.07341   0.08044   0.08913
 Alpha virt. eigenvalues --    0.11722   0.12556   0.14912   0.15547   0.16199
 Alpha virt. eigenvalues --    0.18731   0.19772   0.21791   0.22781   0.24546

 Mulliken charges:
               1
     1  C   -0.167875
     2  C   -0.040478
     3  C   -0.030566
     4  C   -0.179591
     5  H    0.084626
     6  H    0.058788
     7  H    0.055449
     8  H    0.066662
     9  H    0.083079
    10  H    0.069907
 Sum of Mulliken charges =   0.00000

 Dipole moment (field-independent basis, Debye):
    X=              0.0797    Y=              0.0588    Z=              0.2633  Tot=              0.2813
 Quadrupole moment (field-independent basis, Debye-Ang):
   XX=            -23.9605   YY=            -22.9172   ZZ=            -29.3754
   XY=              0.3686   XZ=             -0.5829   YZ=             -0.1591

 1\1\GINC-NODE27\SP\RB2PLYPD3-FC\def2QZVP\C4H6\BOITTIER\26-Aug-2020\0\\
 #p B2PLYPD3/Def2QZVP\\butadiene\\0,1\C,0,-3.836413,0.257648,0.076675\C
 ,0,-2.736571,-0.551433,-0.00934\C,0,-1.393627,0.067356,-0.004077\C,0,-
 0.257878,-0.653131,0.055571\H,0,-4.82083,-0.124578,-0.068799\H,0,-3.62
 4832,1.305279,-0.049708\H,0,-2.813151,-1.686217,-0.043123\H,0,-1.39512
 5,1.114064,-0.17128\H,0,-0.120297,-1.647557,0.169891\H,0,0.659168,-0.0
 46647,0.025091\\Version=ES64L-G09RevD.01\State=1-A\HF=-155.6850253\MP2
 =-155.912109\RMSD=6.840e-09\PG=C01 [X(C4H6)]\\@

 Normal termination of Gaussian 09 at Wed Aug 26 14:34:00 2020.
