 Gaussian 09, Revision D.01,
 Gaussian 09:  ES64L-G09RevD.01 24-Apr-2013

 --------------------
 #p B2PLYPD3/Def2QZVP
 --------------------

 ---------
 butadiene
 ---------
 Symbolic Z-matrix:
 Charge =  0 Multiplicity = 1

                         Standard orientation:
 ---------------------------------------------------------------------
 Center     Atomic      Atomic             Coordinates (Angstroms)
 Number     Number       Type             X           Y           Z
 ---------------------------------------------------------------------
      1          6           0        1.827324   -0.119750    0.005530
      2          6           0        0.599096    0.417060   -0.013398
      3          6           0       -0.602683   -0.398345   -0.013151
      4          6           0       -1.834328    0.101944    0.022870
      5          1           0        2.690392    0.532061    0.092039
      6          1           0        2.016264   -1.194943   -0.039806
      7          1           0        0.458537    1.482112   -0.035347
      8          1           0       -0.447729   -1.445471   -0.002758
      9          1           0       -1.981976    1.166894   -0.040767
     10          1           0       -2.671945   -0.546103    0.015535
 ---------------------------------------------------------------------

 SCF Done:  E(RB2PLYPD3) =  -155.699937070     A.U. after   11 cycles
 E2(B2PLYPD3) =    -0.2254463622D+00 E(B2PLYPD3) =    -0.15592538343195D+03

 The electronic state is 1-A.
 Alpha  occ. eigenvalues --  -10.62426 -10.61940 -10.61712 -10.60985  -0.93144
 Alpha  occ. eigenvalues --   -0.84919  -0.70168  -0.64523  -0.54687  -0.53987
 Alpha  occ. eigenvalues --   -0.46739  -0.45904  -0.41406  -0.38067  -0.27586
 Alpha virt. eigenvalues --    0.01813   0.07031   0.07428   0.08180   0.09509
 Alpha virt. eigenvalues --    0.11789   0.12392   0.14846   0.15804   0.16152
 Alpha virt. eigenvalues --    0.18695   0.20320   0.21678   0.23177   0.24017

 Mulliken charges:
               1
     1  C   -0.178295
     2  C   -0.034759
     3  C   -0.026830
     4  C   -0.179688
     5  H    0.082356
     6  H    0.069485
     7  H    0.058353
     8  H    0.057245
     9  H    0.065445
    10  H    0.086688
 Sum of Mulliken charges =   0.00000

 Dipole moment (field-independent basis, Debye):
    X=              0.0204    Y=             -0.0184    Z=             -0.0353  Tot=              0.0448
 Quadrupole moment (field-independent basis, Debye-Ang):
   XX=            -23.7405   YY=            -22.9359   ZZ=            -29.2086
   XY=             -0.1900   XZ=              0.2214   YZ=              0.0088

 1\1\GINC-NODE38\SP\RB2PLYPD3-FC\def2QZVP\C4H6\BOITTIER\26-Aug-2020\0\\
 #p B2PLYPD3/Def2QZVP\\butadiene\\0,1\C,0,-3.827769,0.237188,0.026597\C
 ,0,-2.71853,-0.515569,0.022835\C,0,-1.387918,0.065913,0.000326\C,0,-0.
 268364,-0.650063,0.050467\H,0,-4.795032,-0.243096,0.131271\H,0,-3.8171
 28,1.327134,-0.048883\H,0,-2.775221,-1.588555,0.030769\H,0,-1.348716,1
 .123596,-0.018658\H,0,-0.318277,-1.725395,0.016727\H,0,0.673589,-0.166
 639,0.025039\\Version=ES64L-G09RevD.01\State=1-A\HF=-155.6999371\MP2=-
 155.9253834\RMSD=4.423e-09\PG=C01 [X(C4H6)]\\@

 Normal termination of Gaussian 09 at Wed Aug 26 16:37:33 2020.
