 Gaussian 09, Revision D.01,
 Gaussian 09:  ES64L-G09RevD.01 24-Apr-2013

 --------------------
 #p B2PLYPD3/Def2QZVP
 --------------------

 ---------
 butadiene
 ---------
 Symbolic Z-matrix:
 Charge =  0 Multiplicity = 1

                         Standard orientation:
 ---------------------------------------------------------------------
 Center     Atomic      Atomic             Coordinates (Angstroms)
 Number     Number       Type             X           Y           Z
 ---------------------------------------------------------------------
      1          6           0       -1.825675    0.089092   -0.031073
      2          6           0       -0.591255   -0.363853   -0.014772
      3          6           0        0.603378    0.428046    0.032675
      4          6           0        1.800407   -0.123606   -0.016805
      5          1           0       -2.742211   -0.585660    0.215806
      6          1           0       -1.994262    1.210252   -0.067192
      7          1           0       -0.433273   -1.458948    0.039247
      8          1           0        0.550184    1.503971   -0.019751
      9          1           0        1.822420   -1.192739   -0.116141
     10          1           0        2.876013    0.345055    0.127878
 ---------------------------------------------------------------------

 SCF Done:  E(RB2PLYPD3) =  -155.680277479     A.U. after   11 cycles
 E2(B2PLYPD3) =    -0.2268302763D+00 E(B2PLYPD3) =    -0.15590710775501D+03

 The electronic state is 1-A.
 Alpha  occ. eigenvalues --  -10.62567 -10.62421 -10.62372 -10.62240  -0.93801
 Alpha  occ. eigenvalues --   -0.85023  -0.68866  -0.63965  -0.53785  -0.53543
 Alpha  occ. eigenvalues --   -0.46640  -0.43777  -0.40938  -0.38360  -0.27961
 Alpha virt. eigenvalues --    0.01758   0.06863   0.07280   0.07621   0.09592
 Alpha virt. eigenvalues --    0.11507   0.12521   0.14154   0.15556   0.16140
 Alpha virt. eigenvalues --    0.18769   0.20212   0.21174   0.22304   0.23731

 Mulliken charges:
               1
     1  C   -0.167827
     2  C   -0.022412
     3  C   -0.031658
     4  C   -0.158358
     5  H    0.081267
     6  H    0.057127
     7  H    0.050336
     8  H    0.059233
     9  H    0.052989
    10  H    0.079304
 Sum of Mulliken charges =   0.00000

 Dipole moment (field-independent basis, Debye):
    X=              0.1431    Y=             -0.0193    Z=              0.1742  Tot=              0.2263
 Quadrupole moment (field-independent basis, Debye-Ang):
   XX=            -23.5531   YY=            -23.5128   ZZ=            -29.2304
   XY=              0.0110   XZ=             -0.3870   YZ=             -0.1440

 1\1\GINC-NODE09\SP\RB2PLYPD3-FC\def2QZVP\C4H6\BOITTIER\26-Aug-2020\0\\
 #p B2PLYPD3/Def2QZVP\\butadiene\\0,1\C,0,-3.832777,0.190483,-0.00416\C
 ,0,-2.697363,-0.472039,0.029289\C,0,-1.381566,0.098031,0.043503\C,0,-0
 .300878,-0.657589,0.015257\H,0,-4.851822,-0.301731,0.270703\H,0,-3.801
 506,1.321472,-0.085475\H,0,-2.734337,-1.574811,0.127444\H,0,-1.244811,
 1.163534,-0.052384\H,0,-0.468354,-1.716935,-0.040739\H,0,0.8416,-0.380
 585,0.139826\\Version=ES64L-G09RevD.01\State=1-A\HF=-155.6802775\MP2=-
 155.9071078\RMSD=5.840e-09\PG=C01 [X(C4H6)]\\@

 Normal termination of Gaussian 09 at Wed Aug 26 12:37:06 2020.
