 Gaussian 09, Revision D.01,
 Gaussian 09:  ES64L-G09RevD.01 24-Apr-2013

 --------------------
 #p B2PLYPD3/Def2QZVP
 --------------------

 ---------
 butadiene
 ---------
 Symbolic Z-matrix:
 Charge =  0 Multiplicity = 1

                         Standard orientation:
 ---------------------------------------------------------------------
 Center     Atomic      Atomic             Coordinates (Angstroms)
 Number     Number       Type             X           Y           Z
 ---------------------------------------------------------------------
      1          6           0        1.832232    0.095329    0.015287
      2          6           0        0.597953   -0.375790   -0.057902
      3          6           0       -0.608210    0.403193   -0.044896
      4          6           0       -1.826824   -0.129456    0.037426
      5          1           0        2.700358   -0.509619    0.176077
      6          1           0        1.993940    1.144441    0.054768
      7          1           0        0.430879   -1.467827   -0.066833
      8          1           0       -0.474648    1.473338    0.012774
      9          1           0       -1.958870   -1.163694    0.093337
     10          1           0       -2.662563    0.563707    0.030391
 ---------------------------------------------------------------------

 SCF Done:  E(RB2PLYPD3) =  -155.697475919     A.U. after   11 cycles
 E2(B2PLYPD3) =    -0.2252854440D+00 E(B2PLYPD3) =    -0.15592276136302D+03

 The electronic state is 1-A.
 Alpha  occ. eigenvalues --  -10.62281 -10.62158 -10.61159 -10.60949  -0.93470
 Alpha  occ. eigenvalues --   -0.85291  -0.70595  -0.64198  -0.54847  -0.54357
 Alpha  occ. eigenvalues --   -0.46843  -0.46028  -0.40964  -0.38400  -0.27702
 Alpha virt. eigenvalues --    0.01698   0.07020   0.07455   0.08094   0.09817
 Alpha virt. eigenvalues --    0.11813   0.12484   0.14924   0.15654   0.16252
 Alpha virt. eigenvalues --    0.18767   0.19998   0.22022   0.23057   0.23827

 Mulliken charges:
               1
     1  C   -0.174323
     2  C   -0.019174
     3  C   -0.027226
     4  C   -0.182192
     5  H    0.086188
     6  H    0.059430
     7  H    0.043631
     8  H    0.052369
     9  H    0.074492
    10  H    0.086805
 Sum of Mulliken charges =   0.00000

 Dipole moment (field-independent basis, Debye):
    X=             -0.0131    Y=              0.0224    Z=              0.2112  Tot=              0.2128
 Quadrupole moment (field-independent basis, Debye-Ang):
   XX=            -23.6244   YY=            -23.1427   ZZ=            -29.0752
   XY=              0.1495   XZ=              0.3515   YZ=             -0.0632

 1\1\GINC-NODE18\SP\RB2PLYPD3-FC\def2QZVP\C4H6\BOITTIER\26-Aug-2020\0\\
 #p B2PLYPD3/Def2QZVP\\butadiene\\0,1\C,0,-3.837575,0.21031,-0.007026\C
 ,0,-2.708818,-0.473985,0.084635\C,0,-1.381669,0.073424,0.055797\C,0,-0
 .279521,-0.672845,-0.006381\H,0,-4.80087,-0.231936,-0.155144\H,0,-3.80
 6899,1.269864,-0.075935\H,0,-2.741994,-1.577557,0.124204\H,0,-1.319516
 ,1.148063,-0.031742\H,0,-0.336726,-1.715059,-0.03337\H,0,0.667801,-0.1
 4228,-0.01452\\Version=ES64L-G09RevD.01\State=1-A\HF=-155.6974759\MP2=
 -155.9227614\RMSD=5.602e-09\PG=C01 [X(C4H6)]\\@

 Normal termination of Gaussian 09 at Wed Aug 26 09:36:08 2020.
