 Gaussian 09, Revision D.01,
 Gaussian 09:  ES64L-G09RevD.01 24-Apr-2013

 --------------------
 #p B2PLYPD3/Def2QZVP
 --------------------

 ---------
 butadiene
 ---------
 Symbolic Z-matrix:
 Charge =  0 Multiplicity = 1

                         Standard orientation:
 ---------------------------------------------------------------------
 Center     Atomic      Atomic             Coordinates (Angstroms)
 Number     Number       Type             X           Y           Z
 ---------------------------------------------------------------------
      1          6           0       -1.861301   -0.088588   -0.051201
      2          6           0       -0.616799    0.321353    0.034676
      3          6           0        0.633139   -0.402636   -0.006265
      4          6           0        1.827943    0.117216   -0.019381
      5          1           0       -2.580490    0.654438   -0.051140
      6          1           0       -2.185561   -1.108842    0.136100
      7          1           0       -0.473298    1.456278    0.150744
      8          1           0        0.598745   -1.528024    0.029090
      9          1           0        1.960211    1.252272   -0.054798
     10          1           0        2.782500   -0.410193    0.043027
 ---------------------------------------------------------------------

 SCF Done:  E(RB2PLYPD3) =  -155.685099728     A.U. after   11 cycles
 E2(B2PLYPD3) =    -0.2256584998D+00 E(B2PLYPD3) =    -0.15591075822760D+03

 The electronic state is 1-A.
 Alpha  occ. eigenvalues --  -10.62947 -10.62618 -10.62067 -10.60798  -0.93317
 Alpha  occ. eigenvalues --   -0.85952  -0.70406  -0.62507  -0.55198  -0.53853
 Alpha  occ. eigenvalues --   -0.47728  -0.44406  -0.39975  -0.38034  -0.28386
 Alpha virt. eigenvalues --    0.01742   0.06916   0.07266   0.07828   0.10032
 Alpha virt. eigenvalues --    0.11421   0.12473   0.14571   0.15734   0.16508
 Alpha virt. eigenvalues --    0.18743   0.20341   0.21691   0.21804   0.23879

 Mulliken charges:
               1
     1  C   -0.167594
     2  C   -0.026810
     3  C   -0.023090
     4  C   -0.154004
     5  H    0.083332
     6  H    0.072157
     7  H    0.034758
     8  H    0.044417
     9  H    0.047767
    10  H    0.089068
 Sum of Mulliken charges =   0.00000

 Dipole moment (field-independent basis, Debye):
    X=              0.0952    Y=             -0.0301    Z=              0.2570  Tot=              0.2757
 Quadrupole moment (field-independent basis, Debye-Ang):
   XX=            -23.0460   YY=            -23.5751   ZZ=            -29.1005
   XY=             -0.0108   XZ=             -0.1852   YZ=             -0.1740

 1\1\GINC-NODE14\SP\RB2PLYPD3-FC\def2QZVP\C4H6\BOITTIER\26-Aug-2020\0\\
 #p B2PLYPD3/Def2QZVP\\butadiene\\0,1\C,0,-3.867718,0.196952,0.060125\C
 ,0,-2.715373,-0.429364,-0.003434\C,0,-1.357185,0.063882,0.011231\C,0,-
 0.272765,-0.65752,0.051087\H,0,-4.706684,-0.406883,0.089124\H,0,-4.007
 653,1.249446,-0.171865\H,0,-2.774748,-1.575715,-0.070312\H,0,-1.192675
 ,1.175134,-0.072354\H,0,-0.342642,-1.79554,0.135517\H,0,0.759606,-0.30
 9908,-0.030211\\Version=ES64L-G09RevD.01\State=1-A\HF=-155.6850997\MP2
 =-155.9107582\RMSD=8.056e-09\PG=C01 [X(C4H6)]\\@

 Normal termination of Gaussian 09 at Wed Aug 26 11:27:11 2020.
