 Gaussian 09, Revision D.01,
 Gaussian 09:  ES64L-G09RevD.01 24-Apr-2013

 --------------------
 #p B2PLYPD3/Def2QZVP
 --------------------

 ---------
 butadiene
 ---------
 Symbolic Z-matrix:
 Charge =  0 Multiplicity = 1

                         Standard orientation:
 ---------------------------------------------------------------------
 Center     Atomic      Atomic             Coordinates (Angstroms)
 Number     Number       Type             X           Y           Z
 ---------------------------------------------------------------------
      1          6           0       -1.819180   -0.086997   -0.029076
      2          6           0       -0.574293    0.375288   -0.015771
      3          6           0        0.606301   -0.423946   -0.039294
      4          6           0        1.845603    0.100211    0.006236
      5          1           0       -2.769677    0.500563    0.070590
      6          1           0       -2.062146   -1.173884    0.169876
      7          1           0       -0.543873    1.544725    0.129665
      8          1           0        0.409331   -1.491739   -0.002075
      9          1           0        1.860427    1.232141   -0.050888
     10          1           0        2.755349   -0.399143    0.150266
 ---------------------------------------------------------------------

 SCF Done:  E(RB2PLYPD3) =  -155.679915735     A.U. after   11 cycles
 E2(B2PLYPD3) =    -0.2276891717D+00 E(B2PLYPD3) =    -0.15590760490710D+03

 The electronic state is 1-A.
 Alpha  occ. eigenvalues --  -10.63399 -10.62981 -10.62295 -10.62206  -0.93369
 Alpha  occ. eigenvalues --   -0.84671  -0.70285  -0.62968  -0.55624  -0.52586
 Alpha  occ. eigenvalues --   -0.47114  -0.43910  -0.40566  -0.38085  -0.27590
 Alpha virt. eigenvalues --    0.01164   0.06845   0.07098   0.07831   0.09428
 Alpha virt. eigenvalues --    0.11499   0.12701   0.14089   0.15762   0.16446
 Alpha virt. eigenvalues --    0.18632   0.20085   0.21782   0.22356   0.23754

 Mulliken charges:
               1
     1  C   -0.160701
     2  C   -0.016491
     3  C   -0.033731
     4  C   -0.163767
     5  H    0.075235
     6  H    0.045391
     7  H    0.042942
     8  H    0.057333
     9  H    0.057024
    10  H    0.096765
 Sum of Mulliken charges =   0.00000

 Dipole moment (field-independent basis, Debye):
    X=              0.0450    Y=             -0.0581    Z=              0.3957  Tot=              0.4025
 Quadrupole moment (field-independent basis, Debye-Ang):
   XX=            -23.1426   YY=            -23.7001   ZZ=            -29.3337
   XY=             -0.1029   XZ=             -0.2280   YZ=             -0.1400

 1\1\GINC-NODE18\SP\RB2PLYPD3-FC\def2QZVP\C4H6\BOITTIER\26-Aug-2020\0\\
 #p B2PLYPD3/Def2QZVP\\butadiene\\0,1\C,0,-3.832507,0.199801,0.032942\C
 ,0,-2.692704,-0.481674,0.041262\C,0,-1.386221,0.089489,0.043522\C,0,-0
 .263227,-0.652867,0.021695\H,0,-4.874284,-0.207856,-0.051445\H,0,-3.87
 3654,1.305346,-0.203735\H,0,-2.876064,-1.641353,-0.064494\H,0,-1.38539
 6,1.1734,-0.030649\H,0,-0.454807,-1.76595,0.117042\H,0,0.722072,-0.332
 764,-0.134695\\Version=ES64L-G09RevD.01\State=1-A\HF=-155.6799157\MP2=
 -155.9076049\RMSD=7.297e-09\PG=C01 [X(C4H6)]\\@

 Normal termination of Gaussian 09 at Wed Aug 26 15:31:17 2020.
