 Gaussian 09, Revision D.01,
 Gaussian 09:  ES64L-G09RevD.01 24-Apr-2013

 --------------------
 #p B2PLYPD3/Def2QZVP
 --------------------

 ---------
 butadiene
 ---------
 Symbolic Z-matrix:
 Charge =  0 Multiplicity = 1

                         Standard orientation:
 ---------------------------------------------------------------------
 Center     Atomic      Atomic             Coordinates (Angstroms)
 Number     Number       Type             X           Y           Z
 ---------------------------------------------------------------------
      1          6           0        1.871245    0.066145   -0.027199
      2          6           0        0.625850   -0.350800    0.031016
      3          6           0       -0.601558    0.467437    0.009008
      4          6           0       -1.858356   -0.159334   -0.039462
      5          1           0        2.686461   -0.612442   -0.178428
      6          1           0        1.988685    1.104203    0.192862
      7          1           0        0.398486   -1.414615    0.058619
      8          1           0       -0.526252    1.600652   -0.005938
      9          1           0       -2.034605   -1.281423    0.148845
     10          1           0       -2.735858    0.462945   -0.056132
 ---------------------------------------------------------------------

 SCF Done:  E(RB2PLYPD3) =  -155.680977088     A.U. after   12 cycles
 E2(B2PLYPD3) =    -0.2280088072D+00 E(B2PLYPD3) =    -0.15590898589490D+03

 The electronic state is 1-A.
 Alpha  occ. eigenvalues --  -10.64588 -10.63393 -10.62361 -10.60912  -0.92343
 Alpha  occ. eigenvalues --   -0.84248  -0.69914  -0.63278  -0.54595  -0.53056
 Alpha  occ. eigenvalues --   -0.46379  -0.45264  -0.41479  -0.37161  -0.27253
 Alpha virt. eigenvalues --    0.00963   0.06953   0.07141   0.08003   0.09063
 Alpha virt. eigenvalues --    0.11635   0.12158   0.14598   0.15740   0.16123
 Alpha virt. eigenvalues --    0.18795   0.19922   0.21061   0.23375   0.23637

 Mulliken charges:
               1
     1  C   -0.186965
     2  C   -0.005122
     3  C   -0.058555
     4  C   -0.174165
     5  H    0.095479
     6  H    0.069191
     7  H    0.050130
     8  H    0.055344
     9  H    0.069368
    10  H    0.085297
 Sum of Mulliken charges =   0.00000

 Dipole moment (field-independent basis, Debye):
    X=             -0.0517    Y=             -0.0055    Z=              0.1841  Tot=              0.1913
 Quadrupole moment (field-independent basis, Debye-Ang):
   XX=            -23.7371   YY=            -23.0932   ZZ=            -29.4878
   XY=              0.0063   XZ=             -0.2858   YZ=              0.0772

 1\1\GINC-NODE26\SP\RB2PLYPD3-FC\def2QZVP\C4H6\BOITTIER\26-Aug-2020\0\\
 #p B2PLYPD3/Def2QZVP\\butadiene\\0,1\C,0,-3.877932,0.183418,0.047193\C
 ,0,-2.727498,-0.45125,0.003165\C,0,-1.3735,0.134561,-0.003105\C,0,-0.2
 48678,-0.704866,0.066694\H,0,-4.800338,-0.33294,0.221746\H,0,-3.809332
 ,1.217712,-0.208373\H,0,-2.694104,-1.538891,0.012083\H,0,-1.244963,1.2
 62823,-0.027076\H,0,-0.276998,-1.846093,-0.08299\H,0,0.725999,-0.24934
 5,0.061865\\Version=ES64L-G09RevD.01\State=1-A\HF=-155.6809771\MP2=-15
 5.9089859\RMSD=3.233e-09\PG=C01 [X(C4H6)]\\@

 Normal termination of Gaussian 09 at Wed Aug 26 13:10:29 2020.
