 Gaussian 09, Revision D.01,
 Gaussian 09:  ES64L-G09RevD.01 24-Apr-2013

 --------------------
 #p B2PLYPD3/Def2QZVP
 --------------------

 ---------
 butadiene
 ---------
 Symbolic Z-matrix:
 Charge =  0 Multiplicity = 1

                         Standard orientation:
 ---------------------------------------------------------------------
 Center     Atomic      Atomic             Coordinates (Angstroms)
 Number     Number       Type             X           Y           Z
 ---------------------------------------------------------------------
      1          6           0       -1.837321   -0.132228   -0.051280
      2          6           0       -0.612823    0.409656    0.044271
      3          6           0        0.599589   -0.376973    0.029830
      4          6           0        1.856302    0.099451   -0.034095
      5          1           0       -2.669923    0.572187   -0.037240
      6          1           0       -1.999970   -1.207099    0.000804
      7          1           0       -0.539985    1.531771    0.067986
      8          1           0        0.404673   -1.459337    0.127586
      9          1           0        2.081152    1.127525   -0.005316
     10          1           0        2.689567   -0.564483   -0.086172
 ---------------------------------------------------------------------

 SCF Done:  E(RB2PLYPD3) =  -155.695865647     A.U. after   11 cycles
 E2(B2PLYPD3) =    -0.2264247014D+00 E(B2PLYPD3) =    -0.15592229034867D+03

 The electronic state is 1-A.
 Alpha  occ. eigenvalues --  -10.62923 -10.62849 -10.61820 -10.61252  -0.92844
 Alpha  occ. eigenvalues --   -0.84815  -0.70497  -0.63460  -0.54525  -0.53906
 Alpha  occ. eigenvalues --   -0.46207  -0.46073  -0.41190  -0.37835  -0.27519
 Alpha virt. eigenvalues --    0.01414   0.06994   0.07282   0.07964   0.09610
 Alpha virt. eigenvalues --    0.11676   0.12316   0.14890   0.15658   0.16146
 Alpha virt. eigenvalues --    0.18771   0.20150   0.21679   0.22785   0.23811

 Mulliken charges:
               1
     1  C   -0.175698
     2  C   -0.026960
     3  C   -0.027535
     4  C   -0.181551
     5  H    0.083785
     6  H    0.070654
     7  H    0.047229
     8  H    0.051104
     9  H    0.072170
    10  H    0.086803
 Sum of Mulliken charges =   0.00000

 Dipole moment (field-independent basis, Debye):
    X=             -0.0057    Y=              0.0254    Z=              0.1143  Tot=              0.1172
 Quadrupole moment (field-independent basis, Debye-Ang):
   XX=            -23.6575   YY=            -23.0183   ZZ=            -29.3446
   XY=              0.2236   XZ=             -0.1452   YZ=             -0.0492

 1\1\GINC-NODE20\SP\RB2PLYPD3-FC\def2QZVP\C4H6\BOITTIER\26-Aug-2020\0\\
 #p B2PLYPD3/Def2QZVP\\butadiene\\0,1\C,0,-3.835817,0.247478,0.064266\C
 ,0,-2.729253,-0.508896,-0.010427\C,0,-1.394903,0.04645,-0.016591\C,0,-
 0.244465,-0.646396,0.066178\H,0,-4.78176,-0.295467,0.069492\H,0,-3.802
 233,1.331905,-0.021786\H,0,-2.859877,-1.625953,0.001046\H,0,-1.39182,1
 .142632,-0.148631\H,0,-0.208632,-1.698547,0.07015\H,0,0.694928,-0.1421
 82,0.100233\\Version=ES64L-G09RevD.01\State=1-A\HF=-155.6958656\MP2=-1
 55.9222903\RMSD=4.117e-09\PG=C01 [X(C4H6)]\\@

 Normal termination of Gaussian 09 at Wed Aug 26 08:46:24 2020.
