 Gaussian 09, Revision D.01,
 Gaussian 09:  ES64L-G09RevD.01 24-Apr-2013

 --------------------
 #p B2PLYPD3/Def2QZVP
 --------------------

 ---------
 butadiene
 ---------
 Symbolic Z-matrix:
 Charge =  0 Multiplicity = 1

                         Standard orientation:
 ---------------------------------------------------------------------
 Center     Atomic      Atomic             Coordinates (Angstroms)
 Number     Number       Type             X           Y           Z
 ---------------------------------------------------------------------
      1          6           0        1.851344   -0.098046    0.007059
      2          6           0        0.616776    0.387748   -0.006354
      3          6           0       -0.628897   -0.409835   -0.049070
      4          6           0       -1.845444    0.126294    0.018425
      5          1           0        2.770514    0.479450    0.121072
      6          1           0        1.959194   -1.190816    0.016150
      7          1           0        0.481036    1.499697   -0.080131
      8          1           0       -0.474349   -1.478164   -0.018008
      9          1           0       -1.996182    1.206840    0.009604
     10          1           0       -2.702885   -0.553978    0.130951
 ---------------------------------------------------------------------

 SCF Done:  E(RB2PLYPD3) =  -155.696503184     A.U. after   11 cycles
 E2(B2PLYPD3) =    -0.2260531815D+00 E(B2PLYPD3) =    -0.15592255636531D+03

 The electronic state is 1-A.
 Alpha  occ. eigenvalues --  -10.62947 -10.62762 -10.61948 -10.61666  -0.92673
 Alpha  occ. eigenvalues --   -0.85066  -0.69588  -0.63601  -0.54382  -0.53572
 Alpha  occ. eigenvalues --   -0.47169  -0.45107  -0.40494  -0.37857  -0.28049
 Alpha virt. eigenvalues --    0.01915   0.06985   0.07300   0.07989   0.09460
 Alpha virt. eigenvalues --    0.11634   0.12380   0.14442   0.15553   0.16205
 Alpha virt. eigenvalues --    0.18829   0.20040   0.21619   0.22946   0.23613

 Mulliken charges:
               1
     1  C   -0.171496
     2  C   -0.023204
     3  C   -0.038706
     4  C   -0.171803
     5  H    0.090401
     6  H    0.053575
     7  H    0.045555
     8  H    0.056113
     9  H    0.073723
    10  H    0.085842
 Sum of Mulliken charges =   0.00000

 Dipole moment (field-independent basis, Debye):
    X=             -0.0238    Y=             -0.0177    Z=              0.1313  Tot=              0.1346
 Quadrupole moment (field-independent basis, Debye-Ang):
   XX=            -23.4816   YY=            -23.2245   ZZ=            -29.3205
   XY=             -0.0538   XZ=             -0.0567   YZ=             -0.1200

 1\1\GINC-NODE19\SP\RB2PLYPD3-FC\def2QZVP\C4H6\BOITTIER\26-Aug-2020\0\\
 #p B2PLYPD3/Def2QZVP\\butadiene\\0,1\C,0,-3.85848,0.206994,0.029794\C,
 0,-2.728215,-0.487868,0.028158\C,0,-1.362083,0.078004,-0.027862\C,0,-0
 .258254,-0.661661,0.052345\H,0,-4.864468,-0.198081,0.153392\H,0,-3.773
 078,1.301714,0.017308\H,0,-2.789626,-1.607621,-0.023603\H,0,-1.326905,
 1.157282,-0.01799\H,0,-0.299289,-1.751861,0.064941\H,0,0.705345,-0.140
 163,0.153118\\Version=ES64L-G09RevD.01\State=1-A\HF=-155.6965032\MP2=-
 155.9225564\RMSD=5.734e-09\PG=C01 [X(C4H6)]\\@

 Normal termination of Gaussian 09 at Wed Aug 26 08:43:38 2020.
