 Gaussian 09, Revision D.01,
 Gaussian 09:  ES64L-G09RevD.01 24-Apr-2013

 --------------------
 #p B2PLYPD3/Def2QZVP
 --------------------

 ---------
 butadiene
 ---------
 Symbolic Z-matrix:
 Charge =  0 Multiplicity = 1

                         Standard orientation:
 ---------------------------------------------------------------------
 Center     Atomic      Atomic             Coordinates (Angstroms)
 Number     Number       Type             X           Y           Z
 ---------------------------------------------------------------------
      1          6           0       -1.846423    0.075762   -0.066184
      2          6           0       -0.618625   -0.317778    0.124901
      3          6           0        0.605522    0.411398    0.038383
      4          6           0        1.859982   -0.133090   -0.032268
      5          1           0       -2.534659   -0.686750   -0.092991
      6          1           0       -2.089780    1.188030   -0.056783
      7          1           0       -0.513977   -1.445787   -0.072335
      8          1           0        0.469174    1.499646    0.014509
      9          1           0        1.886033   -1.223985   -0.063759
     10          1           0        2.780471    0.451095   -0.117629
 ---------------------------------------------------------------------

 SCF Done:  E(RB2PLYPD3) =  -155.679944823     A.U. after   11 cycles
 E2(B2PLYPD3) =    -0.2271980933D+00 E(B2PLYPD3) =    -0.15590714291648D+03

 The electronic state is 1-A.
 Alpha  occ. eigenvalues --  -10.63100 -10.62518 -10.62270 -10.61329  -0.93399
 Alpha  occ. eigenvalues --   -0.85263  -0.70775  -0.62506  -0.55022  -0.53651
 Alpha  occ. eigenvalues --   -0.47071  -0.45112  -0.40161  -0.38262  -0.27772
 Alpha virt. eigenvalues --    0.01120   0.07002   0.07229   0.07918   0.09735
 Alpha virt. eigenvalues --    0.11599   0.12197   0.14532   0.15290   0.16260
 Alpha virt. eigenvalues --    0.18722   0.19228   0.21239   0.22984   0.24527

 Mulliken charges:
               1
     1  C   -0.170906
     2  C   -0.003107
     3  C   -0.038873
     4  C   -0.176025
     5  H    0.092125
     6  H    0.064959
     7  H    0.025705
     8  H    0.043445
     9  H    0.066425
    10  H    0.096252
 Sum of Mulliken charges =   0.00000

 Dipole moment (field-independent basis, Debye):
    X=             -0.0277    Y=              0.0430    Z=             -0.2437  Tot=              0.2490
 Quadrupole moment (field-independent basis, Debye-Ang):
   XX=            -23.5766   YY=            -23.3859   ZZ=            -29.2818
   XY=              0.2128   XZ=             -0.0211   YZ=              0.1978

 1\1\GINC-NODE40\SP\RB2PLYPD3-FC\def2QZVP\C4H6\BOITTIER\26-Aug-2020\0\\
 #p B2PLYPD3/Def2QZVP\\butadiene\\0,1\C,0,-3.856212,0.185368,-0.050635\
 C,0,-2.718319,-0.420426,0.141948\C,0,-1.383775,0.078869,0.055827\C,0,-
 0.246354,-0.680502,-0.013154\H,0,-4.669279,-0.442344,-0.077321\H,0,-3.
 8975,1.323208,-0.042541\H,0,-2.81619,-1.549252,-0.054091\H,0,-1.324022
 ,1.17397,0.030767\H,0,-0.415071,-1.758617,-0.043555\H,0,0.763555,-0.26
 9771,-0.098251\\Version=ES64L-G09RevD.01\State=1-A\HF=-155.6799448\MP2
 =-155.9071429\RMSD=9.474e-09\PG=C01 [X(C4H6)]\\@

 Normal termination of Gaussian 09 at Wed Aug 26 15:13:38 2020.
