 Gaussian 09, Revision D.01,
 Gaussian 09:  ES64L-G09RevD.01 24-Apr-2013

 --------------------
 #p B2PLYPD3/Def2QZVP
 --------------------

 ---------
 butadiene
 ---------
 Symbolic Z-matrix:
 Charge =  0 Multiplicity = 1

                         Standard orientation:
 ---------------------------------------------------------------------
 Center     Atomic      Atomic             Coordinates (Angstroms)
 Number     Number       Type             X           Y           Z
 ---------------------------------------------------------------------
      1          6           0       -1.829709    0.089266    0.025117
      2          6           0       -0.607977   -0.382730   -0.010979
      3          6           0        0.596283    0.439093   -0.045554
      4          6           0        1.834798   -0.130771    0.004371
      5          1           0       -2.651700   -0.611548   -0.065160
      6          1           0       -2.035366    1.171836    0.148060
      7          1           0       -0.452031   -1.438831   -0.102037
      8          1           0        0.461536    1.502290   -0.032287
      9          1           0        2.037536   -1.218712    0.194239
     10          1           0        2.679654    0.505818    0.019456
 ---------------------------------------------------------------------

 SCF Done:  E(RB2PLYPD3) =  -155.694332425     A.U. after   11 cycles
 E2(B2PLYPD3) =    -0.2260507168D+00 E(B2PLYPD3) =    -0.15592038314197D+03

 The electronic state is 1-A.
 Alpha  occ. eigenvalues --  -10.62907 -10.62105 -10.61784 -10.61261  -0.92979
 Alpha  occ. eigenvalues --   -0.84746  -0.69948  -0.64078  -0.54397  -0.53723
 Alpha  occ. eigenvalues --   -0.46598  -0.45638  -0.41112  -0.37943  -0.27580
 Alpha virt. eigenvalues --    0.01678   0.07028   0.07304   0.08104   0.09398
 Alpha virt. eigenvalues --    0.11691   0.12222   0.14889   0.15685   0.16146
 Alpha virt. eigenvalues --    0.18746   0.20358   0.21279   0.22831   0.23935

 Mulliken charges:
               1
     1  C   -0.179965
     2  C   -0.017215
     3  C   -0.052379
     4  C   -0.173073
     5  H    0.083953
     6  H    0.065552
     7  H    0.058788
     8  H    0.062852
     9  H    0.069530
    10  H    0.081957
 Sum of Mulliken charges =   0.00000

 Dipole moment (field-independent basis, Debye):
    X=              0.0243    Y=              0.0156    Z=              0.1211  Tot=              0.1245
 Quadrupole moment (field-independent basis, Debye-Ang):
   XX=            -23.9063   YY=            -22.9004   ZZ=            -29.2485
   XY=             -0.2300   XZ=              0.4291   YZ=              0.0878

 1\1\GINC-NODE16\SP\RB2PLYPD3-FC\def2QZVP\C4H6\BOITTIER\26-Aug-2020\0\\
 #p B2PLYPD3/Def2QZVP\\butadiene\\0,1\C,0,-3.833729,0.209194,0.040854\C
 ,0,-2.719865,-0.480513,0.022893\C,0,-1.384793,0.104286,-0.026332\C,0,-
 0.272492,-0.682456,0.044257\H,0,-4.770741,-0.33033,-0.035851\H,0,-3.83
 6447,1.313924,0.135357\H,0,-2.761141,-1.549259,-0.040657\H,0,-1.321347
 ,1.174095,-0.040619\H,0,-0.273736,-1.783864,0.262582\H,0,0.675184,-0.2
 12186,0.047535\\Version=ES64L-G09RevD.01\State=1-A\HF=-155.6943324\MP2
 =-155.9203831\RMSD=7.200e-09\PG=C01 [X(C4H6)]\\@

 Normal termination of Gaussian 09 at Wed Aug 26 10:58:22 2020.
