 Gaussian 09, Revision D.01,
 Gaussian 09:  ES64L-G09RevD.01 24-Apr-2013

 --------------------
 #p B2PLYPD3/Def2QZVP
 --------------------

 ---------
 butadiene
 ---------
 Symbolic Z-matrix:
 Charge =  0 Multiplicity = 1

                         Standard orientation:
 ---------------------------------------------------------------------
 Center     Atomic      Atomic             Coordinates (Angstroms)
 Number     Number       Type             X           Y           Z
 ---------------------------------------------------------------------
      1          6           0       -1.836565    0.112290   -0.002605
      2          6           0       -0.605319   -0.405551   -0.018890
      3          6           0        0.609649    0.390127   -0.024055
      4          6           0        1.831073   -0.110891    0.011600
      5          1           0       -2.723158   -0.499025    0.084586
      6          1           0       -2.003867    1.189376    0.020927
      7          1           0       -0.497610   -1.469720    0.009521
      8          1           0        0.512751    1.482212    0.039088
      9          1           0        2.037088   -1.160179    0.019777
     10          1           0        2.681768    0.541487    0.029801
 ---------------------------------------------------------------------

 SCF Done:  E(RB2PLYPD3) =  -155.700723187     A.U. after   11 cycles
 E2(B2PLYPD3) =    -0.2252431397D+00 E(B2PLYPD3) =    -0.15592596632646D+03

 The electronic state is 1-A.
 Alpha  occ. eigenvalues --  -10.62414 -10.62354 -10.61547 -10.60992  -0.93111
 Alpha  occ. eigenvalues --   -0.85169  -0.70175  -0.64139  -0.54691  -0.54258
 Alpha  occ. eigenvalues --   -0.46723  -0.45476  -0.41124  -0.38223  -0.27815
 Alpha virt. eigenvalues --    0.01883   0.07018   0.07468   0.08035   0.09690
 Alpha virt. eigenvalues --    0.11668   0.12470   0.14772   0.15813   0.16315
 Alpha virt. eigenvalues --    0.18832   0.20302   0.21874   0.22782   0.23860

 Mulliken charges:
               1
     1  C   -0.170141
     2  C   -0.038153
     3  C   -0.023921
     4  C   -0.175157
     5  H    0.083405
     6  H    0.062960
     7  H    0.058783
     8  H    0.052979
     9  H    0.066394
    10  H    0.082850
 Sum of Mulliken charges =   0.00000

 Dipole moment (field-independent basis, Debye):
    X=              0.0198    Y=             -0.0220    Z=              0.1556  Tot=              0.1584
 Quadrupole moment (field-independent basis, Debye-Ang):
   XX=            -23.4163   YY=            -23.0906   ZZ=            -29.1819
   XY=             -0.1312   XZ=             -0.1584   YZ=              0.0098

 1\1\GINC-NODE04\SP\RB2PLYPD3-FC\def2QZVP\C4H6\BOITTIER\26-Aug-2020\0\\
 #p B2PLYPD3/Def2QZVP\\butadiene\\0,1\C,0,-3.838556,0.225326,0.022216\C
 ,0,-2.719843,-0.504653,0.020545\C,0,-1.382205,0.060435,-0.005535\C,0,-
 0.269921,-0.649855,0.044256\H,0,-4.819788,-0.214988,0.125469\H,0,-3.81
 0446,1.315205,0.016532\H,0,-2.804048,-1.569781,0.077774\H,0,-1.281972,
 1.153529,0.028007\H,0,-0.254833,-1.718473,0.080904\H,0,0.683794,-0.159
 921,0.045228\\Version=ES64L-G09RevD.01\State=1-A\HF=-155.7007232\MP2=-
 155.9259663\RMSD=4.640e-09\PG=C01 [X(C4H6)]\\@

 Normal termination of Gaussian 09 at Wed Aug 26 19:03:55 2020.
