 Gaussian 09, Revision D.01,
 Gaussian 09:  ES64L-G09RevD.01 24-Apr-2013

 --------------------
 #p B2PLYPD3/Def2QZVP
 --------------------

 ---------
 butadiene
 ---------
 Symbolic Z-matrix:
 Charge =  0 Multiplicity = 1

                         Standard orientation:
 ---------------------------------------------------------------------
 Center     Atomic      Atomic             Coordinates (Angstroms)
 Number     Number       Type             X           Y           Z
 ---------------------------------------------------------------------
      1          6           0       -1.827321   -0.120398   -0.000965
      2          6           0       -0.600807    0.421131   -0.035942
      3          6           0        0.579786   -0.379493   -0.024257
      4          6           0        1.829731    0.093279    0.009552
      5          1           0       -2.732162    0.492841    0.157372
      6          1           0       -1.918478   -1.194936   -0.001913
      7          1           0       -0.369235    1.518676    0.011065
      8          1           0        0.436140   -1.456023    0.041285
      9          1           0        2.032802    1.153755    0.030919
     10          1           0        2.662602   -0.601421    0.070943
 ---------------------------------------------------------------------

 SCF Done:  E(RB2PLYPD3) =  -155.696567032     A.U. after   11 cycles
 E2(B2PLYPD3) =    -0.2264797214D+00 E(B2PLYPD3) =    -0.15592304675306D+03

 The electronic state is 1-A.
 Alpha  occ. eigenvalues --  -10.62862 -10.62157 -10.61991 -10.61467  -0.93421
 Alpha  occ. eigenvalues --   -0.84684  -0.70265  -0.63793  -0.54372  -0.53787
 Alpha  occ. eigenvalues --   -0.46464  -0.45656  -0.41094  -0.38413  -0.27442
 Alpha virt. eigenvalues --    0.01456   0.07028   0.07206   0.08042   0.09640
 Alpha virt. eigenvalues --    0.11783   0.12384   0.14800   0.15741   0.15940
 Alpha virt. eigenvalues --    0.18618   0.20285   0.21625   0.22741   0.24133

 Mulliken charges:
               1
     1  C   -0.174134
     2  C   -0.027688
     3  C   -0.013032
     4  C   -0.186258
     5  H    0.087174
     6  H    0.068390
     7  H    0.048107
     8  H    0.046718
     9  H    0.064969
    10  H    0.085753
 Sum of Mulliken charges =   0.00000

 Dipole moment (field-independent basis, Debye):
    X=             -0.0060    Y=             -0.0229    Z=              0.2410  Tot=              0.2422
 Quadrupole moment (field-independent basis, Debye-Ang):
   XX=            -23.7793   YY=            -23.1357   ZZ=            -29.2864
   XY=              0.2553   XZ=             -0.2031   YZ=              0.0541

 1\1\GINC-NODE34\SP\RB2PLYPD3-FC\def2QZVP\C4H6\BOITTIER\26-Aug-2020\0\\
 #p B2PLYPD3/Def2QZVP\\butadiene\\0,1\C,0,-3.822654,0.243883,0.009934\C
 ,0,-2.71818,-0.515029,0.064734\C,0,-1.409312,0.051403,0.033823\C,0,-0.
 269172,-0.646341,0.017951\H,0,-4.826085,-0.194742,-0.133607\H,0,-3.712
 378,1.316194,-0.020579\H,0,-2.694865,-1.637388,0.050349\H,0,-1.350378,
 1.133495,-0.063387\H,0,-0.266913,-1.726247,0.028024\H,0,0.678238,-0.12
 0725,-0.060746\\Version=ES64L-G09RevD.01\State=1-A\HF=-155.696567\MP2=
 -155.9230468\RMSD=4.980e-09\PG=C01 [X(C4H6)]\\@

 Normal termination of Gaussian 09 at Wed Aug 26 09:05:16 2020.
