 Gaussian 09, Revision D.01,
 Gaussian 09:  ES64L-G09RevD.01 24-Apr-2013

 --------------------
 #p B2PLYPD3/Def2QZVP
 --------------------

 ---------
 butadiene
 ---------
 Symbolic Z-matrix:
 Charge =  0 Multiplicity = 1

                         Standard orientation:
 ---------------------------------------------------------------------
 Center     Atomic      Atomic             Coordinates (Angstroms)
 Number     Number       Type             X           Y           Z
 ---------------------------------------------------------------------
      1          6           0        1.834147   -0.115139    0.023625
      2          6           0        0.601777    0.408934   -0.019921
      3          6           0       -0.605951   -0.395958   -0.025914
      4          6           0       -1.841141    0.099695    0.018558
      5          1           0        2.721464    0.518148   -0.018451
      6          1           0        1.993107   -1.200525    0.054576
      7          1           0        0.459409    1.478006   -0.029824
      8          1           0       -0.450468   -1.457195   -0.049781
      9          1           0       -1.938344    1.202866    0.042548
     10          1           0       -2.718163   -0.526490    0.022842
 ---------------------------------------------------------------------

 SCF Done:  E(RB2PLYPD3) =  -155.700045345     A.U. after   11 cycles
 E2(B2PLYPD3) =    -0.2259078891D+00 E(B2PLYPD3) =    -0.15592595323442D+03

 The electronic state is 1-A.
 Alpha  occ. eigenvalues --  -10.62534 -10.62212 -10.61886 -10.61664  -0.93084
 Alpha  occ. eigenvalues --   -0.84804  -0.69944  -0.64161  -0.54662  -0.53601
 Alpha  occ. eigenvalues --   -0.46872  -0.45322  -0.41192  -0.38147  -0.27676
 Alpha virt. eigenvalues --    0.01727   0.07007   0.07355   0.08089   0.09607
 Alpha virt. eigenvalues --    0.11710   0.12414   0.14576   0.15880   0.16037
 Alpha virt. eigenvalues --    0.18711   0.20507   0.21364   0.22878   0.23904

 Mulliken charges:
               1
     1  C   -0.175646
     2  C   -0.031846
     3  C   -0.024826
     4  C   -0.177607
     5  H    0.085328
     6  H    0.065451
     7  H    0.054291
     8  H    0.052687
     9  H    0.060129
    10  H    0.092039
 Sum of Mulliken charges =   0.00000

 Dipole moment (field-independent basis, Debye):
    X=              0.0201    Y=             -0.0266    Z=             -0.0117  Tot=              0.0353
 Quadrupole moment (field-independent basis, Debye-Ang):
   XX=            -23.5739   YY=            -23.1187   ZZ=            -29.3057
   XY=             -0.0024   XZ=             -0.0957   YZ=             -0.0256

 1\1\GINC-NODE07\SP\RB2PLYPD3-FC\def2QZVP\C4H6\BOITTIER\26-Aug-2020\0\\
 #p B2PLYPD3/Def2QZVP\\butadiene\\0,1\C,0,-3.83659,0.229505,0.040719\C,
 0,-2.719094,-0.509293,0.014918\C,0,-1.386001,0.064039,-0.010535\C,0,-0
 .260378,-0.644866,0.05086\H,0,-4.823697,-0.234248,0.01413\H,0,-3.79706
 4,1.326194,0.040936\H,0,-2.771942,-1.586361,0.035243\H,0,-1.347553,1.1
 34826,-0.064431\H,0,-0.363714,-1.746366,0.105904\H,0,0.715225,-0.18729
 4,0.039845\\Version=ES64L-G09RevD.01\State=1-A\HF=-155.7000453\MP2=-15
 5.9259532\RMSD=4.863e-09\PG=C01 [X(C4H6)]\\@

 Normal termination of Gaussian 09 at Wed Aug 26 20:50:46 2020.
