 Gaussian 09, Revision D.01,
 Gaussian 09:  ES64L-G09RevD.01 24-Apr-2013

 --------------------
 #p B2PLYPD3/Def2QZVP
 --------------------

 ---------
 butadiene
 ---------
 Symbolic Z-matrix:
 Charge =  0 Multiplicity = 1

                         Standard orientation:
 ---------------------------------------------------------------------
 Center     Atomic      Atomic             Coordinates (Angstroms)
 Number     Number       Type             X           Y           Z
 ---------------------------------------------------------------------
      1          6           0        1.818640   -0.105305    0.017388
      2          6           0        0.587032    0.384381   -0.053879
      3          6           0       -0.599617   -0.405685   -0.026677
      4          6           0       -1.817544    0.107510    0.000807
      5          1           0        2.684976    0.542561    0.109596
      6          1           0        2.051999   -1.119977    0.019461
      7          1           0        0.459581    1.430392    0.048651
      8          1           0       -0.483012   -1.469756    0.023692
      9          1           0       -1.921620    1.215094    0.047637
     10          1           0       -2.722988   -0.483727    0.125127
 ---------------------------------------------------------------------

 SCF Done:  E(RB2PLYPD3) =  -155.697017746     A.U. after   11 cycles
 E2(B2PLYPD3) =    -0.2251590868D+00 E(B2PLYPD3) =    -0.15592217683294D+03

 The electronic state is 1-A.
 Alpha  occ. eigenvalues --  -10.61911 -10.61827 -10.61609 -10.60942  -0.93764
 Alpha  occ. eigenvalues --   -0.85165  -0.70426  -0.64637  -0.55138  -0.54071
 Alpha  occ. eigenvalues --   -0.46950  -0.45230  -0.41284  -0.38589  -0.27708
 Alpha virt. eigenvalues --    0.01790   0.07033   0.07503   0.08085   0.09765
 Alpha virt. eigenvalues --    0.11744   0.12588   0.14824   0.15712   0.16367
 Alpha virt. eigenvalues --    0.18719   0.20127   0.22033   0.23015   0.23883

 Mulliken charges:
               1
     1  C   -0.176113
     2  C   -0.023818
     3  C   -0.030403
     4  C   -0.167276
     5  H    0.076711
     6  H    0.067924
     7  H    0.058795
     8  H    0.054705
     9  H    0.054760
    10  H    0.084713
 Sum of Mulliken charges =   0.00000

 Dipole moment (field-independent basis, Debye):
    X=              0.0365    Y=             -0.0583    Z=              0.2824  Tot=              0.2907
 Quadrupole moment (field-independent basis, Debye-Ang):
   XX=            -23.4632   YY=            -23.2142   ZZ=            -29.0424
   XY=             -0.1326   XZ=             -0.0897   YZ=              0.0756

 1\1\GINC-NODE06\SP\RB2PLYPD3-FC\def2QZVP\C4H6\BOITTIER\26-Aug-2020\0\\
 #p B2PLYPD3/Def2QZVP\\butadiene\\0,1\C,0,-3.822585,0.219878,0.040837\C
 ,0,-2.701482,-0.488921,-0.008764\C,0,-1.39036,0.071472,-0.008095\C,0,-
 0.286581,-0.654234,0.041831\H,0,-4.792299,-0.254876,0.155002\H,0,-3.86
 6634,1.259465,0.004228\H,0,-2.766837,-1.536036,0.13327\H,0,-1.31039,1.
 140062,0.002013\H,0,-0.386404,-1.759651,0.130454\H,0,0.712161,-0.23417
 ,0.146269\\Version=ES64L-G09RevD.01\State=1-A\HF=-155.6970177\MP2=-155
 .9221768\RMSD=5.637e-09\PG=C01 [X(C4H6)]\\@

 Normal termination of Gaussian 09 at Wed Aug 26 10:08:18 2020.
