 Gaussian 09, Revision D.01,
 Gaussian 09:  ES64L-G09RevD.01 24-Apr-2013

 --------------------
 #p B2PLYPD3/Def2QZVP
 --------------------

 ---------
 butadiene
 ---------
 Symbolic Z-matrix:
 Charge =  0 Multiplicity = 1

                         Standard orientation:
 ---------------------------------------------------------------------
 Center     Atomic      Atomic             Coordinates (Angstroms)
 Number     Number       Type             X           Y           Z
 ---------------------------------------------------------------------
      1          6           0       -1.846403    0.117971    0.004567
      2          6           0       -0.614247   -0.414105   -0.017993
      3          6           0        0.600951    0.379669   -0.031953
      4          6           0        1.850918   -0.094928    0.020922
      5          1           0       -2.767291   -0.502915    0.112848
      6          1           0       -1.980590    1.193056    0.029915
      7          1           0       -0.456045   -1.479351   -0.045793
      8          1           0        0.473913    1.485398   -0.036603
      9          1           0        2.056987   -1.151349    0.000457
     10          1           0        2.725715    0.523520    0.085922
 ---------------------------------------------------------------------

 SCF Done:  E(RB2PLYPD3) =  -155.698548868     A.U. after   11 cycles
 E2(B2PLYPD3) =    -0.2261983947D+00 E(B2PLYPD3) =    -0.15592474726223D+03

 The electronic state is 1-A.
 Alpha  occ. eigenvalues --  -10.62876 -10.62759 -10.62179 -10.61443  -0.92868
 Alpha  occ. eigenvalues --   -0.84740  -0.70281  -0.63962  -0.54588  -0.53658
 Alpha  occ. eigenvalues --   -0.47023  -0.45224  -0.40955  -0.38053  -0.27646
 Alpha virt. eigenvalues --    0.01483   0.06960   0.07409   0.07998   0.09592
 Alpha virt. eigenvalues --    0.11594   0.12496   0.14609   0.15852   0.16140
 Alpha virt. eigenvalues --    0.18878   0.20486   0.21745   0.22681   0.23529

 Mulliken charges:
               1
     1  C   -0.168513
     2  C   -0.037057
     3  C   -0.022076
     4  C   -0.176462
     5  H    0.083847
     6  H    0.067317
     7  H    0.059068
     8  H    0.046908
     9  H    0.060261
    10  H    0.086707
 Sum of Mulliken charges =   0.00000

 Dipole moment (field-independent basis, Debye):
    X=              0.0086    Y=             -0.0202    Z=              0.1002  Tot=              0.1026
 Quadrupole moment (field-independent basis, Debye-Ang):
   XX=            -23.2515   YY=            -23.2790   ZZ=            -29.3277
   XY=             -0.2130   XZ=             -0.1350   YZ=              0.0462

 1\1\GINC-NODE35\SP\RB2PLYPD3-FC\def2QZVP\C4H6\BOITTIER\26-Aug-2020\0\\
 #p B2PLYPD3/Def2QZVP\\butadiene\\0,1\C,0,-3.845685,0.234448,0.027989\C
 ,0,-2.729496,-0.51112,0.01934\C,0,-1.391353,0.050365,-0.013574\C,0,-0.
 247007,-0.640039,0.051775\H,0,-4.862846,-0.207694,0.151084\H,0,-3.7841
 07,1.316419,0.026613\H,0,-2.765691,-1.587799,0.018036\H,0,-1.317344,1.
 16045,-0.045694\H,0,-0.234499,-1.716477,0.057613\H,0,0.725051,-0.18775
 6,0.101942\\Version=ES64L-G09RevD.01\State=1-A\HF=-155.6985489\MP2=-15
 5.9247473\RMSD=5.238e-09\PG=C01 [X(C4H6)]\\@

 Normal termination of Gaussian 09 at Wed Aug 26 21:05:20 2020.
