 Gaussian 09, Revision D.01,
 Gaussian 09:  ES64L-G09RevD.01 24-Apr-2013

 --------------------
 #p B2PLYPD3/Def2QZVP
 --------------------

 ---------
 butadiene
 ---------
 Symbolic Z-matrix:
 Charge =  0 Multiplicity = 1

                         Standard orientation:
 ---------------------------------------------------------------------
 Center     Atomic      Atomic             Coordinates (Angstroms)
 Number     Number       Type             X           Y           Z
 ---------------------------------------------------------------------
      1          6           0        1.829685    0.105385    0.026521
      2          6           0        0.597311   -0.380489   -0.037789
      3          6           0       -0.594918    0.413908   -0.019227
      4          6           0       -1.825302   -0.123833    0.038167
      5          1           0        2.642414   -0.566198    0.127253
      6          1           0        2.041244    1.159217   -0.053249
      7          1           0        0.519502   -1.487761   -0.085862
      8          1           0       -0.522478    1.495281   -0.031476
      9          1           0       -1.975460   -1.147006   -0.017086
     10          1           0       -2.745876    0.456643    0.014389
 ---------------------------------------------------------------------

 SCF Done:  E(RB2PLYPD3) =  -155.696400400     A.U. after   11 cycles
 E2(B2PLYPD3) =    -0.2255865035D+00 E(B2PLYPD3) =    -0.15592198690395D+03

 The electronic state is 1-A.
 Alpha  occ. eigenvalues --  -10.62566 -10.62427 -10.61111 -10.60953  -0.93301
 Alpha  occ. eigenvalues --   -0.85107  -0.70564  -0.64113  -0.54912  -0.54360
 Alpha  occ. eigenvalues --   -0.46406  -0.45554  -0.41719  -0.38166  -0.27463
 Alpha virt. eigenvalues --    0.01613   0.07042   0.07450   0.07987   0.09676
 Alpha virt. eigenvalues --    0.11678   0.12553   0.14825   0.15887   0.16454
 Alpha virt. eigenvalues --    0.18738   0.20216   0.21976   0.22667   0.24092

 Mulliken charges:
               1
     1  C   -0.179517
     2  C   -0.023856
     3  C   -0.034510
     4  C   -0.169886
     5  H    0.084961
     6  H    0.068949
     7  H    0.050608
     8  H    0.059152
     9  H    0.065997
    10  H    0.078103
 Sum of Mulliken charges =   0.00000

 Dipole moment (field-independent basis, Debye):
    X=             -0.0094    Y=             -0.0154    Z=             -0.0902  Tot=              0.0920
 Quadrupole moment (field-independent basis, Debye-Ang):
   XX=            -23.4582   YY=            -23.0687   ZZ=            -29.1564
   XY=              0.0895   XZ=              0.2430   YZ=             -0.0703

 1\1\GINC-NODE27\SP\RB2PLYPD3-FC\def2QZVP\C4H6\BOITTIER\26-Aug-2020\0\\
 #p B2PLYPD3/Def2QZVP\\butadiene\\0,1\C,0,-3.832859,0.214226,-0.009542\
 C,0,-2.70738,-0.482722,0.071173\C,0,-1.392157,0.084575,0.036757\C,0,-0
 .278064,-0.66611,-0.002898\H,0,-4.752855,-0.303271,-0.096165\H,0,-3.85
 2136,1.290585,0.043016\H,0,-2.829119,-1.584448,0.1473\H,0,-1.269707,1.
 161395,0.021601\H,0,-0.313551,-1.6979,0.078544\H,0,0.731626,-0.25948,0
 .009453\\Version=ES64L-G09RevD.01\State=1-A\HF=-155.6964004\MP2=-155.9
 219869\RMSD=6.493e-09\PG=C01 [X(C4H6)]\\@

 Normal termination of Gaussian 09 at Wed Aug 26 09:11:04 2020.
