 Gaussian 09, Revision D.01,
 Gaussian 09:  ES64L-G09RevD.01 24-Apr-2013

 --------------------
 #p B2PLYPD3/Def2QZVP
 --------------------

 ---------
 butadiene
 ---------
 Symbolic Z-matrix:
 Charge =  0 Multiplicity = 1

                         Standard orientation:
 ---------------------------------------------------------------------
 Center     Atomic      Atomic             Coordinates (Angstroms)
 Number     Number       Type             X           Y           Z
 ---------------------------------------------------------------------
      1          6           0        1.839427    0.097035    0.002901
      2          6           0        0.605534   -0.394232   -0.029480
      3          6           0       -0.605859    0.418671   -0.008840
      4          6           0       -1.824041   -0.123188    0.015195
      5          1           0        2.688922   -0.530234    0.037512
      6          1           0        1.967183    1.187571    0.095797
      7          1           0        0.437449   -1.448655   -0.015173
      8          1           0       -0.510339    1.511540   -0.050559
      9          1           0       -1.959341   -1.188405    0.061878
     10          1           0       -2.714237    0.478468   -0.008110
 ---------------------------------------------------------------------

 SCF Done:  E(RB2PLYPD3) =  -155.700192840     A.U. after   11 cycles
 E2(B2PLYPD3) =    -0.2254051241D+00 E(B2PLYPD3) =    -0.15592559796411D+03

 The electronic state is 1-A.
 Alpha  occ. eigenvalues --  -10.62607 -10.62209 -10.61295 -10.61260  -0.93066
 Alpha  occ. eigenvalues --   -0.85075  -0.70067  -0.64160  -0.54913  -0.53903
 Alpha  occ. eigenvalues --   -0.46793  -0.45545  -0.41262  -0.38126  -0.27761
 Alpha virt. eigenvalues --    0.01925   0.07065   0.07388   0.08123   0.09522
 Alpha virt. eigenvalues --    0.11727   0.12504   0.14666   0.15839   0.16214
 Alpha virt. eigenvalues --    0.18745   0.20480   0.21546   0.23057   0.23912

 Mulliken charges:
               1
     1  C   -0.175318
     2  C   -0.031305
     3  C   -0.027548
     4  C   -0.176853
     5  H    0.089963
     6  H    0.062787
     7  H    0.055428
     8  H    0.053431
     9  H    0.064463
    10  H    0.084952
 Sum of Mulliken charges =   0.00000

 Dipole moment (field-independent basis, Debye):
    X=             -0.0494    Y=             -0.0349    Z=              0.0893  Tot=              0.1078
 Quadrupole moment (field-independent basis, Debye-Ang):
   XX=            -23.5525   YY=            -23.0660   ZZ=            -29.2094
   XY=              0.0191   XZ=              0.2494   YZ=             -0.0428

 1\1\GINC-NODE14\SP\RB2PLYPD3-FC\def2QZVP\C4H6\BOITTIER\26-Aug-2020\0\\
 #p B2PLYPD3/Def2QZVP\\butadiene\\0,1\C,0,-3.84255,0.210633,0.010533\C,
 0,-2.716882,-0.493153,0.059961\C,0,-1.379242,0.08829,0.02319\C,0,-0.27
 8165,-0.663875,0.017446\H,0,-4.790893,-0.254635,-0.011297\H,0,-3.77251
 5,1.303641,-0.110494\H,0,-2.740857,-1.560636,0.073053\H,0,-1.276955,1.
 181259,0.036794\H,0,-0.336359,-1.736918,-0.001674\H,0,0.705609,-0.2313
 92,0.028776\\Version=ES64L-G09RevD.01\State=1-A\HF=-155.7001928\MP2=-1
 55.925598\RMSD=4.401e-09\PG=C01 [X(C4H6)]\\@

 Normal termination of Gaussian 09 at Wed Aug 26 19:07:24 2020.
