 Gaussian 09, Revision D.01,
 Gaussian 09:  ES64L-G09RevD.01 24-Apr-2013

 --------------------
 #p B2PLYPD3/Def2QZVP
 --------------------

 ---------
 butadiene
 ---------
 Symbolic Z-matrix:
 Charge =  0 Multiplicity = 1

                         Standard orientation:
 ---------------------------------------------------------------------
 Center     Atomic      Atomic             Coordinates (Angstroms)
 Number     Number       Type             X           Y           Z
 ---------------------------------------------------------------------
      1          6           0       -1.834099    0.098484    0.009557
      2          6           0       -0.601372   -0.397447   -0.038108
      3          6           0        0.598112    0.431299   -0.030129
      4          6           0        1.836583   -0.120874    0.019541
      5          1           0       -2.675463   -0.552725    0.111927
      6          1           0       -2.010176    1.163805    0.033162
      7          1           0       -0.465855   -1.445644   -0.023334
      8          1           0        0.457264    1.498226    0.022591
      9          1           0        1.959103   -1.207546    0.054487
     10          1           0        2.739789    0.475107    0.035999
 ---------------------------------------------------------------------

 SCF Done:  E(RB2PLYPD3) =  -155.699444707     A.U. after   11 cycles
 E2(B2PLYPD3) =    -0.2258912680D+00 E(B2PLYPD3) =    -0.15592533597539D+03

 The electronic state is 1-A.
 Alpha  occ. eigenvalues --  -10.62836 -10.62076 -10.61972 -10.61126  -0.92934
 Alpha  occ. eigenvalues --   -0.84659  -0.70057  -0.64596  -0.54544  -0.53941
 Alpha  occ. eigenvalues --   -0.46540  -0.45787  -0.41581  -0.37953  -0.27467
 Alpha virt. eigenvalues --    0.01676   0.07035   0.07423   0.08160   0.09340
 Alpha virt. eigenvalues --    0.11720   0.12493   0.14674   0.15838   0.16229
 Alpha virt. eigenvalues --    0.18749   0.20328   0.21703   0.23061   0.23985

 Mulliken charges:
               1
     1  C   -0.177299
     2  C   -0.025253
     3  C   -0.040836
     4  C   -0.175849
     5  H    0.084019
     6  H    0.064612
     7  H    0.059379
     8  H    0.060584
     9  H    0.065036
    10  H    0.085607
 Sum of Mulliken charges =   0.00000

 Dipole moment (field-independent basis, Debye):
    X=              0.0098    Y=             -0.0077    Z=              0.1700  Tot=              0.1705
 Quadrupole moment (field-independent basis, Debye-Ang):
   XX=            -23.6419   YY=            -22.9840   ZZ=            -29.2900
   XY=             -0.1474   XZ=             -0.1716   YZ=             -0.0313

 1\1\GINC-NODE13\SP\RB2PLYPD3-FC\def2QZVP\C4H6\BOITTIER\26-Aug-2020\0\\
 #p B2PLYPD3/Def2QZVP\\butadiene\\0,1\C,0,-3.837822,0.214945,0.034654\C
 ,0,-2.716106,-0.49822,0.003267\C,0,-1.385879,0.098308,-0.013964\C,0,-0
 .268247,-0.668173,0.0537\H,0,-4.783054,-0.268844,0.156841\H,0,-3.81709
 2,1.294733,0.024814\H,0,-2.773408,-1.552614,0.050907\H,0,-1.330068,1.1
 74163,0.005267\H,0,-0.345223,-1.757394,0.122698\H,0,0.728358,-0.246247
 ,0.052047\\Version=ES64L-G09RevD.01\State=1-A\HF=-155.6994447\MP2=-155
 .925336\RMSD=5.841e-09\PG=C01 [X(C4H6)]\\@

 Normal termination of Gaussian 09 at Wed Aug 26 18:41:17 2020.
