 Gaussian 09, Revision D.01,
 Gaussian 09:  ES64L-G09RevD.01 24-Apr-2013

 --------------------
 #p B2PLYPD3/Def2QZVP
 --------------------

 ---------
 butadiene
 ---------
 Symbolic Z-matrix:
 Charge =  0 Multiplicity = 1

                         Standard orientation:
 ---------------------------------------------------------------------
 Center     Atomic      Atomic             Coordinates (Angstroms)
 Number     Number       Type             X           Y           Z
 ---------------------------------------------------------------------
      1          6           0        1.842906   -0.123606   -0.014202
      2          6           0        0.617698    0.414445    0.026604
      3          6           0       -0.609623   -0.389106    0.002561
      4          6           0       -1.845610    0.103407   -0.020478
      5          1           0        2.704975    0.495114    0.009706
      6          1           0        1.940879   -1.220452   -0.056064
      7          1           0        0.520845    1.520535    0.008026
      8          1           0       -0.472313   -1.459897    0.059690
      9          1           0       -2.012534    1.170174   -0.029303
     10          1           0       -2.714080   -0.536315    0.041036
 ---------------------------------------------------------------------

 SCF Done:  E(RB2PLYPD3) =  -155.699786874     A.U. after   11 cycles
 E2(B2PLYPD3) =    -0.2257887796D+00 E(B2PLYPD3) =    -0.15592557565363D+03

 The electronic state is 1-A.
 Alpha  occ. eigenvalues --  -10.62911 -10.62517 -10.61589 -10.61370  -0.92760
 Alpha  occ. eigenvalues --   -0.85030  -0.69925  -0.63754  -0.54654  -0.53873
 Alpha  occ. eigenvalues --   -0.46691  -0.45488  -0.41108  -0.37961  -0.27804
 Alpha virt. eigenvalues --    0.01825   0.07038   0.07352   0.08040   0.09534
 Alpha virt. eigenvalues --    0.11682   0.12414   0.14574   0.15754   0.16201
 Alpha virt. eigenvalues --    0.18800   0.20398   0.21457   0.22830   0.23974

 Mulliken charges:
               1
     1  C   -0.176292
     2  C   -0.032605
     3  C   -0.028253
     4  C   -0.175460
     5  H    0.091794
     6  H    0.064614
     7  H    0.050275
     8  H    0.053883
     9  H    0.065552
    10  H    0.086492
 Sum of Mulliken charges =   0.00000

 Dipole moment (field-independent basis, Debye):
    X=              0.0171    Y=              0.0137    Z=              0.0493  Tot=              0.0540
 Quadrupole moment (field-independent basis, Debye-Ang):
   XX=            -23.5270   YY=            -23.0685   ZZ=            -29.3115
   XY=              0.0352   XZ=             -0.1961   YZ=             -0.0626

 1\1\GINC-NODE18\SP\RB2PLYPD3-FC\def2QZVP\C4H6\BOITTIER\26-Aug-2020\0\\
 #p B2PLYPD3/Def2QZVP\\butadiene\\0,1\C,0,-3.843611,0.231325,0.002658\C
 ,0,-2.732363,-0.513011,0.060889\C,0,-1.382661,0.060782,0.02023\C,0,-0.
 252869,-0.642274,0.013514\H,0,-4.801203,-0.224966,0.039613\H,0,-3.7467
 82,1.326837,-0.067345\H,0,-2.832011,-1.618965,0.070703\H,0,-1.329003,1
 .140116,0.049726\H,0,-0.276598,-1.721634,0.032296\H,0,0.714849,-0.1642
 63,0.061439\\Version=ES64L-G09RevD.01\State=1-A\HF=-155.6997869\MP2=-1
 55.9255757\RMSD=4.441e-09\PG=C01 [X(C4H6)]\\@

 Normal termination of Gaussian 09 at Wed Aug 26 16:36:59 2020.
