 Gaussian 09, Revision D.01,
 Gaussian 09:  ES64L-G09RevD.01 24-Apr-2013

 --------------------
 #p B2PLYPD3/Def2QZVP
 --------------------

 ---------
 butadiene
 ---------
 Symbolic Z-matrix:
 Charge =  0 Multiplicity = 1

                         Standard orientation:
 ---------------------------------------------------------------------
 Center     Atomic      Atomic             Coordinates (Angstroms)
 Number     Number       Type             X           Y           Z
 ---------------------------------------------------------------------
      1          6           0       -1.846981    0.111526    0.000938
      2          6           0       -0.611258   -0.415066   -0.024570
      3          6           0        0.604593    0.403935   -0.008059
      4          6           0        1.835983   -0.109586    0.008889
      5          1           0       -2.710747   -0.502569    0.092151
      6          1           0       -1.957948    1.184582    0.020166
      7          1           0       -0.439305   -1.476552   -0.001505
      8          1           0        0.477442    1.494411   -0.031236
      9          1           0        2.028195   -1.171114   -0.000186
     10          1           0        2.708338    0.526391    0.057419
 ---------------------------------------------------------------------

 SCF Done:  E(RB2PLYPD3) =  -155.700441411     A.U. after   11 cycles
 E2(B2PLYPD3) =    -0.2257618106D+00 E(B2PLYPD3) =    -0.15592620322115D+03

 The electronic state is 1-A.
 Alpha  occ. eigenvalues --  -10.62716 -10.62634 -10.61429 -10.61420  -0.92778
 Alpha  occ. eigenvalues --   -0.84857  -0.70147  -0.64157  -0.54738  -0.53773
 Alpha  occ. eigenvalues --   -0.46734  -0.45856  -0.41173  -0.37919  -0.27660
 Alpha virt. eigenvalues --    0.01762   0.07029   0.07391   0.08137   0.09407
 Alpha virt. eigenvalues --    0.11704   0.12490   0.14692   0.15847   0.16111
 Alpha virt. eigenvalues --    0.18789   0.20520   0.21630   0.23067   0.23818

 Mulliken charges:
               1
     1  C   -0.175815
     2  C   -0.035432
     3  C   -0.027051
     4  C   -0.177246
     5  H    0.089327
     6  H    0.066728
     7  H    0.057715
     8  H    0.052815
     9  H    0.065232
    10  H    0.083727
 Sum of Mulliken charges =   0.00000

 Dipole moment (field-independent basis, Debye):
    X=              0.0215    Y=             -0.0218    Z=              0.1062  Tot=              0.1105
 Quadrupole moment (field-independent basis, Debye-Ang):
   XX=            -23.5245   YY=            -23.0506   ZZ=            -29.2920
   XY=             -0.1910   XZ=             -0.1886   YZ=             -0.0416

 1\1\GINC-NODE06\SP\RB2PLYPD3-FC\def2QZVP\C4H6\BOITTIER\26-Aug-2020\0\\
 #p B2PLYPD3/Def2QZVP\\butadiene\\0,1\C,0,-3.846398,0.228851,0.023837\C
 ,0,-2.726156,-0.512735,0.015562\C,0,-1.382389,0.073391,0.006852\C,0,-0
 .263828,-0.653242,0.040598\H,0,-4.806325,-0.216057,0.133933\H,0,-3.761
 778,1.304377,0.009169\H,0,-2.748485,-1.586583,0.072167\H,0,-1.310763,1
 .167646,-0.050757\H,0,-0.266406,-1.731789,0.065091\H,0,0.709222,-0.184
 027,0.069489\\Version=ES64L-G09RevD.01\State=1-A\HF=-155.7004414\MP2=-
 155.9262032\RMSD=4.898e-09\PG=C01 [X(C4H6)]\\@

 Normal termination of Gaussian 09 at Wed Aug 26 22:00:51 2020.
