 Gaussian 09, Revision D.01,
 Gaussian 09:  ES64L-G09RevD.01 24-Apr-2013

 --------------------
 #p B2PLYPD3/Def2QZVP
 --------------------

 ---------
 butadiene
 ---------
 Symbolic Z-matrix:
 Charge =  0 Multiplicity = 1

                         Standard orientation:
 ---------------------------------------------------------------------
 Center     Atomic      Atomic             Coordinates (Angstroms)
 Number     Number       Type             X           Y           Z
 ---------------------------------------------------------------------
      1          6           0        1.824690   -0.113102    0.003359
      2          6           0        0.606581    0.408386   -0.017509
      3          6           0       -0.597401   -0.399901   -0.043401
      4          6           0       -1.836648    0.103109    0.018271
      5          1           0        2.701474    0.518193    0.078211
      6          1           0        2.001121   -1.195959    0.052484
      7          1           0        0.503090    1.503649   -0.005351
      8          1           0       -0.456970   -1.478232    0.019455
      9          1           0       -2.020249    1.170948    0.020884
     10          1           0       -2.711790   -0.509549    0.069996
 ---------------------------------------------------------------------

 SCF Done:  E(RB2PLYPD3) =  -155.700254126     A.U. after   11 cycles
 E2(B2PLYPD3) =    -0.2257094588D+00 E(B2PLYPD3) =    -0.15592596358465D+03

 The electronic state is 1-A.
 Alpha  occ. eigenvalues --  -10.62625 -10.62515 -10.61490 -10.61426  -0.93067
 Alpha  occ. eigenvalues --   -0.84938  -0.70096  -0.63888  -0.54732  -0.53864
 Alpha  occ. eigenvalues --   -0.46676  -0.45277  -0.41108  -0.38245  -0.27712
 Alpha virt. eigenvalues --    0.01816   0.07044   0.07331   0.08038   0.09557
 Alpha virt. eigenvalues --    0.11655   0.12467   0.14703   0.15784   0.16312
 Alpha virt. eigenvalues --    0.18783   0.20276   0.21858   0.22884   0.23698

 Mulliken charges:
               1
     1  C   -0.170562
     2  C   -0.028151
     3  C   -0.031322
     4  C   -0.174602
     5  H    0.082447
     6  H    0.062861
     7  H    0.053954
     8  H    0.056352
     9  H    0.063877
    10  H    0.085145
 Sum of Mulliken charges =   0.00000

 Dipole moment (field-independent basis, Debye):
    X=              0.0006    Y=              0.0115    Z=              0.1733  Tot=              0.1737
 Quadrupole moment (field-independent basis, Debye-Ang):
   XX=            -23.4633   YY=            -23.1003   ZZ=            -29.2529
   XY=             -0.1683   XZ=              0.0566   YZ=             -0.0790

 1\1\GINC-NODE12\SP\RB2PLYPD3-FC\def2QZVP\C4H6\BOITTIER\26-Aug-2020\0\\
 #p B2PLYPD3/Def2QZVP\\butadiene\\0,1\C,0,-3.826273,0.227067,0.027971\C
 ,0,-2.722968,-0.506987,0.020461\C,0,-1.392477,0.068788,-0.022523\C,0,-
 0.264786,-0.649057,0.052086\H,0,-4.802754,-0.232914,0.116232\H,0,-3.80
 3306,1.324797,0.052095\H,0,-2.819732,-1.602296,0.057802\H,0,-1.334886,
 1.155853,0.015474\H,0,-0.277824,-1.732146,0.079351\H,0,0.707081,-0.204
 226,0.090794\\Version=ES64L-G09RevD.01\State=1-A\HF=-155.7002541\MP2=-
 155.9259636\RMSD=4.929e-09\PG=C01 [X(C4H6)]\\@

 Normal termination of Gaussian 09 at Wed Aug 26 20:45:05 2020.
