 Gaussian 09, Revision D.01,
 Gaussian 09:  ES64L-G09RevD.01 24-Apr-2013

 --------------------
 #p B2PLYPD3/Def2QZVP
 --------------------

 ---------
 butadiene
 ---------
 Symbolic Z-matrix:
 Charge =  0 Multiplicity = 1

                         Standard orientation:
 ---------------------------------------------------------------------
 Center     Atomic      Atomic             Coordinates (Angstroms)
 Number     Number       Type             X           Y           Z
 ---------------------------------------------------------------------
      1          6           0        1.846323    0.124134   -0.003135
      2          6           0        0.610617   -0.417519   -0.036530
      3          6           0       -0.612669    0.371171   -0.011059
      4          6           0       -1.842637   -0.107956    0.022256
      5          1           0        2.761196   -0.463603    0.096557
      6          1           0        1.883825    1.219513    0.049883
      7          1           0        0.498893   -1.465140    0.033415
      8          1           0       -0.471303    1.441867   -0.012677
      9          1           0       -2.010426   -1.141642    0.000637
     10          1           0       -2.671986    0.590020    0.002985
 ---------------------------------------------------------------------

 SCF Done:  E(RB2PLYPD3) =  -155.697620284     A.U. after   11 cycles
 E2(B2PLYPD3) =    -0.2256083824D+00 E(B2PLYPD3) =    -0.15592322866677D+03

 The electronic state is 1-A.
 Alpha  occ. eigenvalues --  -10.62397 -10.62138 -10.62044 -10.60904  -0.93114
 Alpha  occ. eigenvalues --   -0.85089  -0.70065  -0.64500  -0.54572  -0.54195
 Alpha  occ. eigenvalues --   -0.46698  -0.45768  -0.41300  -0.38090  -0.27741
 Alpha virt. eigenvalues --    0.01685   0.06973   0.07558   0.08071   0.09635
 Alpha virt. eigenvalues --    0.11746   0.12498   0.14661   0.15782   0.16123
 Alpha virt. eigenvalues --    0.18709   0.20374   0.21429   0.22996   0.24217

 Mulliken charges:
               1
     1  C   -0.173794
     2  C   -0.038581
     3  C   -0.017660
     4  C   -0.182911
     5  H    0.089881
     6  H    0.060473
     7  H    0.056879
     8  H    0.048156
     9  H    0.070743
    10  H    0.086815
 Sum of Mulliken charges =   0.00000

 Dipole moment (field-independent basis, Debye):
    X=              0.0000    Y=             -0.0417    Z=              0.1261  Tot=              0.1328
 Quadrupole moment (field-independent basis, Debye-Ang):
   XX=            -23.5946   YY=            -23.1216   ZZ=            -29.2187
   XY=             -0.1168   XZ=              0.4551   YZ=             -0.0603

 1\1\GINC-NODE01\SP\RB2PLYPD3-FC\def2QZVP\C4H6\BOITTIER\26-Aug-2020\0\\
 #p B2PLYPD3/Def2QZVP\\butadiene\\0,1\C,0,-3.847197,0.23384,0.011757\C,
 0,-2.725712,-0.515013,0.066214\C,0,-1.38301,0.045873,0.025374\C,0,-0.2
 56191,-0.642296,0.011407\H,0,-4.850987,-0.186864,-0.076452\H,0,-3.6919
 02,1.31691,-0.071393\H,0,-2.799534,-1.567523,0.025519\H,0,-1.334309,1.
 12439,-0.003012\H,0,-0.272389,-1.68838,0.062143\H,0,0.68276,-0.100343,
 0.015779\\Version=ES64L-G09RevD.01\State=1-A\HF=-155.6976203\MP2=-155.
 9232287\RMSD=6.860e-09\PG=C01 [X(C4H6)]\\@

 Normal termination of Gaussian 09 at Wed Aug 26 09:17:35 2020.
