 Gaussian 09, Revision D.01,
 Gaussian 09:  ES64L-G09RevD.01 24-Apr-2013

 --------------------
 #p B2PLYPD3/Def2QZVP
 --------------------

 ---------
 butadiene
 ---------
 Symbolic Z-matrix:
 Charge =  0 Multiplicity = 1

                         Standard orientation:
 ---------------------------------------------------------------------
 Center     Atomic      Atomic             Coordinates (Angstroms)
 Number     Number       Type             X           Y           Z
 ---------------------------------------------------------------------
      1          6           0        1.870198    0.115550    0.040594
      2          6           0        0.615486   -0.403683   -0.043953
      3          6           0       -0.622687    0.343030   -0.061037
      4          6           0       -1.842490   -0.096293   -0.002560
      5          1           0        2.692713   -0.508302    0.086792
      6          1           0        1.991145    1.208881    0.041939
      7          1           0        0.400548   -1.422776   -0.005709
      8          1           0       -0.490061    1.443515   -0.085257
      9          1           0       -2.112991   -1.183384    0.084842
     10          1           0       -2.604394    0.710443    0.279133
 ---------------------------------------------------------------------

 SCF Done:  E(RB2PLYPD3) =  -155.684194920     A.U. after   11 cycles
 E2(B2PLYPD3) =    -0.2262550680D+00 E(B2PLYPD3) =    -0.15591044998763D+03

 The electronic state is 1-A.
 Alpha  occ. eigenvalues --  -10.62438 -10.62121 -10.61961 -10.61943  -0.93319
 Alpha  occ. eigenvalues --   -0.85227  -0.70753  -0.63517  -0.54658  -0.53483
 Alpha  occ. eigenvalues --   -0.47060  -0.45934  -0.40092  -0.38157  -0.27933
 Alpha virt. eigenvalues --    0.01333   0.06769   0.07377   0.08033   0.09964
 Alpha virt. eigenvalues --    0.11671   0.12218   0.14845   0.15432   0.16122
 Alpha virt. eigenvalues --    0.18667   0.19771   0.21642   0.22277   0.24328

 Mulliken charges:
               1
     1  C   -0.178503
     2  C   -0.049099
     3  C    0.001405
     4  C   -0.168834
     5  H    0.096728
     6  H    0.070577
     7  H    0.054000
     8  H    0.038473
     9  H    0.059862
    10  H    0.075390
 Sum of Mulliken charges =   0.00000

 Dipole moment (field-independent basis, Debye):
    X=              0.1151    Y=             -0.0344    Z=              0.2910  Tot=              0.3149
 Quadrupole moment (field-independent basis, Debye-Ang):
   XX=            -24.0134   YY=            -23.1638   ZZ=            -29.1571
   XY=              0.2088   XZ=             -0.5675   YZ=              0.0582

 1\1\GINC-NODE33\SP\RB2PLYPD3-FC\def2QZVP\C4H6\BOITTIER\26-Aug-2020\0\\
 #p B2PLYPD3/Def2QZVP\\butadiene\\0,1\C,0,-3.867469,0.240659,-0.022729\
 C,0,-2.727238,-0.494727,0.077943\C,0,-1.373892,0.014379,0.063443\C,0,-
 0.254834,-0.641373,0.018271\H,0,-4.790049,-0.224408,-0.043095\H,0,-3.7
 87752,1.336952,-0.065027\H,0,-2.701422,-1.536622,0.077621\H,0,-1.30411
 5,1.120764,0.046453\H,0,-0.187207,-1.761994,-0.028758\H,0,0.638246,0.0
 02416,-0.29576\\Version=ES64L-G09RevD.01\State=1-A\HF=-155.6841949\MP2
 =-155.91045\RMSD=6.811e-09\PG=C01 [X(C4H6)]\\@

 Normal termination of Gaussian 09 at Wed Aug 26 12:40:32 2020.
