 Gaussian 09, Revision D.01,
 Gaussian 09:  ES64L-G09RevD.01 24-Apr-2013

 --------------------
 #p B2PLYPD3/Def2QZVP
 --------------------

 ---------
 butadiene
 ---------
 Symbolic Z-matrix:
 Charge =  0 Multiplicity = 1

                         Standard orientation:
 ---------------------------------------------------------------------
 Center     Atomic      Atomic             Coordinates (Angstroms)
 Number     Number       Type             X           Y           Z
 ---------------------------------------------------------------------
      1          6           0       -1.850833   -0.099226   -0.013962
      2          6           0       -0.599939    0.382282    0.036985
      3          6           0        0.614627   -0.409394    0.019447
      4          6           0        1.848094    0.115451   -0.026145
      5          1           0       -2.752470    0.536834   -0.053223
      6          1           0       -2.038585   -1.157114   -0.028011
      7          1           0       -0.474028    1.483696   -0.019788
      8          1           0        0.456472   -1.485435    0.009265
      9          1           0        1.996810    1.183287    0.005328
     10          1           0        2.740112   -0.495948   -0.011521
 ---------------------------------------------------------------------

 SCF Done:  E(RB2PLYPD3) =  -155.699337054     A.U. after   11 cycles
 E2(B2PLYPD3) =    -0.2262176697D+00 E(B2PLYPD3) =    -0.15592555472360D+03

 The electronic state is 1-A.
 Alpha  occ. eigenvalues --  -10.62876 -10.62802 -10.61818 -10.61741  -0.92857
 Alpha  occ. eigenvalues --   -0.84731  -0.70335  -0.63876  -0.54619  -0.53683
 Alpha  occ. eigenvalues --   -0.46858  -0.45414  -0.40906  -0.38106  -0.27629
 Alpha virt. eigenvalues --    0.01449   0.06973   0.07405   0.07998   0.09598
 Alpha virt. eigenvalues --    0.11614   0.12494   0.14637   0.15832   0.16136
 Alpha virt. eigenvalues --    0.18864   0.20422   0.21741   0.22775   0.23551

 Mulliken charges:
               1
     1  C   -0.176028
     2  C   -0.022235
     3  C   -0.035921
     4  C   -0.171237
     5  H    0.085191
     6  H    0.062255
     7  H    0.049078
     8  H    0.054955
     9  H    0.067148
    10  H    0.086794
 Sum of Mulliken charges =   0.00000

 Dipole moment (field-independent basis, Debye):
    X=              0.0198    Y=             -0.0226    Z=             -0.0470  Tot=              0.0558
 Quadrupole moment (field-independent basis, Debye-Ang):
   XX=            -23.2168   YY=            -23.2746   ZZ=            -29.3498
   XY=              0.2024   XZ=              0.2314   YZ=             -0.0329

 1\1\GINC-NODE39\SP\RB2PLYPD3-FC\def2QZVP\C4H6\BOITTIER\26-Aug-2020\0\\
 #p B2PLYPD3/Def2QZVP\\butadiene\\0,1\C,0,-3.856585,0.214933,0.037406\C
 ,0,-2.712909,-0.485036,0.00234\C,0,-1.375765,0.075501,-0.006221\C,0,-0
 .256447,-0.660814,0.056628\H,0,-4.857598,-0.247032,0.097606\H,0,-3.851
 086,1.289229,0.016598\H,0,-2.786643,-1.588711,0.095366\H,0,-1.337912,1
 .162198,-0.031492\H,0,-0.302237,-1.738436,0.060349\H,0,0.730818,-0.220
 567,0.021864\\Version=ES64L-G09RevD.01\State=1-A\HF=-155.6993371\MP2=-
 155.9255547\RMSD=4.957e-09\PG=C01 [X(C4H6)]\\@

 Normal termination of Gaussian 09 at Wed Aug 26 21:26:33 2020.
