 Gaussian 09, Revision D.01,
 Gaussian 09:  ES64L-G09RevD.01 24-Apr-2013

 --------------------
 #p B2PLYPD3/Def2QZVP
 --------------------

 ---------
 butadiene
 ---------
 Symbolic Z-matrix:
 Charge =  0 Multiplicity = 1

                         Standard orientation:
 ---------------------------------------------------------------------
 Center     Atomic      Atomic             Coordinates (Angstroms)
 Number     Number       Type             X           Y           Z
 ---------------------------------------------------------------------
      1          6           0       -1.830085   -0.101768    0.026755
      2          6           0       -0.608099    0.377078   -0.012259
      3          6           0        0.606355   -0.429766   -0.025478
      4          6           0        1.823628    0.124803    0.004800
      5          1           0       -2.620741    0.587172   -0.020639
      6          1           0       -2.005624   -1.157676    0.095383
      7          1           0       -0.513748    1.497402   -0.155911
      8          1           0        0.475661   -1.511163   -0.071996
      9          1           0        1.977323    1.217671    0.184468
     10          1           0        2.736331   -0.455486    0.005786
 ---------------------------------------------------------------------

 SCF Done:  E(RB2PLYPD3) =  -155.695566117     A.U. after   11 cycles
 E2(B2PLYPD3) =    -0.2256528816D+00 E(B2PLYPD3) =    -0.15592121899895D+03

 The electronic state is 1-A.
 Alpha  occ. eigenvalues --  -10.62824 -10.62434 -10.61954 -10.60538  -0.93054
 Alpha  occ. eigenvalues --   -0.85217  -0.69898  -0.63389  -0.54811  -0.53964
 Alpha  occ. eigenvalues --   -0.46778  -0.45041  -0.40892  -0.38123  -0.27905
 Alpha virt. eigenvalues --    0.01992   0.07067   0.07274   0.07947   0.09520
 Alpha virt. eigenvalues --    0.11675   0.12374   0.14730   0.15649   0.16272
 Alpha virt. eigenvalues --    0.18691   0.20211   0.21607   0.22632   0.24088

 Mulliken charges:
               1
     1  C   -0.185441
     2  C   -0.010018
     3  C   -0.047536
     4  C   -0.165261
     5  H    0.089228
     6  H    0.066956
     7  H    0.046692
     8  H    0.058605
     9  H    0.064682
    10  H    0.082092
 Sum of Mulliken charges =   0.00000

 Dipole moment (field-independent basis, Debye):
    X=              0.0180    Y=             -0.0414    Z=              0.0199  Tot=              0.0494
 Quadrupole moment (field-independent basis, Debye-Ang):
   XX=            -23.6713   YY=            -23.0473   ZZ=            -29.1872
   XY=              0.0702   XZ=              0.3117   YZ=             -0.0054

 1\1\GINC-NODE29\SP\RB2PLYPD3-FC\def2QZVP\C4H6\BOITTIER\26-Aug-2020\0\\
 #p B2PLYPD3/Def2QZVP\\butadiene\\0,1\C,0,-3.834328,0.209336,-0.003108\
 C,0,-2.717664,-0.479465,0.048663\C,0,-1.37827,0.096703,0.03746\C,0,-0.
 280226,-0.667681,0.022162\H,0,-4.735299,-0.325124,0.064897\H,0,-3.8183
 03,1.277235,-0.102099\H,0,-2.824646,-1.594037,0.224582\H,0,-1.312864,1
 .18489,0.052789\H,0,-0.325865,-1.775039,-0.12595\H,0,0.721635,-0.26062
 9,0.003582\\Version=ES64L-G09RevD.01\State=1-A\HF=-155.6955661\MP2=-15
 5.921219\RMSD=7.333e-09\PG=C01 [X(C4H6)]\\@

 Normal termination of Gaussian 09 at Wed Aug 26 10:57:36 2020.
