 Gaussian 09, Revision D.01,
 Gaussian 09:  ES64L-G09RevD.01 24-Apr-2013

 --------------------
 #p B2PLYPD3/Def2QZVP
 --------------------

 ---------
 butadiene
 ---------
 Symbolic Z-matrix:
 Charge =  0 Multiplicity = 1

                         Standard orientation:
 ---------------------------------------------------------------------
 Center     Atomic      Atomic             Coordinates (Angstroms)
 Number     Number       Type             X           Y           Z
 ---------------------------------------------------------------------
      1          6           0        1.827137    0.126375    0.002042
      2          6           0        0.611878   -0.416490   -0.020117
      3          6           0       -0.600353    0.387319   -0.012866
      4          6           0       -1.834405   -0.104573    0.016325
      5          1           0        2.692350   -0.520087    0.071294
      6          1           0        1.982465    1.195951    0.060049
      7          1           0        0.497159   -1.474838   -0.038146
      8          1           0       -0.490410    1.474304   -0.062700
      9          1           0       -1.991031   -1.159638    0.023969
     10          1           0       -2.716077    0.528518    0.033230
 ---------------------------------------------------------------------

 SCF Done:  E(RB2PLYPD3) =  -155.700880210     A.U. after   11 cycles
 E2(B2PLYPD3) =    -0.2253158082D+00 E(B2PLYPD3) =    -0.15592619601866D+03

 The electronic state is 1-A.
 Alpha  occ. eigenvalues --  -10.62367 -10.62283 -10.61443 -10.61135  -0.93124
 Alpha  occ. eigenvalues --   -0.85098  -0.69995  -0.64312  -0.54512  -0.54249
 Alpha  occ. eigenvalues --   -0.46749  -0.45542  -0.41265  -0.38160  -0.27761
 Alpha virt. eigenvalues --    0.01929   0.07018   0.07468   0.08050   0.09600
 Alpha virt. eigenvalues --    0.11734   0.12456   0.14752   0.15881   0.16124
 Alpha virt. eigenvalues --    0.18751   0.20533   0.21585   0.22874   0.23951

 Mulliken charges:
               1
     1  C   -0.171577
     2  C   -0.039182
     3  C   -0.023017
     4  C   -0.179047
     5  H    0.082056
     6  H    0.069782
     7  H    0.060249
     8  H    0.052150
     9  H    0.063080
    10  H    0.085504
 Sum of Mulliken charges =   0.00000

 Dipole moment (field-independent basis, Debye):
    X=              0.0185    Y=             -0.0228    Z=              0.0613  Tot=              0.0680
 Quadrupole moment (field-independent basis, Debye-Ang):
   XX=            -23.6100   YY=            -23.0088   ZZ=            -29.1985
   XY=              0.0729   XZ=              0.2133   YZ=             -0.0081

 1\1\GINC-NODE39\SP\RB2PLYPD3-FC\def2QZVP\C4H6\BOITTIER\26-Aug-2020\0\\
 #p B2PLYPD3/Def2QZVP\\butadiene\\0,1\C,0,-3.826718,0.235111,0.011392\C
 ,0,-2.72751,-0.514566,0.053527\C,0,-1.391535,0.060002,0.026927\C,0,-0.
 264853,-0.644391,0.01631\H,0,-4.793345,-0.248723,-0.041893\H,0,-3.7892
 12,1.313083,-0.078354\H,0,-2.803051,-1.575437,0.102846\H,0,-1.306069,1
 .15018,0.044621\H,0,-0.29862,-1.710248,0.040013\H,0,0.715429,-0.179168
 ,-0.016079\\Version=ES64L-G09RevD.01\State=1-A\HF=-155.7008802\MP2=-15
 5.926196\RMSD=4.760e-09\PG=C01 [X(C4H6)]\\@

 Normal termination of Gaussian 09 at Wed Aug 26 21:56:20 2020.
