 Gaussian 09, Revision D.01,
 Gaussian 09:  ES64L-G09RevD.01 24-Apr-2013

 --------------------
 #p B2PLYPD3/Def2QZVP
 --------------------

 ---------
 butadiene
 ---------
 Symbolic Z-matrix:
 Charge =  0 Multiplicity = 1

                         Standard orientation:
 ---------------------------------------------------------------------
 Center     Atomic      Atomic             Coordinates (Angstroms)
 Number     Number       Type             X           Y           Z
 ---------------------------------------------------------------------
      1          6           0       -1.830860   -0.157430    0.022500
      2          6           0       -0.572706    0.448049   -0.052882
      3          6           0        0.592126   -0.367773   -0.050866
      4          6           0        1.836729    0.070771    0.060328
      5          1           0       -2.718143    0.525720    0.061946
      6          1           0       -2.011182   -1.171518    0.265352
      7          1           0       -0.407134    1.519820   -0.230452
      8          1           0        0.388414   -1.327412   -0.146029
      9          1           0        1.968068    1.133306    0.322464
     10          1           0        2.628241   -0.641618   -0.147762
 ---------------------------------------------------------------------

 SCF Done:  E(RB2PLYPD3) =  -155.677148837     A.U. after   12 cycles
 E2(B2PLYPD3) =    -0.2273199438D+00 E(B2PLYPD3) =    -0.15590446878033D+03

 The electronic state is 1-A.
 Alpha  occ. eigenvalues --  -10.63381 -10.62677 -10.61409 -10.60584  -0.93559
 Alpha  occ. eigenvalues --   -0.84046  -0.70566  -0.65238  -0.54897  -0.52896
 Alpha  occ. eigenvalues --   -0.47249  -0.45540  -0.41765  -0.37691  -0.26891
 Alpha virt. eigenvalues --    0.00734   0.07017   0.07527   0.07963   0.09311
 Alpha virt. eigenvalues --    0.11906   0.12101   0.15079   0.15385   0.16056
 Alpha virt. eigenvalues --    0.18562   0.19604   0.21315   0.22723   0.23943

 Mulliken charges:
               1
     1  C   -0.188609
     2  C   -0.049470
     3  C   -0.015866
     4  C   -0.193403
     5  H    0.074731
     6  H    0.079591
     7  H    0.066817
     8  H    0.066860
     9  H    0.069466
    10  H    0.089882
 Sum of Mulliken charges =   0.00000

 Dipole moment (field-independent basis, Debye):
    X=             -0.0324    Y=             -0.0661    Z=              0.0575  Tot=              0.0934
 Quadrupole moment (field-independent basis, Debye-Ang):
   XX=            -24.3835   YY=            -23.0019   ZZ=            -29.0956
   XY=              0.2659   XZ=             -0.5732   YZ=              0.0701

 1\1\GINC-NODE02\SP\RB2PLYPD3-FC\def2QZVP\C4H6\BOITTIER\26-Aug-2020\0\\
 #p B2PLYPD3/Def2QZVP\\butadiene\\0,1\C,0,-3.82383,0.280819,-0.015391\C
 ,0,-2.701535,-0.546573,0.090027\C,0,-1.404324,0.035658,0.064443\C,0,-0
 .264238,-0.632398,-0.0229\H,0,-4.823578,-0.224808,-0.034548\H,0,-3.810
 969,1.30081,-0.297029\H,0,-2.739784,-1.622885,0.308498\H,0,-1.424253,1
 .019373,0.122473\H,0,-0.3349,-1.70985,-0.244368\H,0,0.647124,-0.073734
 ,0.16312\\Version=ES64L-G09RevD.01\State=1-A\HF=-155.6771488\MP2=-155.
 9044688\RMSD=5.861e-09\PG=C01 [X(C4H6)]\\@

 Normal termination of Gaussian 09 at Wed Aug 26 13:04:40 2020.
