 Gaussian 09, Revision D.01,
 Gaussian 09:  ES64L-G09RevD.01 24-Apr-2013

 --------------------
 #p B2PLYPD3/Def2QZVP
 --------------------

 ---------
 butadiene
 ---------
 Symbolic Z-matrix:
 Charge =  0 Multiplicity = 1

                         Standard orientation:
 ---------------------------------------------------------------------
 Center     Atomic      Atomic             Coordinates (Angstroms)
 Number     Number       Type             X           Y           Z
 ---------------------------------------------------------------------
      1          6           0        1.868218   -0.142263   -0.029647
      2          6           0        0.594660    0.429907    0.072258
      3          6           0       -0.622058   -0.374058    0.050317
      4          6           0       -1.861582    0.076535   -0.074110
      5          1           0        2.776580    0.508690   -0.255701
      6          1           0        2.087777   -1.130112   -0.158505
      7          1           0        0.482646    1.458549    0.302665
      8          1           0       -0.450658   -1.403413    0.211767
      9          1           0       -2.016853    1.156356   -0.220000
     10          1           0       -2.754919   -0.530799    0.006866
 ---------------------------------------------------------------------

 SCF Done:  E(RB2PLYPD3) =  -155.682887953     A.U. after   12 cycles
 E2(B2PLYPD3) =    -0.2271426652D+00 E(B2PLYPD3) =    -0.15591003061783D+03

 The electronic state is 1-A.
 Alpha  occ. eigenvalues --  -10.63667 -10.62609 -10.62172 -10.61643  -0.92642
 Alpha  occ. eigenvalues --   -0.84219  -0.70869  -0.64842  -0.54877  -0.53207
 Alpha  occ. eigenvalues --   -0.47651  -0.45218  -0.41465  -0.37050  -0.27309
 Alpha virt. eigenvalues --    0.00773   0.06973   0.07610   0.07911   0.09217
 Alpha virt. eigenvalues --    0.11507   0.12548   0.14533   0.15514   0.16291
 Alpha virt. eigenvalues --    0.18845   0.19826   0.21872   0.22663   0.23111

 Mulliken charges:
               1
     1  C   -0.176239
     2  C   -0.055647
     3  C   -0.030635
     4  C   -0.174173
     5  H    0.069793
     6  H    0.075339
     7  H    0.079610
     8  H    0.063821
     9  H    0.058589
    10  H    0.089543
 Sum of Mulliken charges =   0.00000

 Dipole moment (field-independent basis, Debye):
    X=             -0.0343    Y=             -0.0552    Z=             -0.0141  Tot=              0.0665
 Quadrupole moment (field-independent basis, Debye-Ang):
   XX=            -23.4188   YY=            -23.4092   ZZ=            -29.1863
   XY=             -0.3833   XZ=             -0.7091   YZ=             -0.0676

 1\1\GINC-NODE08\SP\RB2PLYPD3-FC\def2QZVP\C4H6\BOITTIER\26-Aug-2020\0\\
 #p B2PLYPD3/Def2QZVP\\butadiene\\0,1\C,0,-3.866691,0.258381,-0.023532\
 C,0,-2.716976,-0.529705,0.106047\C,0,-1.375442,0.041237,0.066614\C,0,-
 0.237069,-0.628746,-0.034217\H,0,-4.877083,-0.225829,-0.234739\H,0,-3.
 904787,1.264754,-0.186064\H,0,-2.792126,-1.553465,0.370633\H,0,-1.3590
 35,1.089434,0.19322\H,0,-0.278439,-1.72314,-0.143742\H,0,0.750864,-0.1
 89553,0.033307\\Version=ES64L-G09RevD.01\State=1-A\HF=-155.682888\MP2=
 -155.9100306\RMSD=4.661e-09\PG=C01 [X(C4H6)]\\@

 Normal termination of Gaussian 09 at Wed Aug 26 11:38:09 2020.
