 Gaussian 09, Revision D.01,
 Gaussian 09:  ES64L-G09RevD.01 24-Apr-2013

 --------------------
 #p B2PLYPD3/Def2QZVP
 --------------------

 ---------
 butadiene
 ---------
 Symbolic Z-matrix:
 Charge =  0 Multiplicity = 1

                         Standard orientation:
 ---------------------------------------------------------------------
 Center     Atomic      Atomic             Coordinates (Angstroms)
 Number     Number       Type             X           Y           Z
 ---------------------------------------------------------------------
      1          6           0        1.851023    0.095844    0.055324
      2          6           0        0.599571   -0.397624   -0.063431
      3          6           0       -0.615560    0.395740   -0.022926
      4          6           0       -1.836842   -0.101735    0.028031
      5          1           0        2.786579   -0.495292   -0.038662
      6          1           0        2.036409    1.178099    0.072219
      7          1           0        0.415594   -1.458982   -0.037779
      8          1           0       -0.489727    1.496968   -0.091625
      9          1           0       -2.026630   -1.169725    0.114221
     10          1           0       -2.711374    0.495584   -0.000362
 ---------------------------------------------------------------------

 SCF Done:  E(RB2PLYPD3) =  -155.696471889     A.U. after   11 cycles
 E2(B2PLYPD3) =    -0.2261072473D+00 E(B2PLYPD3) =    -0.15592257913617D+03

 The electronic state is 1-A.
 Alpha  occ. eigenvalues --  -10.62874 -10.62609 -10.62364 -10.61222  -0.92996
 Alpha  occ. eigenvalues --   -0.84807  -0.70387  -0.63888  -0.54982  -0.53360
 Alpha  occ. eigenvalues --   -0.47329  -0.44977  -0.40645  -0.38134  -0.27799
 Alpha virt. eigenvalues --    0.01466   0.06993   0.07376   0.08046   0.09615
 Alpha virt. eigenvalues --    0.11562   0.12539   0.14611   0.15644   0.16398
 Alpha virt. eigenvalues --    0.19003   0.19948   0.22129   0.22533   0.23380

 Mulliken charges:
               1
     1  C   -0.163119
     2  C   -0.042029
     3  C   -0.018523
     4  C   -0.173511
     5  H    0.081905
     6  H    0.059793
     7  H    0.059566
     8  H    0.049697
     9  H    0.059170
    10  H    0.087051
 Sum of Mulliken charges =   0.00000

 Dipole moment (field-independent basis, Debye):
    X=             -0.0581    Y=              0.0057    Z=             -0.0422  Tot=              0.0721
 Quadrupole moment (field-independent basis, Debye-Ang):
   XX=            -23.0529   YY=            -23.4147   ZZ=            -29.2773
   XY=              0.3148   XZ=             -0.1557   YZ=             -0.1092

 1\1\GINC-NODE33\SP\RB2PLYPD3-FC\def2QZVP\C4H6\BOITTIER\26-Aug-2020\0\\
 #p B2PLYPD3/Def2QZVP\\butadiene\\0,1\C,0,-3.854865,0.216659,-0.033035\
 C,0,-2.714077,-0.494512,0.095739\C,0,-1.374736,0.062922,0.040559\C,0,-
 0.264861,-0.649902,-0.000284\H,0,-4.882269,-0.191972,0.071861\H,0,-3.8
 39761,1.314054,-0.070791\H,0,-2.726885,-1.571914,0.090554\H,0,-1.29735
 5,1.169725,0.088044\H,0,-0.273351,-1.736032,-0.065866\H,0,0.704045,-0.
 221738,0.01703\\Version=ES64L-G09RevD.01\State=1-A\HF=-155.6964719\MP2
 =-155.9225791\RMSD=8.602e-09\PG=C01 [X(C4H6)]\\@

 Normal termination of Gaussian 09 at Wed Aug 26 10:16:19 2020.
