 Gaussian 09, Revision D.01,
 Gaussian 09:  ES64L-G09RevD.01 24-Apr-2013

 --------------------
 #p B2PLYPD3/Def2QZVP
 --------------------

 ---------
 butadiene
 ---------
 Symbolic Z-matrix:
 Charge =  0 Multiplicity = 1

                         Standard orientation:
 ---------------------------------------------------------------------
 Center     Atomic      Atomic             Coordinates (Angstroms)
 Number     Number       Type             X           Y           Z
 ---------------------------------------------------------------------
      1          6           0        1.856654   -0.105378    0.001010
      2          6           0        0.610858    0.376776   -0.036752
      3          6           0       -0.633544   -0.404870   -0.038100
      4          6           0       -1.837765    0.119300    0.031346
      5          1           0        2.711193    0.549587    0.113720
      6          1           0        2.050460   -1.163453    0.087261
      7          1           0        0.457794    1.446288   -0.033953
      8          1           0       -0.524161   -1.490068    0.016712
      9          1           0       -1.900657    1.240181    0.067448
     10          1           0       -2.771850   -0.497506    0.003785
 ---------------------------------------------------------------------

 SCF Done:  E(RB2PLYPD3) =  -155.696656280     A.U. after   11 cycles
 E2(B2PLYPD3) =    -0.2258282719D+00 E(B2PLYPD3) =    -0.15592248455190D+03

 The electronic state is 1-A.
 Alpha  occ. eigenvalues --  -10.62698 -10.62443 -10.62167 -10.61554  -0.92924
 Alpha  occ. eigenvalues --   -0.85149  -0.69672  -0.63753  -0.54459  -0.53579
 Alpha  occ. eigenvalues --   -0.47053  -0.45109  -0.40586  -0.38104  -0.28090
 Alpha virt. eigenvalues --    0.01866   0.06929   0.07376   0.07962   0.09668
 Alpha virt. eigenvalues --    0.11664   0.12403   0.14496   0.15632   0.16221
 Alpha virt. eigenvalues --    0.18794   0.19957   0.21630   0.22642   0.23953

 Mulliken charges:
               1
     1  C   -0.172530
     2  C   -0.032645
     3  C   -0.027525
     4  C   -0.166917
     5  H    0.084709
     6  H    0.064954
     7  H    0.050861
     8  H    0.051824
     9  H    0.057480
    10  H    0.089789
 Sum of Mulliken charges =   0.00000

 Dipole moment (field-independent basis, Debye):
    X=             -0.0363    Y=             -0.0316    Z=              0.1841  Tot=              0.1903
 Quadrupole moment (field-independent basis, Debye-Ang):
   XX=            -23.4542   YY=            -23.2692   ZZ=            -29.2808
   XY=              0.0820   XZ=              0.3820   YZ=             -0.0133

 1\1\GINC-NODE12\SP\RB2PLYPD3-FC\def2QZVP\C4H6\BOITTIER\26-Aug-2020\0\\
 #p B2PLYPD3/Def2QZVP\\butadiene\\0,1\C,0,-3.86284,0.211029,0.030208\C,
 0,-2.72032,-0.481717,0.004548\C,0,-1.358842,0.070758,-0.02106\C,0,-0.2
 6389,-0.653089,0.061711\H,0,-4.817644,-0.281568,0.16293\H,0,-3.868856,
 1.288686,0.086269\H,0,-2.755842,-1.561031,0.037887\H,0,-1.277205,1.159
 517,0.002674\H,0,-0.396937,-1.766317,0.129946\H,0,0.763144,-0.209524,0
 .015086\\Version=ES64L-G09RevD.01\State=1-A\HF=-155.6966563\MP2=-155.9
 224846\RMSD=6.215e-09\PG=C01 [X(C4H6)]\\@

 Normal termination of Gaussian 09 at Wed Aug 26 10:03:39 2020.
