 Gaussian 09, Revision D.01,
 Gaussian 09:  ES64L-G09RevD.01 24-Apr-2013

 --------------------
 #p B2PLYPD3/Def2QZVP
 --------------------

 ---------
 butadiene
 ---------
 Symbolic Z-matrix:
 Charge =  0 Multiplicity = 1

                         Standard orientation:
 ---------------------------------------------------------------------
 Center     Atomic      Atomic             Coordinates (Angstroms)
 Number     Number       Type             X           Y           Z
 ---------------------------------------------------------------------
      1          6           0        1.793970   -0.173186    0.041830
      2          6           0        0.603969    0.445994   -0.046334
      3          6           0       -0.594105   -0.362445   -0.045945
      4          6           0       -1.825112    0.088319   -0.003228
      5          1           0        2.659215    0.526240   -0.111087
      6          1           0        1.925055   -1.221364    0.255557
      7          1           0        0.519985    1.575389   -0.065154
      8          1           0       -0.481447   -1.448810   -0.123394
      9          1           0       -1.858807    1.129129    0.336579
     10          1           0       -2.636331   -0.552681    0.029559
 ---------------------------------------------------------------------

 SCF Done:  E(RB2PLYPD3) =  -155.683144655     A.U. after   11 cycles
 E2(B2PLYPD3) =    -0.2265294654D+00 E(B2PLYPD3) =    -0.15590967412085D+03

 The electronic state is 1-A.
 Alpha  occ. eigenvalues --  -10.63159 -10.62153 -10.61819 -10.60234  -0.93446
 Alpha  occ. eigenvalues --   -0.85253  -0.69542  -0.63493  -0.55193  -0.53515
 Alpha  occ. eigenvalues --   -0.47144  -0.44155  -0.41431  -0.37948  -0.27602
 Alpha virt. eigenvalues --    0.01678   0.07051   0.07136   0.07898   0.09291
 Alpha virt. eigenvalues --    0.11949   0.12151   0.15035   0.15802   0.16014
 Alpha virt. eigenvalues --    0.18449   0.19568   0.20942   0.22903   0.24053

 Mulliken charges:
               1
     1  C   -0.176297
     2  C   -0.041124
     3  C   -0.009861
     4  C   -0.177838
     5  H    0.077179
     6  H    0.084613
     7  H    0.058418
     8  H    0.045040
     9  H    0.054248
    10  H    0.085622
 Sum of Mulliken charges =   0.00000

 Dipole moment (field-independent basis, Debye):
    X=              0.1386    Y=             -0.1099    Z=              0.2681  Tot=              0.3212
 Quadrupole moment (field-independent basis, Debye-Ang):
   XX=            -24.5771   YY=            -22.9203   ZZ=            -29.0447
   XY=              0.3525   XZ=             -0.4689   YZ=             -0.0093

 1\1\GINC-NODE29\SP\RB2PLYPD3-FC\def2QZVP\C4H6\BOITTIER\26-Aug-2020\0\\
 #p B2PLYPD3/Def2QZVP\\butadiene\\0,1\C,0,-3.790065,0.269987,0.056453\C
 ,0,-2.726633,-0.549839,-0.008779\C,0,-1.405583,0.036351,-0.021566\C,0,
 -0.272512,-0.621484,0.040026\H,0,-4.764108,-0.271076,-0.083972\H,0,-3.
 736049,1.33013,0.242785\H,0,-2.841539,-1.676619,0.001498\H,0,-1.326289
 ,1.123292,-0.127165\H,0,-0.421989,-1.642962,0.406262\H,0,0.638302,-0.1
 31598,0.061512\\Version=ES64L-G09RevD.01\State=1-A\HF=-155.6831447\MP2
 =-155.9096741\RMSD=8.852e-09\PG=C01 [X(C4H6)]\\@

 Normal termination of Gaussian 09 at Wed Aug 26 16:08:08 2020.
