 Gaussian 09, Revision D.01,
 Gaussian 09:  ES64L-G09RevD.01 24-Apr-2013

 --------------------
 #p B2PLYPD3/Def2QZVP
 --------------------

 ---------
 butadiene
 ---------
 Symbolic Z-matrix:
 Charge =  0 Multiplicity = 1

                         Standard orientation:
 ---------------------------------------------------------------------
 Center     Atomic      Atomic             Coordinates (Angstroms)
 Number     Number       Type             X           Y           Z
 ---------------------------------------------------------------------
      1          6           0       -1.852820    0.087902   -0.011223
      2          6           0       -0.617347   -0.367770    0.042446
      3          6           0        0.606123    0.421005    0.000657
      4          6           0        1.846430   -0.124566   -0.030702
      5          1           0       -2.713103   -0.568181   -0.035518
      6          1           0       -1.982331    1.194644   -0.165171
      7          1           0       -0.399699   -1.461315    0.093958
      8          1           0        0.558939    1.526071    0.169242
      9          1           0        1.909869   -1.232788   -0.096665
     10          1           0        2.732005    0.442141    0.027081
 ---------------------------------------------------------------------

 SCF Done:  E(RB2PLYPD3) =  -155.693270584     A.U. after   11 cycles
 E2(B2PLYPD3) =    -0.2266569575D+00 E(B2PLYPD3) =    -0.15591992754148D+03

 The electronic state is 1-A.
 Alpha  occ. eigenvalues --  -10.63181 -10.62758 -10.61945 -10.61834  -0.92839
 Alpha  occ. eigenvalues --   -0.84926  -0.70021  -0.63037  -0.54912  -0.53336
 Alpha  occ. eigenvalues --   -0.47088  -0.44762  -0.40719  -0.37973  -0.27837
 Alpha virt. eigenvalues --    0.01556   0.07084   0.07208   0.07922   0.09500
 Alpha virt. eigenvalues --    0.11610   0.12389   0.14429   0.15586   0.16209
 Alpha virt. eigenvalues --    0.18752   0.19968   0.21347   0.22794   0.23658

 Mulliken charges:
               1
     1  C   -0.170998
     2  C   -0.024937
     3  C   -0.027819
     4  C   -0.181317
     5  H    0.093935
     6  H    0.063573
     7  H    0.043943
     8  H    0.051011
     9  H    0.058029
    10  H    0.094580
 Sum of Mulliken charges =   0.00000

 Dipole moment (field-independent basis, Debye):
    X=              0.0576    Y=             -0.0147    Z=              0.0195  Tot=              0.0626
 Quadrupole moment (field-independent basis, Debye-Ang):
   XX=            -23.4147   YY=            -23.3634   ZZ=            -29.3387
   XY=              0.2132   XZ=              0.4465   YZ=              0.0798

 1\1\GINC-NODE31\SP\RB2PLYPD3-FC\def2QZVP\C4H6\BOITTIER\26-Aug-2020\0\\
 #p B2PLYPD3/Def2QZVP\\butadiene\\0,1\C,0,-3.858571,0.197035,0.002812\C
 ,0,-2.723179,-0.468541,0.072126\C,0,-1.379489,0.09062,0.020884\C,0,-0.
 255093,-0.666039,0.007024\H,0,-4.821234,-0.297091,-0.012782\H,0,-3.790
 177,1.305812,-0.174066\H,0,-2.702328,-1.58203,0.146787\H,0,-1.230878,1
 .189894,0.166935\H,0,-0.388428,-1.769161,-0.036279\H,0,0.716612,-0.263
 637,0.05803\\Version=ES64L-G09RevD.01\State=1-A\HF=-155.6932706\MP2=-1
 55.9199275\RMSD=6.525e-09\PG=C01 [X(C4H6)]\\@

 Normal termination of Gaussian 09 at Wed Aug 26 11:11:36 2020.
