 Gaussian 09, Revision D.01,
 Gaussian 09:  ES64L-G09RevD.01 24-Apr-2013

 --------------------
 #p B2PLYPD3/Def2QZVP
 --------------------

 ---------
 butadiene
 ---------
 Symbolic Z-matrix:
 Charge =  0 Multiplicity = 1

                         Standard orientation:
 ---------------------------------------------------------------------
 Center     Atomic      Atomic             Coordinates (Angstroms)
 Number     Number       Type             X           Y           Z
 ---------------------------------------------------------------------
      1          6           0        1.839665   -0.137373    0.028776
      2          6           0        0.609690    0.427242   -0.094484
      3          6           0       -0.607502   -0.366466   -0.047114
      4          6           0       -1.853944    0.103260    0.013419
      5          1           0        2.808372    0.461858    0.174802
      6          1           0        1.837818   -1.217528    0.045034
      7          1           0        0.500673    1.603912    0.120497
      8          1           0       -0.385097   -1.423009   -0.002362
      9          1           0       -2.167245    1.132780    0.063242
     10          1           0       -2.521980   -0.717995    0.195204
 ---------------------------------------------------------------------

 SCF Done:  E(RB2PLYPD3) =  -155.678316854     A.U. after   11 cycles
 E2(B2PLYPD3) =    -0.2279699666D+00 E(B2PLYPD3) =    -0.15590628682092D+03

 The electronic state is 1-A.
 Alpha  occ. eigenvalues --  -10.63823 -10.62809 -10.62667 -10.61413  -0.92849
 Alpha  occ. eigenvalues --   -0.84730  -0.69797  -0.62981  -0.54034  -0.53453
 Alpha  occ. eigenvalues --   -0.46803  -0.44735  -0.40383  -0.37909  -0.27618
 Alpha virt. eigenvalues --    0.01324   0.06922   0.06960   0.07831   0.09243
 Alpha virt. eigenvalues --    0.11553   0.12214   0.14729   0.15210   0.16231
 Alpha virt. eigenvalues --    0.18556   0.19343   0.21815   0.22477   0.24715

 Mulliken charges:
               1
     1  C   -0.176735
     2  C   -0.021719
     3  C   -0.030109
     4  C   -0.173083
     5  H    0.090587
     6  H    0.061727
     7  H    0.042152
     8  H    0.046922
     9  H    0.082910
    10  H    0.077347
 Sum of Mulliken charges =   0.00000

 Dipole moment (field-independent basis, Debye):
    X=              0.0693    Y=             -0.0519    Z=              0.4418  Tot=              0.4502
 Quadrupole moment (field-independent basis, Debye-Ang):
   XX=            -24.0443   YY=            -23.1306   ZZ=            -29.4297
   XY=             -0.3078   XZ=              0.0609   YZ=              0.1362

 1\1\GINC-NODE23\SP\RB2PLYPD3-FC\def2QZVP\C4H6\BOITTIER\26-Aug-2020\0\\
 #p B2PLYPD3/Def2QZVP\\butadiene\\0,1\C,0,-3.837813,0.254915,0.057867\C
 ,0,-2.730124,-0.525685,-0.044651\C,0,-1.389749,0.037038,-0.022032\C,0,
 -0.247944,-0.647153,0.055994\H,0,-4.897876,-0.154948,0.222405\H,0,-3.6
 41508,1.317023,0.038034\H,0,-2.833691,-1.694977,0.209679\H,0,-1.418151
 ,1.117251,-0.012929\H,0,-0.124835,-1.714031,0.140643\H,0,0.557821,0.04
 5974,0.211224\\Version=ES64L-G09RevD.01\State=1-A\HF=-155.6783169\MP2=
 -155.9062868\RMSD=6.239e-09\PG=C01 [X(C4H6)]\\@

 Normal termination of Gaussian 09 at Wed Aug 26 12:45:08 2020.
