 Gaussian 09, Revision D.01,
 Gaussian 09:  ES64L-G09RevD.01 24-Apr-2013

 --------------------
 #p B2PLYPD3/Def2QZVP
 --------------------

 ---------
 butadiene
 ---------
 Symbolic Z-matrix:
 Charge =  0 Multiplicity = 1

                         Standard orientation:
 ---------------------------------------------------------------------
 Center     Atomic      Atomic             Coordinates (Angstroms)
 Number     Number       Type             X           Y           Z
 ---------------------------------------------------------------------
      1          6           0       -1.846607    0.096505    0.012831
      2          6           0       -0.599403   -0.371928   -0.025966
      3          6           0        0.610849    0.403554   -0.022339
      4          6           0        1.838085   -0.123015    0.027187
      5          1           0       -2.715535   -0.547230    0.106789
      6          1           0       -2.018076    1.147359   -0.016601
      7          1           0       -0.479961   -1.451511   -0.051540
      8          1           0        0.495521    1.495461   -0.011871
      9          1           0        2.010593   -1.201289   -0.009915
     10          1           0        2.689914    0.526517    0.032859
 ---------------------------------------------------------------------

 SCF Done:  E(RB2PLYPD3) =  -155.700101213     A.U. after   11 cycles
 E2(B2PLYPD3) =    -0.2256952372D+00 E(B2PLYPD3) =    -0.15592579645004D+03

 The electronic state is 1-A.
 Alpha  occ. eigenvalues --  -10.62627 -10.62267 -10.61638 -10.61293  -0.93175
 Alpha  occ. eigenvalues --   -0.85040  -0.70459  -0.63888  -0.54650  -0.54148
 Alpha  occ. eigenvalues --   -0.46748  -0.45593  -0.41142  -0.38246  -0.27637
 Alpha virt. eigenvalues --    0.01556   0.06996   0.07439   0.08010   0.09839
 Alpha virt. eigenvalues --    0.11682   0.12410   0.14786   0.15825   0.16195
 Alpha virt. eigenvalues --    0.18818   0.20343   0.21687   0.22699   0.23852

 Mulliken charges:
               1
     1  C   -0.179396
     2  C   -0.019363
     3  C   -0.033981
     4  C   -0.174523
     5  H    0.087799
     6  H    0.063432
     7  H    0.049448
     8  H    0.050826
     9  H    0.068988
    10  H    0.086771
 Sum of Mulliken charges =   0.00000

 Dipole moment (field-independent basis, Debye):
    X=              0.0311    Y=              0.0081    Z=              0.0097  Tot=              0.0335
 Quadrupole moment (field-independent basis, Debye-Ang):
   XX=            -23.4181   YY=            -23.1561   ZZ=            -29.2280
   XY=             -0.0663   XZ=             -0.2032   YZ=             -0.0151

 1\1\GINC-NODE14\SP\RB2PLYPD3-FC\def2QZVP\C4H6\BOITTIER\26-Aug-2020\0\\
 #p B2PLYPD3/Def2QZVP\\butadiene\\0,1\C,0,-3.852054,0.211214,0.035206\C
 ,0,-2.709288,-0.474313,0.010921\C,0,-1.379592,0.071228,-0.008834\C,0,-
 0.266428,-0.665234,0.05693\H,0,-4.821824,-0.263084,0.148553\H,0,-3.832
 459,1.274418,-0.026235\H,0,-2.785507,-1.558082,0.018246\H,0,-1.297194,
 1.165926,-0.031632\H,0,-0.290269,-1.757582,0.052702\H,0,0.688085,-0.17
 9181,0.042986\\Version=ES64L-G09RevD.01\State=1-A\HF=-155.7001012\MP2=
 -155.9257965\RMSD=4.708e-09\PG=C01 [X(C4H6)]\\@

 Normal termination of Gaussian 09 at Wed Aug 26 10:14:25 2020.
