 Gaussian 09, Revision D.01,
 Gaussian 09:  ES64L-G09RevD.01 24-Apr-2013

 --------------------
 #p B2PLYPD3/Def2QZVP
 --------------------

 ---------
 butadiene
 ---------
 Symbolic Z-matrix:
 Charge =  0 Multiplicity = 1

                         Standard orientation:
 ---------------------------------------------------------------------
 Center     Atomic      Atomic             Coordinates (Angstroms)
 Number     Number       Type             X           Y           Z
 ---------------------------------------------------------------------
      1          6           0       -1.852771   -0.104896    0.013595
      2          6           0       -0.607447    0.388359   -0.091186
      3          6           0        0.623797   -0.460561   -0.061753
      4          6           0        1.835771    0.133336    0.061153
      5          1           0       -2.563266    0.657970    0.430508
      6          1           0       -2.075413   -1.099762    0.067368
      7          1           0       -0.499644    1.397946   -0.170306
      8          1           0        0.408733   -1.478381   -0.067774
      9          1           0        1.989930    1.249722    0.016041
     10          1           0        2.743565   -0.464922    0.193305
 ---------------------------------------------------------------------

 SCF Done:  E(RB2PLYPD3) =  -155.678309717     A.U. after   11 cycles
 E2(B2PLYPD3) =    -0.2266923754D+00 E(B2PLYPD3) =    -0.15590500209196D+03

 The electronic state is 1-A.
 Alpha  occ. eigenvalues --  -10.63007 -10.62729 -10.62109 -10.60982  -0.92575
 Alpha  occ. eigenvalues --   -0.84622  -0.69789  -0.65699  -0.54302  -0.53443
 Alpha  occ. eigenvalues --   -0.46937  -0.46484  -0.41192  -0.36925  -0.27424
 Alpha virt. eigenvalues --    0.01477   0.06829   0.07489   0.08185   0.08739
 Alpha virt. eigenvalues --    0.11814   0.12363   0.14725   0.15388   0.16176
 Alpha virt. eigenvalues --    0.18650   0.19730   0.21550   0.22740   0.24758

 Mulliken charges:
               1
     1  C   -0.179584
     2  C   -0.024938
     3  C   -0.065411
     4  C   -0.164602
     5  H    0.067656
     6  H    0.067843
     7  H    0.074957
     8  H    0.073201
     9  H    0.070219
    10  H    0.080658
 Sum of Mulliken charges =   0.00000

 Dipole moment (field-independent basis, Debye):
    X=              0.2226    Y=             -0.0225    Z=              0.3126  Tot=              0.3844
 Quadrupole moment (field-independent basis, Debye-Ang):
   XX=            -24.6541   YY=            -22.7900   ZZ=            -29.1105
   XY=              0.5506   XZ=             -0.6767   YZ=              0.0695

 1\1\GINC-NODE27\SP\RB2PLYPD3-FC\def2QZVP\C4H6\BOITTIER\26-Aug-2020\0\\
 #p B2PLYPD3/Def2QZVP\\butadiene\\0,1\C,0,-3.855984,0.220069,-0.011795\
 C,0,-2.721462,-0.489403,0.109127\C,0,-1.356343,0.121166,0.075253\C,0,-
 0.271987,-0.68491,-0.030173\H,0,-4.691591,-0.407741,-0.421914\H,0,-3.8
 93911,1.237817,-0.082299\H,0,-2.799238,-1.500353,0.204405\H,0,-1.38288
 8,1.161079,0.064236\H,0,-0.323449,-1.809842,0.033054\H,0,0.729935,-0.2
 63722,-0.165161\\Version=ES64L-G09RevD.01\State=1-A\HF=-155.6783097\MP
 2=-155.9050021\RMSD=7.439e-09\PG=C01 [X(C4H6)]\\@

 Normal termination of Gaussian 09 at Wed Aug 26 13:41:35 2020.
