 Gaussian 09, Revision D.01,
 Gaussian 09:  ES64L-G09RevD.01 24-Apr-2013

 --------------------
 #p B2PLYPD3/Def2QZVP
 --------------------

 ---------
 butadiene
 ---------
 Symbolic Z-matrix:
 Charge =  0 Multiplicity = 1

                         Standard orientation:
 ---------------------------------------------------------------------
 Center     Atomic      Atomic             Coordinates (Angstroms)
 Number     Number       Type             X           Y           Z
 ---------------------------------------------------------------------
      1          6           0        1.847043    0.100755    0.006568
      2          6           0        0.610780   -0.397610   -0.014878
      3          6           0       -0.605388    0.417412   -0.023705
      4          6           0       -1.843738   -0.116871    0.014860
      5          1           0        2.703664   -0.515930   -0.008446
      6          1           0        2.039995    1.154683    0.111546
      7          1           0        0.450721   -1.472433   -0.010931
      8          1           0       -0.503540    1.493526   -0.061647
      9          1           0       -2.016529   -1.183879    0.037492
     10          1           0       -2.726488    0.501911    0.034919
 ---------------------------------------------------------------------

 SCF Done:  E(RB2PLYPD3) =  -155.700365674     A.U. after   11 cycles
 E2(B2PLYPD3) =    -0.2257158981D+00 E(B2PLYPD3) =    -0.15592608157245D+03

 The electronic state is 1-A.
 Alpha  occ. eigenvalues --  -10.62807 -10.62649 -10.61675 -10.61130  -0.92708
 Alpha  occ. eigenvalues --   -0.84830  -0.70349  -0.64230  -0.54786  -0.53896
 Alpha  occ. eigenvalues --   -0.46780  -0.45757  -0.41263  -0.37873  -0.27601
 Alpha virt. eigenvalues --    0.01651   0.07029   0.07455   0.08120   0.09430
 Alpha virt. eigenvalues --    0.11635   0.12512   0.14726   0.15903   0.16252
 Alpha virt. eigenvalues --    0.18866   0.20549   0.21796   0.22893   0.23582

 Mulliken charges:
               1
     1  C   -0.174026
     2  C   -0.032091
     3  C   -0.035792
     4  C   -0.175467
     5  H    0.085631
     6  H    0.065653
     7  H    0.056740
     8  H    0.059624
     9  H    0.065674
    10  H    0.084053
 Sum of Mulliken charges =   0.00000

 Dipole moment (field-independent basis, Debye):
    X=             -0.0055    Y=              0.0019    Z=              0.0720  Tot=              0.0723
 Quadrupole moment (field-independent basis, Debye-Ang):
   XX=            -23.3262   YY=            -23.0961   ZZ=            -29.2823
   XY=              0.2329   XZ=              0.0485   YZ=              0.0554

 1\1\GINC-NODE26\SP\RB2PLYPD3-FC\def2QZVP\C4H6\BOITTIER\26-Aug-2020\0\\
 #p B2PLYPD3/Def2QZVP\\butadiene\\0,1\C,0,-3.849772,0.217041,0.008987\C
 ,0,-2.723794,-0.495536,0.048735\C,0,-1.380398,0.086284,0.03543\C,0,-0.
 259045,-0.663822,0.016306\H,0,-4.803637,-0.234013,0.04089\H,0,-3.84952
 6,1.28476,-0.128819\H,0,-2.760513,-1.581198,0.078231\H,0,-1.286084,1.1
 63743,0.040014\H,0,-0.28189,-1.744673,0.026916\H,0,0.720881,-0.215581,
 -0.020641\\Version=ES64L-G09RevD.01\State=1-A\HF=-155.7003657\MP2=-155
 .9260816\RMSD=5.161e-09\PG=C01 [X(C4H6)]\\@

 Normal termination of Gaussian 09 at Wed Aug 26 20:28:16 2020.
