 Gaussian 09, Revision D.01,
 Gaussian 09:  ES64L-G09RevD.01 24-Apr-2013

 --------------------
 #p B2PLYPD3/Def2QZVP
 --------------------

 ---------
 butadiene
 ---------
 Symbolic Z-matrix:
 Charge =  0 Multiplicity = 1

                         Standard orientation:
 ---------------------------------------------------------------------
 Center     Atomic      Atomic             Coordinates (Angstroms)
 Number     Number       Type             X           Y           Z
 ---------------------------------------------------------------------
      1          6           0        1.818577    0.074546   -0.093361
      2          6           0        0.588747   -0.411230    0.051936
      3          6           0       -0.589702    0.478204    0.052678
      4          6           0       -1.828447   -0.134895   -0.039735
      5          1           0        2.803943   -0.476390    0.161828
      6          1           0        1.996603    1.137632   -0.223440
      7          1           0        0.383459   -1.449562    0.215143
      8          1           0       -0.471094    1.482868    0.304351
      9          1           0       -2.003310   -1.203481   -0.187177
     10          1           0       -2.644653    0.469174   -0.099816
 ---------------------------------------------------------------------

 SCF Done:  E(RB2PLYPD3) =  -155.680051913     A.U. after   12 cycles
 E2(B2PLYPD3) =    -0.2271702820D+00 E(B2PLYPD3) =    -0.15590722219474D+03

 The electronic state is 1-A.
 Alpha  occ. eigenvalues --  -10.63132 -10.62505 -10.61927 -10.61717  -0.92601
 Alpha  occ. eigenvalues --   -0.84161  -0.70059  -0.65023  -0.54589  -0.53089
 Alpha  occ. eigenvalues --   -0.47270  -0.45910  -0.40835  -0.36980  -0.27329
 Alpha virt. eigenvalues --    0.01312   0.07145   0.07387   0.07848   0.08799
 Alpha virt. eigenvalues --    0.11579   0.12483   0.14697   0.15325   0.16563
 Alpha virt. eigenvalues --    0.18795   0.19343   0.22101   0.22587   0.23687

 Mulliken charges:
               1
     1  C   -0.164565
     2  C   -0.034048
     3  C   -0.059613
     4  C   -0.179689
     5  H    0.069316
     6  H    0.056716
     7  H    0.072479
     8  H    0.083128
     9  H    0.072707
    10  H    0.083569
 Sum of Mulliken charges =   0.00000

 Dipole moment (field-independent basis, Debye):
    X=             -0.1631    Y=              0.0748    Z=              0.2433  Tot=              0.3023
 Quadrupole moment (field-independent basis, Debye-Ang):
   XX=            -23.8593   YY=            -23.0942   ZZ=            -29.1887
   XY=              0.6455   XZ=              0.7012   YZ=             -0.0086

 1\1\GINC-NODE15\SP\RB2PLYPD3-FC\def2QZVP\C4H6\BOITTIER\26-Aug-2020\0\\
 #p B2PLYPD3/Def2QZVP\\butadiene\\0,1\C,0,-3.825999,0.203015,0.096626\C
 ,0,-2.709349,-0.510347,-0.020753\C,0,-1.38474,0.141251,-0.046613\C,0,-
 0.283312,-0.689489,0.078468\H,0,-4.897295,-0.162592,-0.144731\H,0,-3.8
 01086,1.284863,0.184654\H,0,-2.702826,-1.574311,-0.142624\H,0,-1.31236
 9,1.13974,-0.337369\H,0,-0.312422,-1.765336,0.267938\H,0,0.631865,-0.2
 47567,0.121564\\Version=ES64L-G09RevD.01\State=1-A\HF=-155.6800519\MP2
 =-155.9072222\RMSD=5.389e-09\PG=C01 [X(C4H6)]\\@

 Normal termination of Gaussian 09 at Wed Aug 26 12:08:46 2020.
