 Gaussian 09, Revision D.01,
 Gaussian 09:  ES64L-G09RevD.01 24-Apr-2013

 --------------------
 #p B2PLYPD3/Def2QZVP
 --------------------

 ---------
 butadiene
 ---------
 Symbolic Z-matrix:
 Charge =  0 Multiplicity = 1

                         Standard orientation:
 ---------------------------------------------------------------------
 Center     Atomic      Atomic             Coordinates (Angstroms)
 Number     Number       Type             X           Y           Z
 ---------------------------------------------------------------------
      1          6           0        1.833316   -0.117107   -0.002475
      2          6           0        0.604457    0.418457    0.010423
      3          6           0       -0.603998   -0.392990    0.006482
      4          6           0       -1.837619    0.109132   -0.012853
      5          1           0        2.763501    0.448519   -0.014494
      6          1           0        1.947245   -1.192259   -0.081309
      7          1           0        0.519787    1.488426    0.039829
      8          1           0       -0.490154   -1.471403    0.087569
      9          1           0       -2.007936    1.171099   -0.027687
     10          1           0       -2.709384   -0.549333   -0.013367
 ---------------------------------------------------------------------

 SCF Done:  E(RB2PLYPD3) =  -155.700380677     A.U. after   11 cycles
 E2(B2PLYPD3) =    -0.2257592821D+00 E(B2PLYPD3) =    -0.15592613995949D+03

 The electronic state is 1-A.
 Alpha  occ. eigenvalues --  -10.62587 -10.62516 -10.61638 -10.61438  -0.92977
 Alpha  occ. eigenvalues --   -0.84873  -0.69889  -0.64304  -0.54434  -0.54149
 Alpha  occ. eigenvalues --   -0.46537  -0.45335  -0.41409  -0.38067  -0.27661
 Alpha virt. eigenvalues --    0.01785   0.07022   0.07471   0.07997   0.09479
 Alpha virt. eigenvalues --    0.11647   0.12534   0.14567   0.15829   0.16308
 Alpha virt. eigenvalues --    0.18785   0.20439   0.21593   0.22830   0.23830

 Mulliken charges:
               1
     1  C   -0.170268
     2  C   -0.036469
     3  C   -0.029015
     4  C   -0.177141
     5  H    0.083833
     6  H    0.060327
     7  H    0.059267
     8  H    0.057439
     9  H    0.067832
    10  H    0.084195
 Sum of Mulliken charges =   0.00000

 Dipole moment (field-independent basis, Debye):
    X=              0.0215    Y=              0.0137    Z=              0.0000  Tot=              0.0255
 Quadrupole moment (field-independent basis, Debye-Ang):
   XX=            -23.4302   YY=            -23.1127   ZZ=            -29.2762
   XY=             -0.0217   XZ=             -0.1367   YZ=              0.0058

 1\1\GINC-NODE12\SP\RB2PLYPD3-FC\def2QZVP\C4H6\BOITTIER\26-Aug-2020\0\\
 #p B2PLYPD3/Def2QZVP\\butadiene\\0,1\C,0,-3.835805,0.226649,0.013688\C
 ,0,-2.721246,-0.517534,0.045942\C,0,-1.388156,0.066505,0.021525\C,0,-0
 .263063,-0.646577,0.020587\H,0,-4.851513,-0.165338,0.015696\H,0,-3.757
 633,1.302168,-0.097192\H,0,-2.827413,-1.584233,0.107179\H,0,-1.30894,1
 .149947,0.0704\H,0,-0.283626,-1.721885,0.037613\H,0,0.711569,-0.153281
 ,0.003142\\Version=ES64L-G09RevD.01\State=1-A\HF=-155.7003807\MP2=-155
 .92614\RMSD=3.530e-09\PG=C01 [X(C4H6)]\\@

 Normal termination of Gaussian 09 at Wed Aug 26 13:09:28 2020.
