 Gaussian 09, Revision D.01,
 Gaussian 09:  ES64L-G09RevD.01 24-Apr-2013

 --------------------
 #p B2PLYPD3/Def2QZVP
 --------------------

 ---------
 butadiene
 ---------
 Symbolic Z-matrix:
 Charge =  0 Multiplicity = 1

                         Standard orientation:
 ---------------------------------------------------------------------
 Center     Atomic      Atomic             Coordinates (Angstroms)
 Number     Number       Type             X           Y           Z
 ---------------------------------------------------------------------
      1          6           0       -1.840300    0.101222    0.002970
      2          6           0       -0.607489   -0.379572    0.004489
      3          6           0        0.617423    0.411777    0.004925
      4          6           0        1.840875   -0.126425   -0.013864
      5          1           0       -2.683451   -0.550701   -0.041586
      6          1           0       -2.029831    1.154386   -0.060159
      7          1           0       -0.499058   -1.453961    0.085980
      8          1           0        0.500612    1.503634    0.051499
      9          1           0        1.965235   -1.194888   -0.055047
     10          1           0        2.683442    0.499521    0.028189
 ---------------------------------------------------------------------

 SCF Done:  E(RB2PLYPD3) =  -155.700312104     A.U. after   11 cycles
 E2(B2PLYPD3) =    -0.2251851808D+00 E(B2PLYPD3) =    -0.15592549728518D+03

 The electronic state is 1-A.
 Alpha  occ. eigenvalues --  -10.62692 -10.62215 -10.61174 -10.60948  -0.92992
 Alpha  occ. eigenvalues --   -0.85306  -0.70328  -0.63952  -0.54836  -0.54299
 Alpha  occ. eigenvalues --   -0.46699  -0.45922  -0.41164  -0.38053  -0.27838
 Alpha virt. eigenvalues --    0.01863   0.07063   0.07458   0.08084   0.09676
 Alpha virt. eigenvalues --    0.11719   0.12450   0.14805   0.15771   0.16198
 Alpha virt. eigenvalues --    0.18799   0.20224   0.21797   0.22841   0.24075

 Mulliken charges:
               1
     1  C   -0.176647
     2  C   -0.023595
     3  C   -0.035806
     4  C   -0.177970
     5  H    0.085221
     6  H    0.063890
     7  H    0.052461
     8  H    0.052273
     9  H    0.069774
    10  H    0.090399
 Sum of Mulliken charges =   0.00000

 Dipole moment (field-independent basis, Debye):
    X=              0.0207    Y=              0.0015    Z=              0.0066  Tot=              0.0217
 Quadrupole moment (field-independent basis, Debye-Ang):
   XX=            -23.4993   YY=            -23.0501   ZZ=            -29.1697
   XY=             -0.0370   XZ=              0.2153   YZ=              0.0053

 1\1\GINC-NODE08\SP\RB2PLYPD3-FC\def2QZVP\C4H6\BOITTIER\26-Aug-2020\0\\
 #p B2PLYPD3/Def2QZVP\\butadiene\\0,1\C,0,-3.846701,0.210824,0.019\C,0,
 -2.71878,-0.480825,0.039101\C,0,-1.372877,0.080271,0.020118\C,0,-0.264
 393,-0.666797,0.021601\H,0,-4.792245,-0.282184,-0.008969\H,0,-3.846448
 ,1.278532,-0.076188\H,0,-2.802577,-1.55447,0.152998\H,0,-1.293981,1.17
 6427,0.033678\H,0,-0.331698,-1.741118,0.012757\H,0,0.675961,-0.199313,
 0.047841\\Version=ES64L-G09RevD.01\State=1-A\HF=-155.7003121\MP2=-155.
 9254973\RMSD=5.330e-09\PG=C01 [X(C4H6)]\\@

 Normal termination of Gaussian 09 at Wed Aug 26 09:05:33 2020.
