 Gaussian 09, Revision D.01,
 Gaussian 09:  ES64L-G09RevD.01 24-Apr-2013

 --------------------
 #p B2PLYPD3/Def2QZVP
 --------------------

 ---------
 butadiene
 ---------
 Symbolic Z-matrix:
 Charge =  0 Multiplicity = 1

                         Standard orientation:
 ---------------------------------------------------------------------
 Center     Atomic      Atomic             Coordinates (Angstroms)
 Number     Number       Type             X           Y           Z
 ---------------------------------------------------------------------
      1          6           0        1.835173    0.092127    0.002655
      2          6           0        0.598742   -0.381044   -0.010305
      3          6           0       -0.598769    0.407835   -0.010131
      4          6           0       -1.824202   -0.119371    0.000716
      5          1           0        2.695760   -0.529454    0.002428
      6          1           0        1.985215    1.179036    0.059111
      7          1           0        0.457997   -1.459292   -0.032796
      8          1           0       -0.494326    1.491361    0.001565
      9          1           0       -1.995557   -1.164920    0.092890
     10          1           0       -2.714753    0.485988   -0.020810
 ---------------------------------------------------------------------

 SCF Done:  E(RB2PLYPD3) =  -155.700408375     A.U. after   11 cycles
 E2(B2PLYPD3) =    -0.2253270632D+00 E(B2PLYPD3) =    -0.15592573543845D+03

 The electronic state is 1-A.
 Alpha  occ. eigenvalues --  -10.62424 -10.62123 -10.61263 -10.61229  -0.93404
 Alpha  occ. eigenvalues --   -0.85130  -0.70502  -0.64074  -0.55113  -0.54010
 Alpha  occ. eigenvalues --   -0.47000  -0.45317  -0.41201  -0.38422  -0.27675
 Alpha virt. eigenvalues --    0.01721   0.07046   0.07428   0.08073   0.09812
 Alpha virt. eigenvalues --    0.11693   0.12533   0.14780   0.15871   0.16280
 Alpha virt. eigenvalues --    0.18758   0.20524   0.21762   0.22792   0.23780

 Mulliken charges:
               1
     1  C   -0.176373
     2  C   -0.022986
     3  C   -0.028479
     4  C   -0.174263
     5  H    0.090549
     6  H    0.059330
     7  H    0.049944
     8  H    0.053563
     9  H    0.066199
    10  H    0.082517
 Sum of Mulliken charges =   0.00000

 Dipole moment (field-independent basis, Debye):
    X=             -0.0407    Y=             -0.0260    Z=              0.0855  Tot=              0.0982
 Quadrupole moment (field-independent basis, Debye-Ang):
   XX=            -23.3408   YY=            -23.2008   ZZ=            -29.1485
   XY=              0.0670   XZ=             -0.0227   YZ=             -0.0155

 1\1\GINC-NODE12\SP\RB2PLYPD3-FC\def2QZVP\C4H6\BOITTIER\26-Aug-2020\0\\
 #p B2PLYPD3/Def2QZVP\\butadiene\\0,1\C,0,-3.838947,0.208512,0.014683\C
 ,0,-2.708852,-0.480597,0.04355\C,0,-1.388092,0.077522,0.022156\C,0,-0.
 278704,-0.6634,0.028795\H,0,-4.798023,-0.2463,0.031766\H,0,-3.789499,1
 .302484,-0.073919\H,0,-2.765998,-1.56536,0.097933\H,0,-1.294248,1.1612
 01,-0.021532\H,0,-0.300244,-1.724922,-0.032348\H,0,0.706976,-0.229336,
 0.033982\\Version=ES64L-G09RevD.01\State=1-A\HF=-155.7004084\MP2=-155.
 9257354\RMSD=5.045e-09\PG=C01 [X(C4H6)]\\@

 Normal termination of Gaussian 09 at Wed Aug 26 18:35:01 2020.
