 Gaussian 09, Revision D.01,
 Gaussian 09:  ES64L-G09RevD.01 24-Apr-2013

 --------------------
 #p B2PLYPD3/Def2QZVP
 --------------------

 ---------
 butadiene
 ---------
 Symbolic Z-matrix:
 Charge =  0 Multiplicity = 1

                         Standard orientation:
 ---------------------------------------------------------------------
 Center     Atomic      Atomic             Coordinates (Angstroms)
 Number     Number       Type             X           Y           Z
 ---------------------------------------------------------------------
      1          6           0       -1.837834    0.096338    0.070564
      2          6           0       -0.595283   -0.424600   -0.092159
      3          6           0        0.615588    0.434435   -0.050583
      4          6           0        1.813675   -0.114557    0.063384
      5          1           0       -2.828709   -0.414939    0.198549
      6          1           0       -1.975960    1.174689   -0.032765
      7          1           0       -0.417785   -1.485381   -0.154002
      8          1           0        0.584601    1.525648   -0.142255
      9          1           0        1.973694   -1.173507    0.042983
     10          1           0        2.687285    0.423800    0.140253
 ---------------------------------------------------------------------

 SCF Done:  E(RB2PLYPD3) =  -155.689459532     A.U. after   11 cycles
 E2(B2PLYPD3) =    -0.2262105348D+00 E(B2PLYPD3) =    -0.15591567006673D+03

 The electronic state is 1-A.
 Alpha  occ. eigenvalues --  -10.63403 -10.62812 -10.62349 -10.60452  -0.92650
 Alpha  occ. eigenvalues --   -0.84681  -0.69865  -0.64530  -0.54997  -0.53411
 Alpha  occ. eigenvalues --   -0.47079  -0.44832  -0.41507  -0.37375  -0.27612
 Alpha virt. eigenvalues --    0.01956   0.07076   0.07372   0.08016   0.08976
 Alpha virt. eigenvalues --    0.11444   0.12813   0.14268   0.15930   0.16731
 Alpha virt. eigenvalues --    0.18878   0.20281   0.21620   0.23019   0.23866

 Mulliken charges:
               1
     1  C   -0.163622
     2  C   -0.049586
     3  C   -0.025874
     4  C   -0.170184
     5  H    0.078136
     6  H    0.061397
     7  H    0.068760
     8  H    0.062295
     9  H    0.057150
    10  H    0.081530
 Sum of Mulliken charges =   0.00000

 Dipole moment (field-independent basis, Debye):
    X=              0.0818    Y=              0.0216    Z=             -0.0567  Tot=              0.1018
 Quadrupole moment (field-independent basis, Debye-Ang):
   XX=            -23.1449   YY=            -23.2438   ZZ=            -29.2462
   XY=             -0.2511   XZ=             -0.1067   YZ=             -0.1213

 1\1\GINC-NODE26\SP\RB2PLYPD3-FC\def2QZVP\C4H6\BOITTIER\26-Aug-2020\0\\
 #p B2PLYPD3/Def2QZVP\\butadiene\\0,1\C,0,-3.841918,0.212946,0.090875\C
 ,0,-2.713995,-0.52822,-0.051423\C,0,-1.368432,0.100458,-0.041323\C,0,-
 0.287591,-0.65007,0.093898\H,0,-4.907637,-0.107079,0.237318\H,0,-3.784
 985,1.294004,-0.052897\H,0,-2.730053,-1.605183,-0.07334\H,0,-1.203721,
 1.17536,-0.173862\H,0,-0.320263,-1.720562,0.113313\H,0,0.668877,-0.274
 796,0.151077\\Version=ES64L-G09RevD.01\State=1-A\HF=-155.6894595\MP2=-
 155.9156701\RMSD=9.288e-09\PG=C01 [X(C4H6)]\\@

 Normal termination of Gaussian 09 at Wed Aug 26 13:54:06 2020.
