 Gaussian 09, Revision D.01,
 Gaussian 09:  ES64L-G09RevD.01 24-Apr-2013

 --------------------
 #p B2PLYPD3/Def2QZVP
 --------------------

 ---------
 butadiene
 ---------
 Symbolic Z-matrix:
 Charge =  0 Multiplicity = 1

                         Standard orientation:
 ---------------------------------------------------------------------
 Center     Atomic      Atomic             Coordinates (Angstroms)
 Number     Number       Type             X           Y           Z
 ---------------------------------------------------------------------
      1          6           0        1.847270    0.104826    0.011192
      2          6           0        0.612183   -0.388212   -0.019174
      3          6           0       -0.610487    0.407512   -0.005967
      4          6           0       -1.839478   -0.123816   -0.000669
      5          1           0        2.723004   -0.521021    0.067077
      6          1           0        1.985876    1.185613   -0.032972
      7          1           0        0.515784   -1.480022   -0.032275
      8          1           0       -0.518859    1.481021    0.010829
      9          1           0       -2.026622   -1.183813    0.038896
     10          1           0       -2.736115    0.516365    0.036160
 ---------------------------------------------------------------------

 SCF Done:  E(RB2PLYPD3) =  -155.700195166     A.U. after   11 cycles
 E2(B2PLYPD3) =    -0.2257548262D+00 E(B2PLYPD3) =    -0.15592594999247D+03

 The electronic state is 1-A.
 Alpha  occ. eigenvalues --  -10.62705 -10.62565 -10.61776 -10.61431  -0.92866
 Alpha  occ. eigenvalues --   -0.84976  -0.69929  -0.64021  -0.54562  -0.53947
 Alpha  occ. eigenvalues --   -0.46804  -0.45172  -0.41147  -0.38065  -0.27754
 Alpha virt. eigenvalues --    0.01755   0.06983   0.07460   0.07964   0.09604
 Alpha virt. eigenvalues --    0.11637   0.12428   0.14591   0.15914   0.16205
 Alpha virt. eigenvalues --    0.18831   0.20551   0.21489   0.22657   0.23824

 Mulliken charges:
               1
     1  C   -0.175804
     2  C   -0.026178
     3  C   -0.038006
     4  C   -0.170499
     5  H    0.089069
     6  H    0.061846
     7  H    0.051950
     8  H    0.058763
     9  H    0.069026
    10  H    0.079832
 Sum of Mulliken charges =   0.00000

 Dipole moment (field-independent basis, Debye):
    X=             -0.0182    Y=             -0.0143    Z=              0.0636  Tot=              0.0677
 Quadrupole moment (field-independent basis, Debye-Ang):
   XX=            -23.4173   YY=            -23.1151   ZZ=            -29.2972
   XY=              0.0133   XZ=             -0.0673   YZ=             -0.0654

 1\1\GINC-NODE26\SP\RB2PLYPD3-FC\def2QZVP\C4H6\BOITTIER\26-Aug-2020\0\\
 #p B2PLYPD3/Def2QZVP\\butadiene\\0,1\C,0,-3.851281,0.212512,0.007516\C
 ,0,-2.721984,-0.489046,0.051715\C,0,-1.37854,0.078731,0.019169\C,0,-0.
 262103,-0.660346,0.028696\H,0,-4.823583,-0.250846,-0.033057\H,0,-3.797
 596,1.301603,0.023714\H,0,-2.818949,-1.580103,0.093006\H,0,-1.280108,1
 .150846,-0.025341\H,0,-0.264335,-1.737393,0.016605\H,0,0.732961,-0.188
 922,-0.023764\\Version=ES64L-G09RevD.01\State=1-A\HF=-155.7001952\MP2=
 -155.92595\RMSD=4.841e-09\PG=C01 [X(C4H6)]\\@

 Normal termination of Gaussian 09 at Wed Aug 26 22:23:18 2020.
