 Gaussian 09, Revision D.01,
 Gaussian 09:  ES64L-G09RevD.01 24-Apr-2013

 --------------------
 #p B2PLYPD3/Def2QZVP
 --------------------

 ---------
 butadiene
 ---------
 Symbolic Z-matrix:
 Charge =  0 Multiplicity = 1

                         Standard orientation:
 ---------------------------------------------------------------------
 Center     Atomic      Atomic             Coordinates (Angstroms)
 Number     Number       Type             X           Y           Z
 ---------------------------------------------------------------------
      1          6           0       -1.835816   -0.113741    0.004287
      2          6           0       -0.610157    0.395502   -0.018750
      3          6           0        0.611288   -0.381860   -0.017483
      4          6           0        1.847060    0.105083    0.019133
      5          1           0       -2.719370    0.503230    0.087813
      6          1           0       -1.978847   -1.185085    0.041014
      7          1           0       -0.507249    1.476662   -0.058182
      8          1           0        0.460614   -1.428228   -0.054740
      9          1           0        2.022132    1.176827    0.024230
     10          1           0        2.648470   -0.573303    0.036743
 ---------------------------------------------------------------------

 SCF Done:  E(RB2PLYPD3) =  -155.700140057     A.U. after   11 cycles
 E2(B2PLYPD3) =    -0.2250790453D+00 E(B2PLYPD3) =    -0.15592521910269D+03

 The electronic state is 1-A.
 Alpha  occ. eigenvalues --  -10.62256 -10.61979 -10.61374 -10.61123  -0.93242
 Alpha  occ. eigenvalues --   -0.85305  -0.70441  -0.64212  -0.54914  -0.54165
 Alpha  occ. eigenvalues --   -0.46917  -0.45893  -0.41130  -0.38185  -0.27836
 Alpha virt. eigenvalues --    0.01799   0.07017   0.07514   0.08120   0.09854
 Alpha virt. eigenvalues --    0.11731   0.12413   0.14791   0.15859   0.16094
 Alpha virt. eigenvalues --    0.18796   0.20539   0.21553   0.22762   0.24029

 Mulliken charges:
               1
     1  C   -0.174851
     2  C   -0.024694
     3  C   -0.031433
     4  C   -0.180780
     5  H    0.086312
     6  H    0.060987
     7  H    0.050258
     8  H    0.053861
     9  H    0.070177
    10  H    0.090164
 Sum of Mulliken charges =   0.00000

 Dipole moment (field-independent basis, Debye):
    X=             -0.0151    Y=             -0.0177    Z=              0.0496  Tot=              0.0548
 Quadrupole moment (field-independent basis, Debye-Ang):
   XX=            -23.5081   YY=            -23.1010   ZZ=            -29.1351
   XY=              0.0280   XZ=             -0.1944   YZ=              0.0041

 1\1\GINC-NODE09\SP\RB2PLYPD3-FC\def2QZVP\C4H6\BOITTIER\26-Aug-2020\0\\
 #p B2PLYPD3/Def2QZVP\\butadiene\\0,1\C,0,-3.839268,0.225926,0.009677\C
 ,0,-2.724554,-0.493565,0.0526\C,0,-1.383661,0.052115,0.031147\C,0,-0.2
 55143,-0.649121,0.013785\H,0,-4.819211,-0.225181,-0.057504\H,0,-3.7882
 37,1.303889,-0.060869\H,0,-2.816811,-1.573912,0.126022\H,0,-1.344448,1
 .109197,0.035302\H,0,-0.274821,-1.734521,0.042645\H,0,0.654744,-0.1260
 73,-0.022303\\Version=ES64L-G09RevD.01\State=1-A\HF=-155.7001401\MP2=-
 155.9252191\RMSD=3.681e-09\PG=C01 [X(C4H6)]\\@

 Normal termination of Gaussian 09 at Wed Aug 26 21:48:02 2020.
