 Gaussian 09, Revision D.01,
 Gaussian 09:  ES64L-G09RevD.01 24-Apr-2013

 --------------------
 #p B2PLYPD3/Def2QZVP
 --------------------

 ---------
 butadiene
 ---------
 Symbolic Z-matrix:
 Charge =  0 Multiplicity = 1

                         Standard orientation:
 ---------------------------------------------------------------------
 Center     Atomic      Atomic             Coordinates (Angstroms)
 Number     Number       Type             X           Y           Z
 ---------------------------------------------------------------------
      1          6           0       -1.853918   -0.126612   -0.002179
      2          6           0       -0.612379    0.422565   -0.023205
      3          6           0        0.605174   -0.369182   -0.013925
      4          6           0        1.862279    0.075803    0.022643
      5          1           0       -2.735695    0.483060    0.094124
      6          1           0       -1.993018   -1.200101   -0.025124
      7          1           0       -0.531673    1.517545    0.021578
      8          1           0        0.405942   -1.453555    0.056481
      9          1           0        2.084131    1.174252   -0.020742
     10          1           0        2.763381   -0.536643   -0.026322
 ---------------------------------------------------------------------

 SCF Done:  E(RB2PLYPD3) =  -155.696574999     A.U. after   11 cycles
 E2(B2PLYPD3) =    -0.2267260748D+00 E(B2PLYPD3) =    -0.15592330107377D+03

 The electronic state is 1-A.
 Alpha  occ. eigenvalues --  -10.63174 -10.62948 -10.62144 -10.62004  -0.92681
 Alpha  occ. eigenvalues --   -0.84592  -0.70330  -0.63643  -0.54825  -0.53237
 Alpha  occ. eigenvalues --   -0.46953  -0.45164  -0.40734  -0.37991  -0.27604
 Alpha virt. eigenvalues --    0.01261   0.06987   0.07335   0.07987   0.09547
 Alpha virt. eigenvalues --    0.11526   0.12435   0.14529   0.15766   0.16276
 Alpha virt. eigenvalues --    0.18953   0.20127   0.21658   0.22949   0.23244

 Mulliken charges:
               1
     1  C   -0.176038
     2  C   -0.031799
     3  C   -0.028829
     4  C   -0.166691
     5  H    0.088003
     6  H    0.066244
     7  H    0.054851
     8  H    0.050953
     9  H    0.055621
    10  H    0.087686
 Sum of Mulliken charges =   0.00000

 Dipole moment (field-independent basis, Debye):
    X=             -0.0508    Y=              0.0034    Z=              0.0616  Tot=              0.0799
 Quadrupole moment (field-independent basis, Debye-Ang):
   XX=            -23.1178   YY=            -23.3627   ZZ=            -29.4160
   XY=              0.1621   XZ=             -0.3755   YZ=              0.0461

 1\1\GINC-NODE17\SP\RB2PLYPD3-FC\def2QZVP\C4H6\BOITTIER\26-Aug-2020\0\\
 #p B2PLYPD3/Def2QZVP\\butadiene\\0,1\C,0,-3.852616,0.244049,0.012361\C
 ,0,-2.73064,-0.519335,0.055611\C,0,-1.390139,0.038961,0.028304\C,0,-0.
 234085,-0.626546,0.010939\H,0,-4.83007,-0.199061,-0.069752\H,0,-3.7955
 62,1.325207,0.002502\H,0,-2.849027,-1.611741,0.044013\H,0,-1.390339,1.
 138846,-0.07547\H,0,-0.214201,-1.745171,0.08823\H,0,0.762838,-0.185631
 ,0.045743\\Version=ES64L-G09RevD.01\State=1-A\HF=-155.696575\MP2=-155.
 9233011\RMSD=5.951e-09\PG=C01 [X(C4H6)]\\@

 Normal termination of Gaussian 09 at Wed Aug 26 09:33:00 2020.
