 Gaussian 09, Revision D.01,
 Gaussian 09:  ES64L-G09RevD.01 24-Apr-2013

 --------------------
 #p B2PLYPD3/Def2QZVP
 --------------------

 ---------
 butadiene
 ---------
 Symbolic Z-matrix:
 Charge =  0 Multiplicity = 1

                         Standard orientation:
 ---------------------------------------------------------------------
 Center     Atomic      Atomic             Coordinates (Angstroms)
 Number     Number       Type             X           Y           Z
 ---------------------------------------------------------------------
      1          6           0       -1.822274   -0.136539    0.024308
      2          6           0       -0.620304    0.437873   -0.042725
      3          6           0        0.602818   -0.386472   -0.049247
      4          6           0        1.840890    0.094964    0.045135
      5          1           0       -2.686488    0.488241    0.115034
      6          1           0       -1.922811   -1.247116   -0.011407
      7          1           0       -0.544604    1.510115   -0.017637
      8          1           0        0.452616   -1.458807    0.030418
      9          1           0        1.965296    1.162535    0.001498
     10          1           0        2.729215   -0.513922    0.017269
 ---------------------------------------------------------------------

 SCF Done:  E(RB2PLYPD3) =  -155.697756496     A.U. after   11 cycles
 E2(B2PLYPD3) =    -0.2257679230D+00 E(B2PLYPD3) =    -0.15592352441907D+03

 The electronic state is 1-A.
 Alpha  occ. eigenvalues --  -10.62595 -10.62522 -10.61718 -10.61149  -0.92839
 Alpha  occ. eigenvalues --   -0.85030  -0.69569  -0.64157  -0.54568  -0.53909
 Alpha  occ. eigenvalues --   -0.46578  -0.45342  -0.41298  -0.37941  -0.27815
 Alpha virt. eigenvalues --    0.02009   0.07064   0.07373   0.08089   0.09269
 Alpha virt. eigenvalues --    0.11747   0.12486   0.14497   0.15652   0.16314
 Alpha virt. eigenvalues --    0.18764   0.19758   0.21585   0.23474   0.24082

 Mulliken charges:
               1
     1  C   -0.172649
     2  C   -0.040694
     3  C   -0.027382
     4  C   -0.174691
     5  H    0.086173
     6  H    0.067997
     7  H    0.059098
     8  H    0.055409
     9  H    0.060232
    10  H    0.086507
 Sum of Mulliken charges =   0.00000

 Dipole moment (field-independent basis, Debye):
    X=             -0.0593    Y=              0.0354    Z=              0.0551  Tot=              0.0883
 Quadrupole moment (field-independent basis, Debye-Ang):
   XX=            -23.6920   YY=            -22.9897   ZZ=            -29.2788
   XY=             -0.0910   XZ=             -0.2529   YZ=              0.0104

 1\1\GINC-NODE13\SP\RB2PLYPD3-FC\def2QZVP\C4H6\BOITTIER\26-Aug-2020\0\\
 #p B2PLYPD3/Def2QZVP\\butadiene\\0,1\C,0,-3.821626,0.239743,-0.013204\
 C,0,-2.739275,-0.534532,0.077294\C,0,-1.390211,0.061588,0.060497\C,0,-
 0.256358,-0.632991,-0.013317\H,0,-4.782479,-0.225993,-0.085986\H,0,-3.
 725161,1.351253,-0.015097\H,0,-2.853421,-1.603601,0.088435\H,0,-1.3496
 42,1.14033,-0.055604\H,0,-0.321569,-1.70372,0.066525\H,0,0.725283,-0.1
 89246,-0.002742\\Version=ES64L-G09RevD.01\State=1-A\HF=-155.6977565\MP
 2=-155.9235244\RMSD=5.081e-09\PG=C01 [X(C4H6)]\\@

 Normal termination of Gaussian 09 at Wed Aug 26 09:16:03 2020.
