 Gaussian 09, Revision D.01,
 Gaussian 09:  ES64L-G09RevD.01 24-Apr-2013

 --------------------
 #p B2PLYPD3/Def2QZVP
 --------------------

 ---------
 butadiene
 ---------
 Symbolic Z-matrix:
 Charge =  0 Multiplicity = 1

                         Standard orientation:
 ---------------------------------------------------------------------
 Center     Atomic      Atomic             Coordinates (Angstroms)
 Number     Number       Type             X           Y           Z
 ---------------------------------------------------------------------
      1          6           0       -1.851325    0.100453    0.005011
      2          6           0       -0.609798   -0.383119   -0.035643
      3          6           0        0.608995    0.413387   -0.009101
      4          6           0        1.836309   -0.123464    0.009524
      5          1           0       -2.716250   -0.537961    0.057495
      6          1           0       -2.014830    1.167705    0.059779
      7          1           0       -0.474720   -1.460616    0.021255
      8          1           0        0.547337    1.514283   -0.022512
      9          1           0        1.986461   -1.210300    0.035779
     10          1           0        2.766920    0.483345    0.029464
 ---------------------------------------------------------------------

 SCF Done:  E(RB2PLYPD3) =  -155.699243099     A.U. after   11 cycles
 E2(B2PLYPD3) =    -0.2260724535D+00 E(B2PLYPD3) =    -0.15592531555197D+03

 The electronic state is 1-A.
 Alpha  occ. eigenvalues --  -10.62925 -10.62619 -10.62100 -10.61420  -0.92852
 Alpha  occ. eigenvalues --   -0.84866  -0.69882  -0.63835  -0.54480  -0.53852
 Alpha  occ. eigenvalues --   -0.46628  -0.45105  -0.41071  -0.38111  -0.27733
 Alpha virt. eigenvalues --    0.01680   0.06986   0.07393   0.07928   0.09575
 Alpha virt. eigenvalues --    0.11600   0.12445   0.14521   0.15790   0.16320
 Alpha virt. eigenvalues --    0.18837   0.20406   0.21573   0.22694   0.23671

 Mulliken charges:
               1
     1  C   -0.174005
     2  C   -0.029094
     3  C   -0.033171
     4  C   -0.169485
     5  H    0.087689
     6  H    0.064933
     7  H    0.054601
     8  H    0.054221
     9  H    0.061919
    10  H    0.082392
 Sum of Mulliken charges =   0.00000

 Dipole moment (field-independent basis, Debye):
    X=              0.0251    Y=             -0.0056    Z=              0.1368  Tot=              0.1392
 Quadrupole moment (field-independent basis, Debye-Ang):
   XX=            -23.3564   YY=            -23.1816   ZZ=            -29.3409
   XY=             -0.0098   XZ=             -0.1866   YZ=             -0.0612

 1\1\GINC-NODE04\SP\RB2PLYPD3-FC\def2QZVP\C4H6\BOITTIER\26-Aug-2020\0\\
 #p B2PLYPD3/Def2QZVP\\butadiene\\0,1\C,0,-3.855146,0.209657,0.028924\C
 ,0,-2.718501,-0.486322,0.005778\C,0,-1.378303,0.083283,0.004885\C,0,-0
 .264694,-0.660551,0.042844\H,0,-4.818708,-0.264078,0.1034\H,0,-3.82772
 9,1.290264,0.046161\H,0,-2.775061,-1.568133,0.100486\H,0,-1.245099,1.1
 76674,-0.047152\H,0,-0.308237,-1.755267,0.107261\H,0,0.758374,-0.22698
 2,0.041884\\Version=ES64L-G09RevD.01\State=1-A\HF=-155.6992431\MP2=-15
 5.9253156\RMSD=2.769e-09\PG=C01 [X(C4H6)]\\@

 Normal termination of Gaussian 09 at Wed Aug 26 18:56:13 2020.
