 Gaussian 09, Revision D.01,
 Gaussian 09:  ES64L-G09RevD.01 24-Apr-2013

 --------------------
 #p B2PLYPD3/Def2QZVP
 --------------------

 ---------
 butadiene
 ---------
 Symbolic Z-matrix:
 Charge =  0 Multiplicity = 1

                         Standard orientation:
 ---------------------------------------------------------------------
 Center     Atomic      Atomic             Coordinates (Angstroms)
 Number     Number       Type             X           Y           Z
 ---------------------------------------------------------------------
      1          6           0        1.830342    0.107016    0.004734
      2          6           0        0.601887   -0.390561   -0.011199
      3          6           0       -0.600973    0.409238   -0.029565
      4          6           0       -1.826187   -0.115632    0.021638
      5          1           0        2.655951   -0.563353    0.028785
      6          1           0        2.040336    1.156184    0.079258
      7          1           0        0.472642   -1.456283   -0.056474
      8          1           0       -0.495404    1.501911   -0.018893
      9          1           0       -1.968528   -1.171154    0.058606
     10          1           0       -2.735402    0.472334   -0.004925
 ---------------------------------------------------------------------

 SCF Done:  E(RB2PLYPD3) =  -155.700730858     A.U. after   11 cycles
 E2(B2PLYPD3) =    -0.2252214492D+00 E(B2PLYPD3) =    -0.15592595230752D+03

 The electronic state is 1-A.
 Alpha  occ. eigenvalues --  -10.62498 -10.62135 -10.61274 -10.60969  -0.93250
 Alpha  occ. eigenvalues --   -0.85135  -0.70345  -0.64233  -0.54777  -0.54286
 Alpha  occ. eigenvalues --   -0.46656  -0.45708  -0.41245  -0.38299  -0.27701
 Alpha virt. eigenvalues --    0.01842   0.07042   0.07465   0.08074   0.09681
 Alpha virt. eigenvalues --    0.11703   0.12505   0.14857   0.15778   0.16342
 Alpha virt. eigenvalues --    0.18765   0.20286   0.22023   0.22719   0.23936

 Mulliken charges:
               1
     1  C   -0.176825
     2  C   -0.029399
     3  C   -0.029155
     4  C   -0.173294
     5  H    0.082894
     6  H    0.069197
     7  H    0.056342
     8  H    0.054001
     9  H    0.062498
    10  H    0.083742
 Sum of Mulliken charges =   0.00000

 Dipole moment (field-independent basis, Debye):
    X=             -0.0176    Y=             -0.0186    Z=              0.0564  Tot=              0.0619
 Quadrupole moment (field-independent basis, Debye-Ang):
   XX=            -23.4613   YY=            -23.0681   ZZ=            -29.1555
   XY=              0.1766   XZ=              0.1265   YZ=              0.0602

 1\1\GINC-NODE17\SP\RB2PLYPD3-FC\def2QZVP\C4H6\BOITTIER\26-Aug-2020\0\\
 #p B2PLYPD3/Def2QZVP\\butadiene\\0,1\C,0,-3.832577,0.219783,0.009709\C
 ,0,-2.714225,-0.490789,0.045954\C,0,-1.386581,0.078619,0.041067\C,0,-0
 .27656,-0.660445,0.011119\H,0,-4.765811,-0.290767,0.005694\H,0,-3.8497
 45,1.286531,-0.100563\H,0,-2.77956,-1.560195,0.127309\H,0,-1.292981,1.
 171398,-0.006538\H,0,-0.32743,-1.724947,0.009975\H,0,0.724019,-0.24591
 9,0.020654\\Version=ES64L-G09RevD.01\State=1-A\HF=-155.7007309\MP2=-15
 5.9259523\RMSD=3.150e-09\PG=C01 [X(C4H6)]\\@

 Normal termination of Gaussian 09 at Wed Aug 26 16:12:49 2020.
