 Gaussian 09, Revision D.01,
 Gaussian 09:  ES64L-G09RevD.01 24-Apr-2013

 --------------------
 #p B2PLYPD3/Def2QZVP
 --------------------

 ---------
 butadiene
 ---------
 Symbolic Z-matrix:
 Charge =  0 Multiplicity = 1

                         Standard orientation:
 ---------------------------------------------------------------------
 Center     Atomic      Atomic             Coordinates (Angstroms)
 Number     Number       Type             X           Y           Z
 ---------------------------------------------------------------------
      1          6           0       -1.847983   -0.133745    0.023904
      2          6           0       -0.621125    0.404303   -0.022330
      3          6           0        0.610849   -0.376409   -0.047396
      4          6           0        1.843987    0.106940    0.006107
      5          1           0       -2.621155    0.548506    0.110476
      6          1           0       -2.001076   -1.207852    0.012171
      7          1           0       -0.540592    1.485772   -0.049492
      8          1           0        0.539685   -1.429396   -0.065886
      9          1           0        2.017345    1.171565    0.016443
     10          1           0        2.691422   -0.575135    0.214581
 ---------------------------------------------------------------------

 SCF Done:  E(RB2PLYPD3) =  -155.695355043     A.U. after   11 cycles
 E2(B2PLYPD3) =    -0.2254568333D+00 E(B2PLYPD3) =    -0.15592081187652D+03

 The electronic state is 1-A.
 Alpha  occ. eigenvalues --  -10.62594 -10.61945 -10.61434 -10.61120  -0.92998
 Alpha  occ. eigenvalues --   -0.85359  -0.70059  -0.64214  -0.54994  -0.53923
 Alpha  occ. eigenvalues --   -0.46227  -0.46122  -0.41545  -0.37846  -0.27743
 Alpha virt. eigenvalues --    0.01753   0.06978   0.07547   0.08024   0.09679
 Alpha virt. eigenvalues --    0.11758   0.12298   0.14753   0.15893   0.15967
 Alpha virt. eigenvalues --    0.18841   0.20457   0.21245   0.22709   0.24270

 Mulliken charges:
               1
     1  C   -0.181385
     2  C   -0.040221
     3  C   -0.025064
     4  C   -0.173569
     5  H    0.089552
     6  H    0.075390
     7  H    0.053281
     8  H    0.057576
     9  H    0.063668
    10  H    0.080771
 Sum of Mulliken charges =   0.00000

 Dipole moment (field-independent basis, Debye):
    X=             -0.0552    Y=              0.0005    Z=              0.1699  Tot=              0.1786
 Quadrupole moment (field-independent basis, Debye-Ang):
   XX=            -23.9395   YY=            -22.8777   ZZ=            -29.1531
   XY=             -0.0786   XZ=              0.3320   YZ=             -0.0644

 1\1\GINC-NODE39\SP\RB2PLYPD3-FC\def2QZVP\C4H6\BOITTIER\26-Aug-2020\0\\
 #p B2PLYPD3/Def2QZVP\\butadiene\\0,1\C,0,-3.846763,0.238121,-0.006448\
 C,0,-2.732346,-0.50403,0.057591\C,0,-1.382874,0.049874,0.053862\C,0,-0
 .253437,-0.643003,0.016288\H,0,-4.727741,-0.301168,-0.068109\H,0,-3.80
 995,1.322208,-0.032537\H,0,-2.841612,-1.58134,0.122881\H,0,-1.26903,1.
 099102,0.035193\H,0,-0.268632,-1.721251,0.043418\H,0,0.69853,-0.127077
 ,-0.216979\\Version=ES64L-G09RevD.01\State=1-A\HF=-155.695355\MP2=-155
 .9208119\RMSD=6.610e-09\PG=C01 [X(C4H6)]\\@

 Normal termination of Gaussian 09 at Wed Aug 26 22:18:07 2020.
