 Gaussian 09, Revision D.01,
 Gaussian 09:  ES64L-G09RevD.01 24-Apr-2013

 --------------------
 #p B2PLYPD3/Def2QZVP
 --------------------

 ---------
 butadiene
 ---------
 Symbolic Z-matrix:
 Charge =  0 Multiplicity = 1

                         Standard orientation:
 ---------------------------------------------------------------------
 Center     Atomic      Atomic             Coordinates (Angstroms)
 Number     Number       Type             X           Y           Z
 ---------------------------------------------------------------------
      1          6           0        1.854902    0.082997   -0.042895
      2          6           0        0.601872   -0.382622    0.046345
      3          6           0       -0.617063    0.445339   -0.002716
      4          6           0       -1.850505   -0.136688   -0.015270
      5          1           0        2.743896   -0.519341    0.030772
      6          1           0        2.032890    1.128806   -0.090813
      7          1           0        0.472670   -1.428509    0.126642
      8          1           0       -0.497267    1.512439    0.150034
      9          1           0       -1.997836   -1.248788   -0.148478
     10          1           0       -2.689588    0.501232    0.019064
 ---------------------------------------------------------------------

 SCF Done:  E(RB2PLYPD3) =  -155.694188636     A.U. after   11 cycles
 E2(B2PLYPD3) =    -0.2264111378D+00 E(B2PLYPD3) =    -0.15592059977387D+03

 The electronic state is 1-A.
 Alpha  occ. eigenvalues --  -10.63263 -10.62358 -10.62290 -10.61131  -0.92435
 Alpha  occ. eigenvalues --   -0.84576  -0.70152  -0.64370  -0.54589  -0.53672
 Alpha  occ. eigenvalues --   -0.46620  -0.45715  -0.41445  -0.37446  -0.27528
 Alpha virt. eigenvalues --    0.01479   0.07074   0.07435   0.08058   0.09158
 Alpha virt. eigenvalues --    0.11620   0.12407   0.14612   0.15621   0.16387
 Alpha virt. eigenvalues --    0.18907   0.19991   0.21672   0.22846   0.23695

 Mulliken charges:
               1
     1  C   -0.172207
     2  C   -0.031367
     3  C   -0.048973
     4  C   -0.178813
     5  H    0.083260
     6  H    0.059230
     7  H    0.061111
     8  H    0.066395
     9  H    0.073604
    10  H    0.087760
 Sum of Mulliken charges =   0.00000

 Dipole moment (field-independent basis, Debye):
    X=             -0.0374    Y=              0.0220    Z=              0.1101  Tot=              0.1184
 Quadrupole moment (field-independent basis, Debye-Ang):
   XX=            -23.4859   YY=            -23.0408   ZZ=            -29.3423
   XY=              0.1628   XZ=              0.1141   YZ=              0.1543

 1\1\GINC-NODE35\SP\RB2PLYPD3-FC\def2QZVP\C4H6\BOITTIER\26-Aug-2020\0\\
 #p B2PLYPD3/Def2QZVP\\butadiene\\0,1\C,0,-3.863628,0.200782,0.055955\C
 ,0,-2.71492,-0.485574,-0.009135\C,0,-1.366992,0.111542,0.007323\C,0,-0
 .257939,-0.681275,0.048958\H,0,-4.846614,-0.234871,0.006036\H,0,-3.850
 861,1.262632,0.057604\H,0,-2.775855,-1.540155,-0.043274\H,0,-1.294146,
 1.175143,-0.19226\H,0,-0.311867,-1.794893,0.231065\H,0,0.6818,-0.20639
 5,-0.010724\\Version=ES64L-G09RevD.01\State=1-A\HF=-155.6941886\MP2=-1
 55.9205998\RMSD=7.960e-09\PG=C01 [X(C4H6)]\\@

 Normal termination of Gaussian 09 at Wed Aug 26 08:48:43 2020.
