 Gaussian 09, Revision D.01,
 Gaussian 09:  ES64L-G09RevD.01 24-Apr-2013

 --------------------
 #p B2PLYPD3/Def2QZVP
 --------------------

 ---------
 butadiene
 ---------
 Symbolic Z-matrix:
 Charge =  0 Multiplicity = 1

                         Standard orientation:
 ---------------------------------------------------------------------
 Center     Atomic      Atomic             Coordinates (Angstroms)
 Number     Number       Type             X           Y           Z
 ---------------------------------------------------------------------
      1          6           0       -1.846283    0.105504   -0.013302
      2          6           0       -0.607378   -0.390314   -0.018358
      3          6           0        0.597666    0.373432    0.024206
      4          6           0        1.847157   -0.102998    0.005384
      5          1           0       -2.715126   -0.500964    0.027178
      6          1           0       -1.994230    1.202191   -0.054291
      7          1           0       -0.523441   -1.468030    0.137831
      8          1           0        0.486131    1.424608    0.058269
      9          1           0        2.101572   -1.118304   -0.119117
     10          1           0        2.698119    0.546757   -0.037451
 ---------------------------------------------------------------------

 SCF Done:  E(RB2PLYPD3) =  -155.696889188     A.U. after   11 cycles
 E2(B2PLYPD3) =    -0.2255440567D+00 E(B2PLYPD3) =    -0.15592243324515D+03

 The electronic state is 1-A.
 Alpha  occ. eigenvalues --  -10.62348 -10.62158 -10.61651 -10.61154  -0.93338
 Alpha  occ. eigenvalues --   -0.85109  -0.70994  -0.64231  -0.55248  -0.54086
 Alpha  occ. eigenvalues --   -0.47220  -0.45309  -0.41177  -0.38250  -0.27626
 Alpha virt. eigenvalues --    0.01338   0.07040   0.07604   0.08025   0.09795
 Alpha virt. eigenvalues --    0.11613   0.12568   0.14862   0.15582   0.16464
 Alpha virt. eigenvalues --    0.18918   0.20159   0.21892   0.22750   0.23683

 Mulliken charges:
               1
     1  C   -0.176406
     2  C   -0.027790
     3  C   -0.033819
     4  C   -0.169702
     5  H    0.090446
     6  H    0.058841
     7  H    0.056068
     8  H    0.057057
     9  H    0.066763
    10  H    0.078542
 Sum of Mulliken charges =   0.00000

 Dipole moment (field-independent basis, Debye):
    X=             -0.0175    Y=             -0.0064    Z=              0.0052  Tot=              0.0194
 Quadrupole moment (field-independent basis, Debye-Ang):
   XX=            -23.1130   YY=            -23.3436   ZZ=            -29.1154
   XY=             -0.0744   XZ=             -0.4500   YZ=             -0.0846

 1\1\GINC-NODE39\SP\RB2PLYPD3-FC\def2QZVP\C4H6\BOITTIER\26-Aug-2020\0\\
 #p B2PLYPD3/Def2QZVP\\butadiene\\0,1\C,0,-3.847742,0.22299,0.011045\C,
 0,-2.718733,-0.4883,0.023385\C,0,-1.395334,0.046254,0.034252\C,0,-0.25
 2533,-0.648417,0.032064\H,0,-4.811378,-0.214561,0.076499\H,0,-3.795712
 ,1.325992,-0.07244\H,0,-2.829308,-1.556709,0.221342\H,0,-1.31506,1.100
 807,0.02748\H,0,-0.186581,-1.696969,-0.053155\H,0,0.701307,-0.165182,-
 0.037403\\Version=ES64L-G09RevD.01\State=1-A\HF=-155.6968892\MP2=-155.
 9224332\RMSD=4.722e-09\PG=C01 [X(C4H6)]\\@

 Normal termination of Gaussian 09 at Wed Aug 26 08:55:51 2020.
