 Gaussian 09, Revision D.01,
 Gaussian 09:  ES64L-G09RevD.01 24-Apr-2013

 --------------------
 #p B2PLYPD3/Def2QZVP
 --------------------

 ---------
 butadiene
 ---------
 Symbolic Z-matrix:
 Charge =  0 Multiplicity = 1

                         Standard orientation:
 ---------------------------------------------------------------------
 Center     Atomic      Atomic             Coordinates (Angstroms)
 Number     Number       Type             X           Y           Z
 ---------------------------------------------------------------------
      1          6           0        1.840574   -0.118230    0.014507
      2          6           0        0.617665    0.402662   -0.021838
      3          6           0       -0.603865   -0.361628   -0.018872
      4          6           0       -1.849248    0.104488   -0.004998
      5          1           0        2.727561    0.489396    0.015632
      6          1           0        1.919658   -1.209419    0.058100
      7          1           0        0.495181    1.499675   -0.064502
      8          1           0       -0.429982   -1.457577    0.021779
      9          1           0       -2.093735    1.155740    0.176122
     10          1           0       -2.649439   -0.641564   -0.019920
 ---------------------------------------------------------------------

 SCF Done:  E(RB2PLYPD3) =  -155.697050445     A.U. after   11 cycles
 E2(B2PLYPD3) =    -0.2260554962D+00 E(B2PLYPD3) =    -0.15592310594095D+03

 The electronic state is 1-A.
 Alpha  occ. eigenvalues --  -10.62606 -10.62456 -10.61759 -10.61650  -0.93170
 Alpha  occ. eigenvalues --   -0.85116  -0.70241  -0.63321  -0.54616  -0.53738
 Alpha  occ. eigenvalues --   -0.46825  -0.45503  -0.40639  -0.38242  -0.27800
 Alpha virt. eigenvalues --    0.01556   0.06954   0.07305   0.07976   0.09821
 Alpha virt. eigenvalues --    0.11704   0.12265   0.14808   0.15643   0.16127
 Alpha virt. eigenvalues --    0.18723   0.20367   0.21381   0.22497   0.24038

 Mulliken charges:
               1
     1  C   -0.175288
     2  C   -0.023308
     3  C   -0.022857
     4  C   -0.179500
     5  H    0.093464
     6  H    0.061213
     7  H    0.045852
     8  H    0.042390
     9  H    0.074004
    10  H    0.084030
 Sum of Mulliken charges =   0.00000

 Dipole moment (field-independent basis, Debye):
    X=              0.0601    Y=              0.0188    Z=              0.1582  Tot=              0.1703
 Quadrupole moment (field-independent basis, Debye-Ang):
   XX=            -23.6168   YY=            -23.2102   ZZ=            -29.2512
   XY=             -0.0321   XZ=             -0.2258   YZ=              0.0752

 1\1\GINC-NODE15\SP\RB2PLYPD3-FC\def2QZVP\C4H6\BOITTIER\26-Aug-2020\0\\
 #p B2PLYPD3/Def2QZVP\\butadiene\\0,1\C,0,-3.840532,0.234143,0.031784\C
 ,0,-2.73083,-0.498298,0.016047\C,0,-1.392106,0.034484,0.000366\C,0,-0.
 250393,-0.646578,0.033238\H,0,-4.822047,-0.204401,0.048055\H,0,-3.7227
 15,1.322659,0.041743\H,0,-2.806992,-1.600289,0.007361\H,0,-1.366705,1.
 144576,0.006876\H,0,-0.197947,-1.718555,0.247301\H,0,0.670515,-0.05678
 7,-0.001382\\Version=ES64L-G09RevD.01\State=1-A\HF=-155.6970504\MP2=-1
 55.9231059\RMSD=3.084e-09\PG=C01 [X(C4H6)]\\@

 Normal termination of Gaussian 09 at Wed Aug 26 08:46:49 2020.
