 Gaussian 09, Revision D.01,
 Gaussian 09:  ES64L-G09RevD.01 24-Apr-2013

 --------------------
 #p B2PLYPD3/Def2QZVP
 --------------------

 ---------
 butadiene
 ---------
 Symbolic Z-matrix:
 Charge =  0 Multiplicity = 1

                         Standard orientation:
 ---------------------------------------------------------------------
 Center     Atomic      Atomic             Coordinates (Angstroms)
 Number     Number       Type             X           Y           Z
 ---------------------------------------------------------------------
      1          6           0        1.872136    0.067987   -0.068780
      2          6           0        0.617506   -0.379249    0.077996
      3          6           0       -0.639248    0.429800    0.027942
      4          6           0       -1.850863   -0.135446   -0.018349
      5          1           0        2.739902   -0.511356   -0.057002
      6          1           0        1.989664    1.192437   -0.197472
      7          1           0        0.437510   -1.394976    0.276768
      8          1           0       -0.406882    1.494766    0.278241
      9          1           0       -2.056316   -1.244454   -0.292155
     10          1           0       -2.701068    0.565031   -0.121233
 ---------------------------------------------------------------------

 SCF Done:  E(RB2PLYPD3) =  -155.681535993     A.U. after   11 cycles
 E2(B2PLYPD3) =    -0.2271393128D+00 E(B2PLYPD3) =    -0.15590867530574D+03

 The electronic state is 1-A.
 Alpha  occ. eigenvalues --  -10.63621 -10.62961 -10.62370 -10.61823  -0.92342
 Alpha  occ. eigenvalues --   -0.84716  -0.69852  -0.63415  -0.54884  -0.52402
 Alpha  occ. eigenvalues --   -0.47902  -0.44623  -0.40268  -0.36875  -0.28230
 Alpha virt. eigenvalues --    0.01591   0.07058   0.07149   0.07884   0.09084
 Alpha virt. eigenvalues --    0.11487   0.12261   0.14446   0.15058   0.16010
 Alpha virt. eigenvalues --    0.18739   0.19870   0.21253   0.22399   0.23329

 Mulliken charges:
               1
     1  C   -0.176635
     2  C   -0.032154
     3  C   -0.047902
     4  C   -0.168329
     5  H    0.097265
     6  H    0.049537
     7  H    0.060277
     8  H    0.065545
     9  H    0.071987
    10  H    0.080408
 Sum of Mulliken charges =   0.00000

 Dipole moment (field-independent basis, Debye):
    X=              0.0065    Y=             -0.0422    Z=             -0.0323  Tot=              0.0535
 Quadrupole moment (field-independent basis, Debye-Ang):
   XX=            -23.6569   YY=            -23.4247   ZZ=            -29.2333
   XY=              0.1850   XZ=              0.4460   YZ=              0.1703

 1\1\GINC-NODE15\SP\RB2PLYPD3-FC\def2QZVP\C4H6\BOITTIER\26-Aug-2020\0\\
 #p B2PLYPD3/Def2QZVP\\butadiene\\0,1\C,0,-3.881106,0.195329,0.080289\C
 ,0,-2.728405,-0.477725,-0.037767\C,0,-1.346018,0.092529,-0.020067\C,0,
 -0.256292,-0.679296,0.060194\H,0,-4.839284,-0.217657,0.091827\H,0,-3.7
 93147,1.327421,0.153717\H,0,-2.735519,-1.517702,-0.186116\H,0,-1.38302
 5,1.168494,-0.322928\H,0,-0.253631,-1.792523,0.38852\H,0,0.706801,-0.1
 39711,0.13369\\Version=ES64L-G09RevD.01\State=1-A\HF=-155.681536\MP2=-
 155.9086753\RMSD=5.803e-09\PG=C01 [X(C4H6)]\\@

 Normal termination of Gaussian 09 at Wed Aug 26 14:57:51 2020.
