 Gaussian 09, Revision D.01,
 Gaussian 09:  ES64L-G09RevD.01 24-Apr-2013

 --------------------
 #p B2PLYPD3/Def2QZVP
 --------------------

 ---------
 butadiene
 ---------
 Symbolic Z-matrix:
 Charge =  0 Multiplicity = 1

                         Standard orientation:
 ---------------------------------------------------------------------
 Center     Atomic      Atomic             Coordinates (Angstroms)
 Number     Number       Type             X           Y           Z
 ---------------------------------------------------------------------
      1          6           0        1.866495   -0.092300    0.044344
      2          6           0        0.621891    0.378199   -0.059507
      3          6           0       -0.623247   -0.431957   -0.048627
      4          6           0       -1.854700    0.116241    0.026748
      5          1           0        2.703478    0.572559    0.241600
      6          1           0        2.085891   -1.144586   -0.148399
      7          1           0        0.484407    1.504484   -0.100852
      8          1           0       -0.465094   -1.488337    0.071112
      9          1           0       -2.133784    1.210437    0.023617
     10          1           0       -2.737535   -0.475656    0.135176
 ---------------------------------------------------------------------

 SCF Done:  E(RB2PLYPD3) =  -155.689816850     A.U. after   11 cycles
 E2(B2PLYPD3) =    -0.2267800493D+00 E(B2PLYPD3) =    -0.15591659689922D+03

 The electronic state is 1-A.
 Alpha  occ. eigenvalues --  -10.63377 -10.63272 -10.62398 -10.61677  -0.92213
 Alpha  occ. eigenvalues --   -0.84694  -0.70079  -0.63392  -0.54697  -0.53076
 Alpha  occ. eigenvalues --   -0.47349  -0.44910  -0.40621  -0.37391  -0.27651
 Alpha virt. eigenvalues --    0.01465   0.06975   0.07308   0.08027   0.09032
 Alpha virt. eigenvalues --    0.11436   0.12360   0.14524   0.15623   0.16393
 Alpha virt. eigenvalues --    0.18977   0.19696   0.21849   0.23130   0.23291

 Mulliken charges:
               1
     1  C   -0.183064
     2  C   -0.024930
     3  C   -0.052192
     4  C   -0.160815
     5  H    0.087530
     6  H    0.069940
     7  H    0.050896
     8  H    0.067620
     9  H    0.064860
    10  H    0.080155
 Sum of Mulliken charges =   0.00000

 Dipole moment (field-independent basis, Debye):
    X=             -0.0800    Y=             -0.0066    Z=              0.1177  Tot=              0.1425
 Quadrupole moment (field-independent basis, Debye-Ang):
   XX=            -23.2101   YY=            -23.3161   ZZ=            -29.3446
   XY=             -0.4177   XZ=             -0.1477   YZ=              0.0987

 1\1\GINC-NODE01\SP\RB2PLYPD3-FC\def2QZVP\C4H6\BOITTIER\26-Aug-2020\0\\
 #p B2PLYPD3/Def2QZVP\\butadiene\\0,1\C,0,-3.870547,0.212412,0.063947\C
 ,0,-2.732093,-0.479131,-0.019028\C,0,-1.360758,0.091923,-0.032317\C,0,
 -0.248781,-0.667301,0.066505\H,0,-4.81354,-0.282463,0.281546\H,0,-3.89
 6243,1.279594,-0.166387\H,0,-2.801056,-1.612432,-0.02032\H,0,-1.324553
 ,1.16302,0.049703\H,0,-0.17256,-1.793373,0.102765\H,0,0.726997,-0.2416
 92,0.15712\\Version=ES64L-G09RevD.01\State=1-A\HF=-155.6898168\MP2=-15
 5.9165969\RMSD=6.763e-09\PG=C01 [X(C4H6)]\\@

 Normal termination of Gaussian 09 at Wed Aug 26 16:00:01 2020.
