 Gaussian 09, Revision D.01,
 Gaussian 09:  ES64L-G09RevD.01 24-Apr-2013

 --------------------
 #p B2PLYPD3/Def2QZVP
 --------------------

 ---------
 butadiene
 ---------
 Symbolic Z-matrix:
 Charge =  0 Multiplicity = 1

                         Standard orientation:
 ---------------------------------------------------------------------
 Center     Atomic      Atomic             Coordinates (Angstroms)
 Number     Number       Type             X           Y           Z
 ---------------------------------------------------------------------
      1          6           0       -1.844757    0.110663    0.024671
      2          6           0       -0.605698   -0.400134   -0.023574
      3          6           0        0.611332    0.414287   -0.023922
      4          6           0        1.843711   -0.116559    0.014427
      5          1           0       -2.704491   -0.559538    0.028061
      6          1           0       -2.003460    1.182319   -0.017778
      7          1           0       -0.493679   -1.474378   -0.035967
      8          1           0        0.442357    1.489692    0.016418
      9          1           0        1.993390   -1.197559    0.043693
     10          1           0        2.738358    0.509921    0.015959
 ---------------------------------------------------------------------

 SCF Done:  E(RB2PLYPD3) =  -155.700092168     A.U. after   11 cycles
 E2(B2PLYPD3) =    -0.2261612460D+00 E(B2PLYPD3) =    -0.15592625341401D+03

 The electronic state is 1-A.
 Alpha  occ. eigenvalues --  -10.62866 -10.62540 -10.61927 -10.61639  -0.92716
 Alpha  occ. eigenvalues --   -0.84683  -0.69847  -0.64081  -0.54241  -0.53794
 Alpha  occ. eigenvalues --   -0.46529  -0.45688  -0.41169  -0.37905  -0.27622
 Alpha virt. eigenvalues --    0.01683   0.06988   0.07370   0.08045   0.09399
 Alpha virt. eigenvalues --    0.11703   0.12360   0.14628   0.15776   0.16100
 Alpha virt. eigenvalues --    0.18770   0.20439   0.21426   0.22944   0.23883

 Mulliken charges:
               1
     1  C   -0.179894
     2  C   -0.027143
     3  C   -0.036978
     4  C   -0.173332
     5  H    0.085445
     6  H    0.066863
     7  H    0.054773
     8  H    0.056834
     9  H    0.067726
    10  H    0.085707
 Sum of Mulliken charges =   0.00000

 Dipole moment (field-independent basis, Debye):
    X=              0.0196    Y=             -0.0145    Z=              0.0100  Tot=              0.0263
 Quadrupole moment (field-independent basis, Debye-Ang):
   XX=            -23.6286   YY=            -23.0140   ZZ=            -29.3836
   XY=             -0.1322   XZ=              0.1229   YZ=             -0.0234

 1\1\GINC-NODE37\SP\RB2PLYPD3-FC\def2QZVP\C4H6\BOITTIER\26-Aug-2020\0\\
 #p B2PLYPD3/Def2QZVP\\butadiene\\0,1\C,0,-3.847926,0.224055,0.041839\C
 ,0,-2.720449,-0.501504,0.012399\C,0,-1.377292,0.081523,-0.008903\C,0,-
 0.259752,-0.659963,0.048793\H,0,-4.813734,-0.281015,0.062871\H,0,-3.81
 2337,1.30505,-0.033121\H,0,-2.802573,-1.57833,0.032488\H,0,-1.350924,1
 .170523,-0.001253\H,0,-0.305926,-1.748926,0.11083\H,0,0.732592,-0.2039
 9,0.034088\\Version=ES64L-G09RevD.01\State=1-A\HF=-155.7000922\MP2=-15
 5.9262534\RMSD=3.014e-09\PG=C01 [X(C4H6)]\\@

 Normal termination of Gaussian 09 at Wed Aug 26 09:06:46 2020.
