 Gaussian 09, Revision D.01,
 Gaussian 09:  ES64L-G09RevD.01 24-Apr-2013

 --------------------
 #p B2PLYPD3/Def2QZVP
 --------------------

 ---------
 butadiene
 ---------
 Symbolic Z-matrix:
 Charge =  0 Multiplicity = 1

                         Standard orientation:
 ---------------------------------------------------------------------
 Center     Atomic      Atomic             Coordinates (Angstroms)
 Number     Number       Type             X           Y           Z
 ---------------------------------------------------------------------
      1          6           0       -1.840317    0.090980    0.012679
      2          6           0       -0.595362   -0.386624   -0.009173
      3          6           0        0.604649    0.419289   -0.029900
      4          6           0        1.829631   -0.121936    0.006139
      5          1           0       -2.717763   -0.523806    0.022977
      6          1           0       -2.023669    1.148997   -0.018216
      7          1           0       -0.412093   -1.458265    0.006344
      8          1           0        0.460486    1.487163    0.052054
      9          1           0        1.986260   -1.180686    0.008145
     10          1           0        2.715173    0.516343    0.050224
 ---------------------------------------------------------------------

 SCF Done:  E(RB2PLYPD3) =  -155.700484062     A.U. after   11 cycles
 E2(B2PLYPD3) =    -0.2256851690D+00 E(B2PLYPD3) =    -0.15592616923057D+03

 The electronic state is 1-A.
 Alpha  occ. eigenvalues --  -10.62499 -10.62383 -10.61662 -10.61246  -0.93143
 Alpha  occ. eigenvalues --   -0.84833  -0.70414  -0.64292  -0.54772  -0.53878
 Alpha  occ. eigenvalues --   -0.46933  -0.45673  -0.41114  -0.38196  -0.27598
 Alpha virt. eigenvalues --    0.01648   0.07032   0.07418   0.08125   0.09561
 Alpha virt. eigenvalues --    0.11713   0.12512   0.14799   0.15741   0.16174
 Alpha virt. eigenvalues --    0.18778   0.20372   0.21895   0.23107   0.23632

 Mulliken charges:
               1
     1  C   -0.177667
     2  C   -0.025037
     3  C   -0.030718
     4  C   -0.177236
     5  H    0.086652
     6  H    0.061772
     7  H    0.050989
     8  H    0.058192
     9  H    0.069753
    10  H    0.083300
 Sum of Mulliken charges =   0.00000

 Dipole moment (field-independent basis, Debye):
    X=              0.0288    Y=              0.0027    Z=              0.0808  Tot=              0.0859
 Quadrupole moment (field-independent basis, Debye-Ang):
   XX=            -23.3987   YY=            -23.1611   ZZ=            -29.2372
   XY=             -0.2919   XZ=              0.1783   YZ=              0.0511

 1\1\GINC-NODE34\SP\RB2PLYPD3-FC\def2QZVP\C4H6\BOITTIER\26-Aug-2020\0\\
 #p B2PLYPD3/Def2QZVP\\butadiene\\0,1\C,0,-3.844536,0.212421,0.031736\C
 ,0,-2.70841,-0.485924,0.026284\C,0,-1.380918,0.085283,-0.011638\C,0,-0
 .276005,-0.670399,0.042377\H,0,-4.819885,-0.230434,0.055272\H,0,-3.830
 662,1.284938,-0.027304\H,0,-2.724892,-1.572217,0.070306\H,0,-1.326524,
 1.163253,0.042\H,0,-0.316331,-1.73949,0.072472\H,0,0.711704,-0.204519,
 0.072617\\Version=ES64L-G09RevD.01\State=1-A\HF=-155.7004841\MP2=-155.
 9261692\RMSD=5.003e-09\PG=C01 [X(C4H6)]\\@

 Normal termination of Gaussian 09 at Wed Aug 26 19:59:56 2020.
