 Gaussian 09, Revision D.01,
 Gaussian 09:  ES64L-G09RevD.01 24-Apr-2013

 --------------------
 #p B2PLYPD3/Def2QZVP
 --------------------

 ---------
 butadiene
 ---------
 Symbolic Z-matrix:
 Charge =  0 Multiplicity = 1

                         Standard orientation:
 ---------------------------------------------------------------------
 Center     Atomic      Atomic             Coordinates (Angstroms)
 Number     Number       Type             X           Y           Z
 ---------------------------------------------------------------------
      1          6           0       -1.835507    0.125092    0.005880
      2          6           0       -0.611899   -0.411061   -0.008101
      3          6           0        0.610337    0.372589    0.015111
      4          6           0        1.845988   -0.099349   -0.008574
      5          1           0       -2.719456   -0.508406   -0.034834
      6          1           0       -1.999767    1.207857   -0.041987
      7          1           0       -0.509273   -1.479972    0.061077
      8          1           0        0.469998    1.459549    0.027836
      9          1           0        1.995230   -1.162468   -0.023659
     10          1           0        2.709746    0.559818   -0.014328
 ---------------------------------------------------------------------

 SCF Done:  E(RB2PLYPD3) =  -155.700486459     A.U. after   11 cycles
 E2(B2PLYPD3) =    -0.2255419395D+00 E(B2PLYPD3) =    -0.15592602839894D+03

 The electronic state is 1-A.
 Alpha  occ. eigenvalues --  -10.62502 -10.62305 -10.61828 -10.61247  -0.93085
 Alpha  occ. eigenvalues --   -0.85117  -0.70054  -0.63958  -0.54497  -0.54075
 Alpha  occ. eigenvalues --   -0.46868  -0.45402  -0.40961  -0.38205  -0.27855
 Alpha virt. eigenvalues --    0.01791   0.06991   0.07438   0.08008   0.09740
 Alpha virt. eigenvalues --    0.11695   0.12384   0.14701   0.15714   0.16184
 Alpha virt. eigenvalues --    0.18772   0.20251   0.21721   0.22721   0.23902

 Mulliken charges:
               1
     1  C   -0.171934
     2  C   -0.037380
     3  C   -0.019718
     4  C   -0.179052
     5  H    0.083558
     6  H    0.066431
     7  H    0.056597
     8  H    0.047547
     9  H    0.064258
    10  H    0.089693
 Sum of Mulliken charges =   0.00000

 Dipole moment (field-independent basis, Debye):
    X=             -0.0355    Y=             -0.0108    Z=             -0.0230  Tot=              0.0437
 Quadrupole moment (field-independent basis, Debye-Ang):
   XX=            -23.4740   YY=            -23.1377   ZZ=            -29.2389
   XY=             -0.0294   XZ=              0.0671   YZ=             -0.0686

 1\1\GINC-NODE27\SP\RB2PLYPD3-FC\def2QZVP\C4H6\BOITTIER\26-Aug-2020\0\\
 #p B2PLYPD3/Def2QZVP\\butadiene\\0,1\C,0,-3.836876,0.23513,0.021412\C,
 0,-2.727854,-0.50977,0.029465\C,0,-1.385903,0.044912,0.027827\C,0,-0.2
 53675,-0.639313,0.023931\H,0,-4.81934,-0.232518,0.001056\H,0,-3.806633
 ,1.327479,-0.065268\H,0,-2.816213,-1.576803,0.1368\H,0,-1.331138,1.139
 285,0.00161\H,0,-0.295458,-1.711902,0.046965\H,0,0.71329,-0.144481,-0.
 003111\\Version=ES64L-G09RevD.01\State=1-A\HF=-155.7004865\MP2=-155.92
 60284\RMSD=5.261e-09\PG=C01 [X(C4H6)]\\@

 Normal termination of Gaussian 09 at Wed Aug 26 22:09:59 2020.
