 Gaussian 09, Revision D.01,
 Gaussian 09:  ES64L-G09RevD.01 24-Apr-2013

 --------------------
 #p B2PLYPD3/Def2QZVP
 --------------------

 ---------
 butadiene
 ---------
 Symbolic Z-matrix:
 Charge =  0 Multiplicity = 1

                         Standard orientation:
 ---------------------------------------------------------------------
 Center     Atomic      Atomic             Coordinates (Angstroms)
 Number     Number       Type             X           Y           Z
 ---------------------------------------------------------------------
      1          6           0        1.784592    0.096202    0.033247
      2          6           0        0.584225   -0.351359   -0.086393
      3          6           0       -0.587120    0.447229   -0.085636
      4          6           0       -1.797403   -0.140054    0.058771
      5          1           0        2.588343   -0.656640    0.352822
      6          1           0        2.078730    1.059711    0.099380
      7          1           0        0.558827   -1.431992   -0.209039
      8          1           0       -0.460357    1.562927   -0.055063
      9          1           0       -1.883758   -1.189952    0.071359
     10          1           0       -2.787552    0.343841    0.220601
 ---------------------------------------------------------------------

 SCF Done:  E(RB2PLYPD3) =  -155.678901774     A.U. after   11 cycles
 E2(B2PLYPD3) =    -0.2258898875D+00 E(B2PLYPD3) =    -0.15590479166151D+03

 The electronic state is 1-A.
 Alpha  occ. eigenvalues --  -10.63223 -10.61909 -10.61465 -10.60219  -0.94107
 Alpha  occ. eigenvalues --   -0.85228  -0.70212  -0.64572  -0.54902  -0.54357
 Alpha  occ. eigenvalues --   -0.46159  -0.44922  -0.41543  -0.38255  -0.27550
 Alpha virt. eigenvalues --    0.01826   0.06876   0.07382   0.07818   0.09637
 Alpha virt. eigenvalues --    0.11606   0.12725   0.14685   0.15543   0.16593
 Alpha virt. eigenvalues --    0.18731   0.19628   0.21439   0.23034   0.24559

 Mulliken charges:
               1
     1  C   -0.168714
     2  C   -0.002498
     3  C   -0.050803
     4  C   -0.163661
     5  H    0.059041
     6  H    0.064697
     7  H    0.061094
     8  H    0.059394
     9  H    0.064734
    10  H    0.076717
 Sum of Mulliken charges =   0.00000

 Dipole moment (field-independent basis, Debye):
    X=             -0.1060    Y=              0.0010    Z=              0.2914  Tot=              0.3101
 Quadrupole moment (field-independent basis, Debye-Ang):
   XX=            -23.9750   YY=            -23.1509   ZZ=            -28.8793
   XY=              0.4188   XZ=              0.2112   YZ=              0.0398

 1\1\GINC-NODE24\SP\RB2PLYPD3-FC\def2QZVP\C4H6\BOITTIER\26-Aug-2020\0\\
 #p B2PLYPD3/Def2QZVP\\butadiene\\0,1\C,0,-3.792548,0.197957,-0.025512\
 C,0,-2.693352,-0.457791,0.1059\C,0,-1.396615,0.115086,0.097008\C,0,-0.
 312754,-0.684162,-0.033332\H,0,-4.719186,-0.401814,-0.336205\H,0,-3.90
 7031,1.197614,-0.108097\H,0,-2.864445,-1.522971,0.245807\H,0,-1.318935
 ,1.234626,0.04821\H,0,-0.4182,-1.732381,-0.028892\H,0,0.748879,-0.3905
 03,-0.198978\\Version=ES64L-G09RevD.01\State=1-A\HF=-155.6789018\MP2=-
 155.9047917\RMSD=8.891e-09\PG=C01 [X(C4H6)]\\@

 Normal termination of Gaussian 09 at Wed Aug 26 11:54:48 2020.
