 Gaussian 09, Revision D.01,
 Gaussian 09:  ES64L-G09RevD.01 24-Apr-2013

 --------------------
 #p B2PLYPD3/Def2QZVP
 --------------------

 ---------
 butadiene
 ---------
 Symbolic Z-matrix:
 Charge =  0 Multiplicity = 1

                         Standard orientation:
 ---------------------------------------------------------------------
 Center     Atomic      Atomic             Coordinates (Angstroms)
 Number     Number       Type             X           Y           Z
 ---------------------------------------------------------------------
      1          6           0       -1.849341   -0.089686   -0.001962
      2          6           0       -0.618180    0.370551   -0.005647
      3          6           0        0.611298   -0.425068   -0.046618
      4          6           0        1.857532    0.110182    0.019602
      5          1           0       -2.679341    0.574356    0.016333
      6          1           0       -2.064855   -1.152164    0.156035
      7          1           0       -0.481386    1.470609   -0.063114
      8          1           0        0.431467   -1.481952   -0.021061
      9          1           0        1.983493    1.227781    0.098416
     10          1           0        2.802767   -0.434499    0.021140
 ---------------------------------------------------------------------

 SCF Done:  E(RB2PLYPD3) =  -155.695035062     A.U. after   11 cycles
 E2(B2PLYPD3) =    -0.2262491807D+00 E(B2PLYPD3) =    -0.15592128424232D+03

 The electronic state is 1-A.
 Alpha  occ. eigenvalues --  -10.63126 -10.62734 -10.62536 -10.61151  -0.92777
 Alpha  occ. eigenvalues --   -0.84823  -0.70205  -0.63689  -0.54973  -0.53216
 Alpha  occ. eigenvalues --   -0.47406  -0.44879  -0.40559  -0.38013  -0.27857
 Alpha virt. eigenvalues --    0.01523   0.06963   0.07338   0.08079   0.09520
 Alpha virt. eigenvalues --    0.11546   0.12441   0.14543   0.15716   0.16342
 Alpha virt. eigenvalues --    0.18874   0.20100   0.21884   0.22325   0.23770

 Mulliken charges:
               1
     1  C   -0.173889
     2  C   -0.014939
     3  C   -0.046056
     4  C   -0.163315
     5  H    0.085624
     6  H    0.060323
     7  H    0.046446
     8  H    0.059465
     9  H    0.057849
    10  H    0.088493
 Sum of Mulliken charges =   0.00000

 Dipole moment (field-independent basis, Debye):
    X=              0.0273    Y=             -0.0060    Z=              0.1612  Tot=              0.1636
 Quadrupole moment (field-independent basis, Debye-Ang):
   XX=            -23.1530   YY=            -23.3810   ZZ=            -29.3172
   XY=              0.1660   XZ=             -0.0771   YZ=             -0.1281

 1\1\GINC-NODE05\SP\RB2PLYPD3-FC\def2QZVP\C4H6\BOITTIER\26-Aug-2020\0\\
 #p B2PLYPD3/Def2QZVP\\butadiene\\0,1\C,0,-3.85572,0.204196,0.014807\C,
 0,-2.728029,-0.470572,0.039068\C,0,-1.374833,0.090632,0.053793\C,0,-0.
 246155,-0.663182,0.011034\H,0,-4.792147,-0.299068,0.018953\H,0,-3.8762
 59,1.281514,-0.183265\H,0,-2.792107,-1.574327,0.137861\H,0,-1.360759,1
 .160921,-0.011624\H,0,-0.324604,-1.787282,-0.025735\H,0,0.781952,-0.29
 8799,-0.008163\\Version=ES64L-G09RevD.01\State=1-A\HF=-155.6950351\MP2
 =-155.9212842\RMSD=7.925e-09\PG=C01 [X(C4H6)]\\@

 Normal termination of Gaussian 09 at Wed Aug 26 10:13:31 2020.
