 Gaussian 09, Revision D.01,
 Gaussian 09:  ES64L-G09RevD.01 24-Apr-2013

 --------------------
 #p B2PLYPD3/Def2QZVP
 --------------------

 ---------
 butadiene
 ---------
 Symbolic Z-matrix:
 Charge =  0 Multiplicity = 1

                         Standard orientation:
 ---------------------------------------------------------------------
 Center     Atomic      Atomic             Coordinates (Angstroms)
 Number     Number       Type             X           Y           Z
 ---------------------------------------------------------------------
      1          6           0        1.838321   -0.123346   -0.003041
      2          6           0        0.610642    0.442016    0.003673
      3          6           0       -0.611141   -0.383359   -0.025951
      4          6           0       -1.856726    0.082358    0.016803
      5          1           0        2.765030    0.440126   -0.046418
      6          1           0        2.074156   -1.199748    0.120326
      7          1           0        0.478227    1.530541   -0.025632
      8          1           0       -0.444436   -1.488364   -0.015192
      9          1           0       -2.033486    1.151753    0.065692
     10          1           0       -2.726063   -0.540319   -0.047679
 ---------------------------------------------------------------------

 SCF Done:  E(RB2PLYPD3) =  -155.695758962     A.U. after   11 cycles
 E2(B2PLYPD3) =    -0.2264406755D+00 E(B2PLYPD3) =    -0.15592219963706D+03

 The electronic state is 1-A.
 Alpha  occ. eigenvalues --  -10.63475 -10.62949 -10.62289 -10.61322  -0.92445
 Alpha  occ. eigenvalues --   -0.84641  -0.70078  -0.63688  -0.54887  -0.53148
 Alpha  occ. eigenvalues --   -0.47283  -0.44713  -0.40754  -0.37774  -0.27714
 Alpha virt. eigenvalues --    0.01611   0.07001   0.07261   0.08047   0.09291
 Alpha virt. eigenvalues --    0.11488   0.12481   0.14544   0.15846   0.16301
 Alpha virt. eigenvalues --    0.18841   0.20395   0.21990   0.22739   0.23222

 Mulliken charges:
               1
     1  C   -0.163929
     2  C   -0.045601
     3  C   -0.022088
     4  C   -0.174480
     5  H    0.077544
     6  H    0.064411
     7  H    0.062417
     8  H    0.052430
     9  H    0.059786
    10  H    0.089509
 Sum of Mulliken charges =   0.00000

 Dipole moment (field-independent basis, Debye):
    X=              0.0675    Y=              0.0044    Z=              0.0349  Tot=              0.0762
 Quadrupole moment (field-independent basis, Debye-Ang):
   XX=            -23.1346   YY=            -23.2470   ZZ=            -29.3971
   XY=             -0.3980   XZ=              0.1085   YZ=             -0.0938

 1\1\GINC-NODE22\SP\RB2PLYPD3-FC\def2QZVP\C4H6\BOITTIER\26-Aug-2020\0\\
 #p B2PLYPD3/Def2QZVP\\butadiene\\0,1\C,0,-3.838775,0.242843,0.018325\C
 ,0,-2.734584,-0.536418,0.038117\C,0,-1.38301,0.051774,-0.008288\C,0,-0
 .242951,-0.632027,0.045411\H,0,-4.852742,-0.143189,-0.013652\H,0,-3.87
 4229,1.346569,0.118369\H,0,-2.802731,-1.631224,0.032295\H,0,-1.345637,
 1.168633,-0.021387\H,0,-0.263763,-1.714444,0.117387\H,0,0.725046,-0.17
 9636,-0.031762\\Version=ES64L-G09RevD.01\State=1-A\HF=-155.695759\MP2=
 -155.9221996\RMSD=5.968e-09\PG=C01 [X(C4H6)]\\@

 Normal termination of Gaussian 09 at Wed Aug 26 08:47:03 2020.
