 Gaussian 09, Revision D.01,
 Gaussian 09:  ES64L-G09RevD.01 24-Apr-2013

 --------------------
 #p B2PLYPD3/Def2QZVP
 --------------------

 ---------
 butadiene
 ---------
 Symbolic Z-matrix:
 Charge =  0 Multiplicity = 1

                         Standard orientation:
 ---------------------------------------------------------------------
 Center     Atomic      Atomic             Coordinates (Angstroms)
 Number     Number       Type             X           Y           Z
 ---------------------------------------------------------------------
      1          6           0       -1.838156    0.089736    0.053530
      2          6           0       -0.610715   -0.388629   -0.065023
      3          6           0        0.602598    0.457259   -0.048783
      4          6           0        1.833824   -0.138035    0.032773
      5          1           0       -2.698907   -0.583672    0.083088
      6          1           0       -1.979604    1.159463   -0.039576
      7          1           0       -0.408761   -1.455315   -0.055434
      8          1           0        0.463317    1.508803    0.055194
      9          1           0        1.966146   -1.187529    0.087533
     10          1           0        2.732503    0.436267    0.034205
 ---------------------------------------------------------------------

 SCF Done:  E(RB2PLYPD3) =  -155.695002834     A.U. after   11 cycles
 E2(B2PLYPD3) =    -0.2262398379D+00 E(B2PLYPD3) =    -0.15592124267150D+03

 The electronic state is 1-A.
 Alpha  occ. eigenvalues --  -10.63127 -10.62381 -10.61699 -10.61312  -0.92635
 Alpha  occ. eigenvalues --   -0.84620  -0.70060  -0.64502  -0.54391  -0.53753
 Alpha  occ. eigenvalues --   -0.46952  -0.45894  -0.41220  -0.37642  -0.27512
 Alpha virt. eigenvalues --    0.01648   0.07049   0.07425   0.08199   0.08978
 Alpha virt. eigenvalues --    0.11777   0.12532   0.14630   0.15710   0.16145
 Alpha virt. eigenvalues --    0.18785   0.20001   0.21838   0.23555   0.23823

 Mulliken charges:
               1
     1  C   -0.178202
     2  C   -0.022797
     3  C   -0.048094
     4  C   -0.176352
     5  H    0.084984
     6  H    0.066908
     7  H    0.055098
     8  H    0.066175
     9  H    0.069549
    10  H    0.082731
 Sum of Mulliken charges =   0.00000

 Dipole moment (field-independent basis, Debye):
    X=              0.0670    Y=             -0.0200    Z=              0.0705  Tot=              0.0993
 Quadrupole moment (field-independent basis, Debye-Ang):
   XX=            -23.6842   YY=            -22.9826   ZZ=            -29.3303
   XY=             -0.2572   XZ=              0.1752   YZ=             -0.0778

 1\1\GINC-NODE04\SP\RB2PLYPD3-FC\def2QZVP\C4H6\BOITTIER\26-Aug-2020\0\\
 #p B2PLYPD3/Def2QZVP\\butadiene\\0,1\C,0,-3.842467,0.20657,0.071934\C,
 0,-2.72247,-0.490378,-0.024861\C,0,-1.375879,0.121584,-0.035488\C,0,-0
 .272694,-0.683635,0.071985\H,0,-4.810923,-0.298116,0.123208\H,0,-3.787
 973,1.280077,-0.060756\H,0,-2.717186,-1.574922,0.024461\H,0,-1.321898,
 1.184045,0.029445\H,0,-0.332622,-1.737007,0.165582\H,0,0.715199,-0.282
 085,0.055437\\Version=ES64L-G09RevD.01\State=1-A\HF=-155.6950028\MP2=-
 155.9212427\RMSD=7.632e-09\PG=C01 [X(C4H6)]\\@

 Normal termination of Gaussian 09 at Wed Aug 26 08:53:06 2020.
