 Gaussian 09, Revision D.01,
 Gaussian 09:  ES64L-G09RevD.01 24-Apr-2013

 --------------------
 #p B2PLYPD3/Def2QZVP
 --------------------

 ---------
 butadiene
 ---------
 Symbolic Z-matrix:
 Charge =  0 Multiplicity = 1

                         Standard orientation:
 ---------------------------------------------------------------------
 Center     Atomic      Atomic             Coordinates (Angstroms)
 Number     Number       Type             X           Y           Z
 ---------------------------------------------------------------------
      1          6           0        1.837207   -0.108857   -0.024335
      2          6           0        0.598957    0.408989    0.006530
      3          6           0       -0.597679   -0.397759    0.004740
      4          6           0       -1.838749    0.098466   -0.009157
      5          1           0        2.720733    0.497357    0.066537
      6          1           0        1.972376   -1.186229   -0.033449
      7          1           0        0.473962    1.496852    0.045285
      8          1           0       -0.418411   -1.474427    0.084008
      9          1           0       -2.008303    1.179640   -0.027651
     10          1           0       -2.738778   -0.518228   -0.001408
 ---------------------------------------------------------------------

 SCF Done:  E(RB2PLYPD3) =  -155.700001835     A.U. after   11 cycles
 E2(B2PLYPD3) =    -0.2261714166D+00 E(B2PLYPD3) =    -0.15592617325121D+03

 The electronic state is 1-A.
 Alpha  occ. eigenvalues --  -10.62691 -10.62629 -10.61845 -10.61598  -0.93066
 Alpha  occ. eigenvalues --   -0.84690  -0.70226  -0.63919  -0.54750  -0.53583
 Alpha  occ. eigenvalues --   -0.46825  -0.45302  -0.41170  -0.38156  -0.27567
 Alpha virt. eigenvalues --    0.01539   0.07035   0.07316   0.08047   0.09574
 Alpha virt. eigenvalues --    0.11657   0.12505   0.14628   0.15780   0.16224
 Alpha virt. eigenvalues --    0.18789   0.20311   0.21733   0.22907   0.23568

 Mulliken charges:
               1
     1  C   -0.175649
     2  C   -0.026393
     3  C   -0.028466
     4  C   -0.173985
     5  H    0.087338
     6  H    0.061555
     7  H    0.052495
     8  H    0.053420
     9  H    0.063210
    10  H    0.086475
 Sum of Mulliken charges =   0.00000

 Dipole moment (field-independent basis, Debye):
    X=             -0.0024    Y=              0.0103    Z=              0.1297  Tot=              0.1301
 Quadrupole moment (field-independent basis, Debye-Ang):
   XX=            -23.3812   YY=            -23.2197   ZZ=            -29.3159
   XY=             -0.1746   XZ=              0.1922   YZ=              0.0024

 1\1\GINC-NODE10\SP\RB2PLYPD3-FC\def2QZVP\C4H6\BOITTIER\26-Aug-2020\0\\
 #p B2PLYPD3/Def2QZVP\\butadiene\\0,1\C,0,-3.838577,0.227292,-0.000235\
 C,0,-2.715711,-0.507188,0.045517\C,0,-1.391794,0.066791,0.021529\C,0,-
 0.262419,-0.64819,0.021932\H,0,-4.81758,-0.204407,0.107287\H,0,-3.7745
 79,1.310547,-0.039552\H,0,-2.791486,-1.598075,0.114753\H,0,-1.370857,1
 .159857,0.070564\H,0,-0.293438,-1.742231,0.033769\H,0,0.735198,-0.2064
 89,0.012704\\Version=ES64L-G09RevD.01\State=1-A\HF=-155.7000018\MP2=-1
 55.9261733\RMSD=4.542e-09\PG=C01 [X(C4H6)]\\@

 Normal termination of Gaussian 09 at Wed Aug 26 19:13:26 2020.
