 Gaussian 09, Revision D.01,
 Gaussian 09:  ES64L-G09RevD.01 24-Apr-2013

 --------------------
 #p B2PLYPD3/Def2QZVP
 --------------------

 ---------
 butadiene
 ---------
 Symbolic Z-matrix:
 Charge =  0 Multiplicity = 1

                         Standard orientation:
 ---------------------------------------------------------------------
 Center     Atomic      Atomic             Coordinates (Angstroms)
 Number     Number       Type             X           Y           Z
 ---------------------------------------------------------------------
      1          6           0       -1.846554    0.116134   -0.005794
      2          6           0       -0.607839   -0.420204    0.007651
      3          6           0        0.605852    0.392951    0.012075
      4          6           0        1.848328   -0.100870   -0.016109
      5          1           0       -2.742042   -0.504816   -0.010018
      6          1           0       -1.966073    1.209219   -0.065055
      7          1           0       -0.478927   -1.474473    0.035583
      8          1           0        0.449005    1.450735    0.082332
      9          1           0        2.062430   -1.154761   -0.004706
     10          1           0        2.676885    0.546027   -0.025076
 ---------------------------------------------------------------------

 SCF Done:  E(RB2PLYPD3) =  -155.699624464     A.U. after   11 cycles
 E2(B2PLYPD3) =    -0.2258009091D+00 E(B2PLYPD3) =    -0.15592542537273D+03

 The electronic state is 1-A.
 Alpha  occ. eigenvalues --  -10.62544 -10.62444 -10.62038 -10.61128  -0.92793
 Alpha  occ. eigenvalues --   -0.84748  -0.70285  -0.64466  -0.54643  -0.53899
 Alpha  occ. eigenvalues --   -0.46745  -0.45886  -0.41408  -0.37832  -0.27556
 Alpha virt. eigenvalues --    0.01606   0.07013   0.07474   0.08159   0.09441
 Alpha virt. eigenvalues --    0.11679   0.12446   0.14711   0.15860   0.16122
 Alpha virt. eigenvalues --    0.18806   0.20554   0.21581   0.22907   0.23869

 Mulliken charges:
               1
     1  C   -0.175755
     2  C   -0.037216
     3  C   -0.030740
     4  C   -0.179048
     5  H    0.087015
     6  H    0.064487
     7  H    0.060572
     8  H    0.057454
     9  H    0.067370
    10  H    0.085861
 Sum of Mulliken charges =   0.00000

 Dipole moment (field-independent basis, Debye):
    X=              0.0150    Y=             -0.0242    Z=              0.0238  Tot=              0.0371
 Quadrupole moment (field-independent basis, Debye-Ang):
   XX=            -23.4672   YY=            -23.0527   ZZ=            -29.2993
   XY=             -0.1646   XZ=              0.0974   YZ=             -0.0346

 1\1\GINC-NODE29\SP\RB2PLYPD3-FC\def2QZVP\C4H6\BOITTIER\26-Aug-2020\0\\
 #p B2PLYPD3/Def2QZVP\\butadiene\\0,1\C,0,-3.84678,0.234463,0.010902\C,
 0,-2.72564,-0.51665,0.044509\C,0,-1.38475,0.062991,0.026671\C,0,-0.252
 338,-0.648315,0.017346\H,0,-4.839921,-0.213868,0.023762\H,0,-3.766549,
 1.328713,-0.082963\H,0,-2.789699,-1.575429,0.105867\H,0,-1.347229,1.13
 3363,0.063268\H,0,-0.232598,-1.722669,0.0624\H,0,0.679638,-0.162772,-0
 .009694\\Version=ES64L-G09RevD.01\State=1-A\HF=-155.6996245\MP2=-155.9
 254254\RMSD=4.826e-09\PG=C01 [X(C4H6)]\\@

 Normal termination of Gaussian 09 at Wed Aug 26 18:53:20 2020.
