 Gaussian 09, Revision D.01,
 Gaussian 09:  ES64L-G09RevD.01 24-Apr-2013

 --------------------
 #p B2PLYPD3/Def2QZVP
 --------------------

 ---------
 butadiene
 ---------
 Symbolic Z-matrix:
 Charge =  0 Multiplicity = 1

                         Standard orientation:
 ---------------------------------------------------------------------
 Center     Atomic      Atomic             Coordinates (Angstroms)
 Number     Number       Type             X           Y           Z
 ---------------------------------------------------------------------
      1          6           0        1.868143   -0.136651   -0.053234
      2          6           0        0.629671    0.445894    0.032241
      3          6           0       -0.613194   -0.354289    0.106471
      4          6           0       -1.891901    0.058739   -0.088448
      5          1           0        2.697427    0.490599   -0.179303
      6          1           0        2.037345   -1.255372    0.001742
      7          1           0        0.408811    1.530289    0.195450
      8          1           0       -0.374909   -1.402446    0.109965
      9          1           0       -2.003726    1.119027    0.006409
     10          1           0       -2.721269   -0.564258   -0.116442
 ---------------------------------------------------------------------

 SCF Done:  E(RB2PLYPD3) =  -155.682291195     A.U. after   11 cycles
 E2(B2PLYPD3) =    -0.2277245002D+00 E(B2PLYPD3) =    -0.15591001569541D+03

 The electronic state is 1-A.
 Alpha  occ. eigenvalues --  -10.64017 -10.62778 -10.62744 -10.61355  -0.92151
 Alpha  occ. eigenvalues --   -0.84467  -0.70904  -0.63571  -0.55214  -0.52882
 Alpha  occ. eigenvalues --   -0.47849  -0.45473  -0.40868  -0.36906  -0.27459
 Alpha virt. eigenvalues --    0.00899   0.07034   0.07231   0.08197   0.09077
 Alpha virt. eigenvalues --    0.11528   0.12411   0.14581   0.15320   0.16495
 Alpha virt. eigenvalues --    0.18892   0.19281   0.21719   0.23298   0.23643

 Mulliken charges:
               1
     1  C   -0.180980
     2  C   -0.041069
     3  C   -0.025615
     4  C   -0.175834
     5  H    0.093629
     6  H    0.075068
     7  H    0.055118
     8  H    0.047140
     9  H    0.058115
    10  H    0.094429
 Sum of Mulliken charges =   0.00000

 Dipole moment (field-independent basis, Debye):
    X=              0.1007    Y=             -0.0292    Z=              0.1018  Tot=              0.1461
 Quadrupole moment (field-independent basis, Debye-Ang):
   XX=            -23.2985   YY=            -23.3625   ZZ=            -29.4379
   XY=             -0.2623   XZ=             -0.1194   YZ=              0.1549

 1\1\GINC-NODE28\SP\RB2PLYPD3-FC\def2QZVP\C4H6\BOITTIER\26-Aug-2020\0\\
 #p B2PLYPD3/Def2QZVP\\butadiene\\0,1\C,0,-3.864,0.259467,-0.040684\C,0
 ,-2.752522,-0.534514,0.080511\C,0,-1.383683,0.027313,0.114358\C,0,-0.2
 03608,-0.622981,-0.053625\H,0,-4.794967,-0.211208,-0.134553\H,0,-3.825
 155,1.391557,-0.047905\H,0,-2.732751,-1.630442,0.303852\H,0,-1.426035,
 1.099979,0.059409\H,0,-0.287099,-1.679011,0.099809\H,0,0.725571,-0.164
 92,-0.11335\\Version=ES64L-G09RevD.01\State=1-A\HF=-155.6822912\MP2=-1
 55.9100157\RMSD=8.667e-09\PG=C01 [X(C4H6)]\\@

 Normal termination of Gaussian 09 at Wed Aug 26 14:03:21 2020.
