 Gaussian 09, Revision D.01,
 Gaussian 09:  ES64L-G09RevD.01 24-Apr-2013

 --------------------
 #p B2PLYPD3/Def2QZVP
 --------------------

 ---------
 butadiene
 ---------
 Symbolic Z-matrix:
 Charge =  0 Multiplicity = 1

                         Standard orientation:
 ---------------------------------------------------------------------
 Center     Atomic      Atomic             Coordinates (Angstroms)
 Number     Number       Type             X           Y           Z
 ---------------------------------------------------------------------
      1          6           0       -1.871057    0.073310    0.008148
      2          6           0       -0.617695   -0.319592   -0.013643
      3          6           0        0.630738    0.420898   -0.044271
      4          6           0        1.861346   -0.157319    0.048935
      5          1           0       -2.803917   -0.568594    0.025638
      6          1           0       -1.998771    1.144293    0.288013
      7          1           0       -0.473854   -1.402387   -0.248811
      8          1           0        0.595436    1.485398   -0.225446
      9          1           0        1.933182   -1.291668    0.158403
     10          1           0        2.727932    0.529179    0.007192
 ---------------------------------------------------------------------

 SCF Done:  E(RB2PLYPD3) =  -155.683049291     A.U. after   11 cycles
 E2(B2PLYPD3) =    -0.2275066678D+00 E(B2PLYPD3) =    -0.15591055595887D+03

 The electronic state is 1-A.
 Alpha  occ. eigenvalues --  -10.63220 -10.63112 -10.62598 -10.62128  -0.92828
 Alpha  occ. eigenvalues --   -0.84894  -0.69651  -0.63050  -0.54232  -0.53222
 Alpha  occ. eigenvalues --   -0.46808  -0.44889  -0.40150  -0.37504  -0.28034
 Alpha virt. eigenvalues --    0.01258   0.06946   0.07412   0.07535   0.09520
 Alpha virt. eigenvalues --    0.11539   0.12120   0.14312   0.15359   0.15968
 Alpha virt. eigenvalues --    0.18735   0.19410   0.20928   0.22420   0.23379

 Mulliken charges:
               1
     1  C   -0.172573
     2  C   -0.012792
     3  C   -0.054225
     4  C   -0.173527
     5  H    0.089491
     6  H    0.053064
     7  H    0.045507
     8  H    0.059261
     9  H    0.073820
    10  H    0.091974
 Sum of Mulliken charges =   0.00000

 Dipole moment (field-independent basis, Debye):
    X=              0.0774    Y=              0.0149    Z=             -0.0184  Tot=              0.0810
 Quadrupole moment (field-independent basis, Debye-Ang):
   XX=            -23.4821   YY=            -23.5640   ZZ=            -29.3037
   XY=              0.4875   XZ=             -0.2966   YZ=              0.0827

 1\1\GINC-NODE34\SP\RB2PLYPD3-FC\def2QZVP\C4H6\BOITTIER\26-Aug-2020\0\\
 #p B2PLYPD3/Def2QZVP\\butadiene\\0,1\C,0,-3.885133,0.172268,0.032976\C
 ,0,-2.716242,-0.427134,0.019819\C,0,-1.360958,0.090745,-0.033612\C,0,-
 0.245028,-0.684287,0.073367\H,0,-4.912824,-0.302135,0.069965\H,0,-3.82
 8426,1.256606,0.283247\H,0,-2.758758,-1.524625,-0.185475\H,0,-1.217246
 ,1.140619,-0.24419\H,0,-0.364985,-1.81109,0.214138\H,0,0.724711,-0.155
 409,0.011018\\Version=ES64L-G09RevD.01\State=1-A\HF=-155.6830493\MP2=-
 155.910556\RMSD=8.861e-09\PG=C01 [X(C4H6)]\\@

 Normal termination of Gaussian 09 at Wed Aug 26 15:09:33 2020.
