 Gaussian 09, Revision D.01,
 Gaussian 09:  ES64L-G09RevD.01 24-Apr-2013

 --------------------
 #p B2PLYPD3/Def2QZVP
 --------------------

 ---------
 butadiene
 ---------
 Symbolic Z-matrix:
 Charge =  0 Multiplicity = 1

                         Standard orientation:
 ---------------------------------------------------------------------
 Center     Atomic      Atomic             Coordinates (Angstroms)
 Number     Number       Type             X           Y           Z
 ---------------------------------------------------------------------
      1          6           0       -1.829978    0.114694    0.016308
      2          6           0       -0.606099   -0.422239   -0.032921
      3          6           0        0.600741    0.404014   -0.007751
      4          6           0        1.835075   -0.112970    0.006973
      5          1           0       -2.736661   -0.483923    0.084606
      6          1           0       -1.950889    1.194233    0.005617
      7          1           0       -0.455411   -1.497329   -0.028627
      8          1           0        0.442847    1.481835   -0.063791
      9          1           0        2.018297   -1.169145    0.026568
     10          1           0        2.683376    0.573329    0.079971
 ---------------------------------------------------------------------

 SCF Done:  E(RB2PLYPD3) =  -155.700001927     A.U. after   11 cycles
 E2(B2PLYPD3) =    -0.2259765611D+00 E(B2PLYPD3) =    -0.15592597848810D+03

 The electronic state is 1-A.
 Alpha  occ. eigenvalues --  -10.62656 -10.62590 -10.61654 -10.61502  -0.92871
 Alpha  occ. eigenvalues --   -0.84735  -0.69813  -0.64174  -0.54271  -0.53888
 Alpha  occ. eigenvalues --   -0.46516  -0.45782  -0.41172  -0.37955  -0.27623
 Alpha virt. eigenvalues --    0.01846   0.07012   0.07333   0.08081   0.09336
 Alpha virt. eigenvalues --    0.11732   0.12406   0.14696   0.15710   0.16131
 Alpha virt. eigenvalues --    0.18702   0.20352   0.21663   0.23016   0.23910

 Mulliken charges:
               1
     1  C   -0.173784
     2  C   -0.032813
     3  C   -0.028732
     4  C   -0.180994
     5  H    0.085210
     6  H    0.063653
     7  H    0.056822
     8  H    0.056323
     9  H    0.071347
    10  H    0.082969
 Sum of Mulliken charges =   0.00000

 Dipole moment (field-independent basis, Debye):
    X=             -0.0301    Y=             -0.0121    Z=              0.0693  Tot=              0.0766
 Quadrupole moment (field-independent basis, Debye-Ang):
   XX=            -23.7390   YY=            -22.9695   ZZ=            -29.3210
   XY=             -0.2315   XZ=             -0.0111   YZ=             -0.0775

 1\1\GINC-NODE25\SP\RB2PLYPD3-FC\def2QZVP\C4H6\BOITTIER\26-Aug-2020\0\\
 #p B2PLYPD3/Def2QZVP\\butadiene\\0,1\C,0,-3.830632,0.231429,0.035452\C
 ,0,-2.724446,-0.519648,0.006523\C,0,-1.387831,0.074701,0.006489\C,0,-0
 .267486,-0.656543,0.040833\H,0,-4.830445,-0.190451,0.121899\H,0,-3.754
 078,1.314054,-0.011446\H,0,-2.770937,-1.603506,0.046936\H,0,-1.348146,
 1.160835,-0.085747\H,0,-0.278493,-1.727196,0.095972\H,0,0.691373,-0.13
 3224,0.092568\\Version=ES64L-G09RevD.01\State=1-A\HF=-155.7000019\MP2=
 -155.9259785\RMSD=2.730e-09\PG=C01 [X(C4H6)]\\@

 Normal termination of Gaussian 09 at Wed Aug 26 18:38:48 2020.
