 Gaussian 09, Revision D.01,
 Gaussian 09:  ES64L-G09RevD.01 24-Apr-2013

 --------------------
 #p B2PLYPD3/Def2QZVP
 --------------------

 ---------
 butadiene
 ---------
 Symbolic Z-matrix:
 Charge =  0 Multiplicity = 1

                         Standard orientation:
 ---------------------------------------------------------------------
 Center     Atomic      Atomic             Coordinates (Angstroms)
 Number     Number       Type             X           Y           Z
 ---------------------------------------------------------------------
      1          6           0       -1.861035    0.054101   -0.088805
      2          6           0       -0.599167   -0.339053    0.103109
      3          6           0        0.606515    0.444836    0.023050
      4          6           0        1.825331   -0.125788   -0.040280
      5          1           0       -2.725246   -0.588443   -0.095160
      6          1           0       -2.095788    1.101517    0.043170
      7          1           0       -0.357869   -1.420420    0.079359
      8          1           0        0.465352    1.476257    0.162722
      9          1           0        2.117666   -1.223240    0.004057
     10          1           0        2.766022    0.449756   -0.176588
 ---------------------------------------------------------------------

 SCF Done:  E(RB2PLYPD3) =  -155.684905366     A.U. after   11 cycles
 E2(B2PLYPD3) =    -0.2270394173D+00 E(B2PLYPD3) =    -0.15591194478296D+03

 The electronic state is 1-A.
 Alpha  occ. eigenvalues --  -10.63066 -10.62805 -10.62600 -10.61486  -0.93147
 Alpha  occ. eigenvalues --   -0.84565  -0.70706  -0.64108  -0.55270  -0.52802
 Alpha  occ. eigenvalues --   -0.48152  -0.44003  -0.40725  -0.37733  -0.27643
 Alpha virt. eigenvalues --    0.01086   0.06910   0.07350   0.08107   0.09337
 Alpha virt. eigenvalues --    0.11424   0.12431   0.14667   0.15373   0.16803
 Alpha virt. eigenvalues --    0.18767   0.19283   0.22092   0.22852   0.23479

 Mulliken charges:
               1
     1  C   -0.164856
     2  C   -0.029263
     3  C   -0.035197
     4  C   -0.164623
     5  H    0.082877
     6  H    0.055475
     7  H    0.047610
     8  H    0.069692
     9  H    0.064854
    10  H    0.073432
 Sum of Mulliken charges =   0.00000

 Dipole moment (field-independent basis, Debye):
    X=              0.1447    Y=              0.0106    Z=              0.1202  Tot=              0.1884
 Quadrupole moment (field-independent basis, Debye-Ang):
   XX=            -22.9181   YY=            -23.6178   ZZ=            -29.2565
   XY=             -0.5742   XZ=             -0.2389   YZ=              0.2047

 1\1\GINC-NODE29\SP\RB2PLYPD3-FC\def2QZVP\C4H6\BOITTIER\26-Aug-2020\0\\
 #p B2PLYPD3/Def2QZVP\\butadiene\\0,1\C,0,-3.8676,0.185704,-0.062485\C,
 0,-2.702467,-0.438181,0.129726\C,0,-1.37056,0.103864,0.047434\C,0,-0.2
 81419,-0.686697,-0.015195\H,0,-4.837567,-0.28217,-0.067064\H,0,-3.9003
 1,1.258871,0.06732\H,0,-2.669646,-1.545702,0.108217\H,0,-1.314375,1.14
 3673,0.184928\H,0,-0.201458,-1.819509,0.031396\H,0,0.750886,-0.299347,
 -0.153167\\Version=ES64L-G09RevD.01\State=1-A\HF=-155.6849054\MP2=-155
 .9119448\RMSD=5.827e-09\PG=C01 [X(C4H6)]\\@

 Normal termination of Gaussian 09 at Wed Aug 26 13:54:37 2020.
