 Gaussian 09, Revision D.01,
 Gaussian 09:  ES64L-G09RevD.01 24-Apr-2013

 --------------------
 #p B2PLYPD3/Def2QZVP
 --------------------

 ---------
 butadiene
 ---------
 Symbolic Z-matrix:
 Charge =  0 Multiplicity = 1

                         Standard orientation:
 ---------------------------------------------------------------------
 Center     Atomic      Atomic             Coordinates (Angstroms)
 Number     Number       Type             X           Y           Z
 ---------------------------------------------------------------------
      1          6           0       -1.830007    0.132068   -0.039219
      2          6           0       -0.611396   -0.428185    0.052650
      3          6           0        0.614394    0.352793    0.012478
      4          6           0        1.858262   -0.101101   -0.061062
      5          1           0       -2.851615   -0.473832    0.124578
      6          1           0       -2.043162    1.172224   -0.206398
      7          1           0       -0.521154   -1.539441    0.039091
      8          1           0        0.429162    1.499009    0.151068
      9          1           0        2.261673   -1.078499   -0.094646
     10          1           0        2.537580    0.687091    0.197224
 ---------------------------------------------------------------------

 SCF Done:  E(RB2PLYPD3) =  -155.675794238     A.U. after   11 cycles
 E2(B2PLYPD3) =    -0.2274230671D+00 E(B2PLYPD3) =    -0.15590321730473D+03

 The electronic state is 1-A.
 Alpha  occ. eigenvalues --  -10.63480 -10.63215 -10.63020 -10.61044  -0.92747
 Alpha  occ. eigenvalues --   -0.84914  -0.69990  -0.63171  -0.54312  -0.53719
 Alpha  occ. eigenvalues --   -0.46376  -0.44753  -0.40031  -0.37600  -0.27821
 Alpha virt. eigenvalues --    0.01220   0.06749   0.07257   0.07625   0.09495
 Alpha virt. eigenvalues --    0.11225   0.12437   0.14883   0.15516   0.16088
 Alpha virt. eigenvalues --    0.18957   0.19950   0.21612   0.21890   0.23704

 Mulliken charges:
               1
     1  C   -0.160795
     2  C   -0.041354
     3  C   -0.017250
     4  C   -0.175028
     5  H    0.066693
     6  H    0.070075
     7  H    0.063265
     8  H    0.045518
     9  H    0.076132
    10  H    0.072744
 Sum of Mulliken charges =   0.00000

 Dipole moment (field-independent basis, Debye):
    X=             -0.0450    Y=             -0.0250    Z=              0.1810  Tot=              0.1881
 Quadrupole moment (field-independent basis, Debye-Ang):
   XX=            -23.7017   YY=            -23.2392   ZZ=            -29.3141
   XY=             -0.8971   XZ=              0.4457   YZ=              0.1299

 1\1\GINC-NODE02\SP\RB2PLYPD3-FC\def2QZVP\C4H6\BOITTIER\26-Aug-2020\0\\
 #p B2PLYPD3/Def2QZVP\\butadiene\\0,1\C,0,-3.830035,0.252009,-0.020747\
 C,0,-2.733913,-0.518619,0.088734\C,0,-1.386349,0.024995,0.037177\C,0,-
 0.245938,-0.649338,-0.020901\H,0,-4.945,-0.153946,0.151532\H,0,-3.8500
 67,1.309631,-0.211384\H,0,-2.8476,-1.627751,0.099664\H,0,-1.359755,1.1
 88558,0.150061\H,0,-0.027303,-1.684355,-0.03148\H,0,0.565465,0.007487,
 0.223306\\Version=ES64L-G09RevD.01\State=1-A\HF=-155.6757942\MP2=-155.
 9032173\RMSD=9.042e-09\PG=C01 [X(C4H6)]\\@

 Normal termination of Gaussian 09 at Wed Aug 26 16:09:06 2020.
