 Gaussian 09, Revision D.01,
 Gaussian 09:  ES64L-G09RevD.01 24-Apr-2013

 --------------------
 #p B2PLYPD3/Def2QZVP
 --------------------

 ---------
 butadiene
 ---------
 Symbolic Z-matrix:
 Charge =  0 Multiplicity = 1

                         Standard orientation:
 ---------------------------------------------------------------------
 Center     Atomic      Atomic             Coordinates (Angstroms)
 Number     Number       Type             X           Y           Z
 ---------------------------------------------------------------------
      1          6           0       -1.842985    0.099972    0.019072
      2          6           0       -0.602007   -0.381939   -0.012884
      3          6           0        0.607634    0.412297   -0.031405
      4          6           0        1.842213   -0.126749    0.010613
      5          1           0       -2.701239   -0.535288   -0.032969
      6          1           0       -2.056658    1.127685    0.088867
      7          1           0       -0.485102   -1.457619   -0.056887
      8          1           0        0.494116    1.492035   -0.026649
      9          1           0        2.020569   -1.182701    0.103557
     10          1           0        2.699177    0.534407    0.011701
 ---------------------------------------------------------------------

 SCF Done:  E(RB2PLYPD3) =  -155.700008464     A.U. after   11 cycles
 E2(B2PLYPD3) =    -0.2255933252D+00 E(B2PLYPD3) =    -0.15592560178915D+03

 The electronic state is 1-A.
 Alpha  occ. eigenvalues --  -10.62713 -10.62317 -10.61680 -10.60910  -0.92966
 Alpha  occ. eigenvalues --   -0.84932  -0.70540  -0.64277  -0.54618  -0.54296
 Alpha  occ. eigenvalues --   -0.46587  -0.45937  -0.41323  -0.38055  -0.27541
 Alpha virt. eigenvalues --    0.01550   0.07001   0.07525   0.08048   0.09644
 Alpha virt. eigenvalues --    0.11680   0.12440   0.14919   0.15911   0.16156
 Alpha virt. eigenvalues --    0.18848   0.20579   0.21722   0.22701   0.23766

 Mulliken charges:
               1
     1  C   -0.177546
     2  C   -0.024007
     3  C   -0.039416
     4  C   -0.175855
     5  H    0.083014
     6  H    0.064947
     7  H    0.054730
     8  H    0.058141
     9  H    0.072331
    10  H    0.083661
 Sum of Mulliken charges =   0.00000

 Dipole moment (field-independent basis, Debye):
    X=              0.0000    Y=              0.0163    Z=              0.0602  Tot=              0.0624
 Quadrupole moment (field-independent basis, Debye-Ang):
   XX=            -23.4267   YY=            -23.0575   ZZ=            -29.2231
   XY=             -0.2236   XZ=              0.2015   YZ=              0.0474

 1\1\GINC-NODE22\SP\RB2PLYPD3-FC\def2QZVP\C4H6\BOITTIER\26-Aug-2020\0\\
 #p B2PLYPD3/Def2QZVP\\butadiene\\0,1\C,0,-3.84779,0.215391,0.036536\C,
 0,-2.713871,-0.482674,0.021698\C,0,-1.38107,0.080093,-0.014632\C,0,-0.
 263598,-0.670973,0.046015\H,0,-4.806455,-0.256227,-0.000887\H,0,-3.872
 879,1.266299,0.07758\H,0,-2.792557,-1.562625,0.007436\H,0,-1.298392,1.
 16235,-0.039703\H,0,-0.278043,-1.73883,0.168306\H,0,0.698368,-0.175055
 ,0.031793\\Version=ES64L-G09RevD.01\State=1-A\HF=-155.7000085\MP2=-155
 .9256018\RMSD=5.798e-09\PG=C01 [X(C4H6)]\\@

 Normal termination of Gaussian 09 at Wed Aug 26 18:30:57 2020.
