 Gaussian 09, Revision D.01,
 Gaussian 09:  ES64L-G09RevD.01 24-Apr-2013

 --------------------
 #p B2PLYPD3/Def2QZVP
 --------------------

 ---------
 butadiene
 ---------
 Symbolic Z-matrix:
 Charge =  0 Multiplicity = 1

                         Standard orientation:
 ---------------------------------------------------------------------
 Center     Atomic      Atomic             Coordinates (Angstroms)
 Number     Number       Type             X           Y           Z
 ---------------------------------------------------------------------
      1          6           0       -1.822656   -0.140651   -0.010444
      2          6           0       -0.604539    0.433805   -0.028967
      3          6           0        0.594600   -0.374853    0.006419
      4          6           0        1.825703    0.097267    0.013113
      5          1           0       -2.683723    0.479664    0.017827
      6          1           0       -1.910792   -1.204596    0.168292
      7          1           0       -0.495903    1.504977   -0.019734
      8          1           0        0.477699   -1.466175   -0.083670
      9          1           0        1.953774    1.153435    0.113797
     10          1           0        2.700292   -0.560709   -0.077236
 ---------------------------------------------------------------------

 SCF Done:  E(RB2PLYPD3) =  -155.697147612     A.U. after   11 cycles
 E2(B2PLYPD3) =    -0.2257685357D+00 E(B2PLYPD3) =    -0.15592291614730D+03

 The electronic state is 1-A.
 Alpha  occ. eigenvalues --  -10.62598 -10.62104 -10.61425 -10.61076  -0.93270
 Alpha  occ. eigenvalues --   -0.85066  -0.69922  -0.64101  -0.54543  -0.54178
 Alpha  occ. eigenvalues --   -0.46457  -0.45570  -0.41454  -0.38204  -0.27603
 Alpha virt. eigenvalues --    0.01770   0.07065   0.07387   0.08027   0.09447
 Alpha virt. eigenvalues --    0.11816   0.12450   0.14811   0.15715   0.16207
 Alpha virt. eigenvalues --    0.18645   0.20223   0.21365   0.23072   0.24173

 Mulliken charges:
               1
     1  C   -0.172473
     2  C   -0.044704
     3  C   -0.012034
     4  C   -0.183546
     5  H    0.084370
     6  H    0.070353
     7  H    0.057614
     8  H    0.049573
     9  H    0.063527
    10  H    0.087319
 Sum of Mulliken charges =   0.00000

 Dipole moment (field-independent basis, Debye):
    X=             -0.0198    Y=              0.0447    Z=              0.1085  Tot=              0.1190
 Quadrupole moment (field-independent basis, Debye-Ang):
   XX=            -23.8604   YY=            -23.0035   ZZ=            -29.1729
   XY=             -0.1264   XZ=             -0.4695   YZ=              0.0745

 1\1\GINC-NODE16\SP\RB2PLYPD3-FC\def2QZVP\C4H6\BOITTIER\26-Aug-2020\0\\
 #p B2PLYPD3/Def2QZVP\\butadiene\\0,1\C,0,-3.819525,0.248279,0.020469\C
 ,0,-2.722795,-0.53263,0.059389\C,0,-1.399086,0.04919,0.010444\C,0,-0.2
 71384,-0.633977,0.021715\H,0,-4.77704,-0.209851,0.002922\H,0,-3.717188
 ,1.306162,-0.184725\H,0,-2.806097,-1.605965,0.076957\H,0,-1.320402,1.1
 45839,0.07317\H,0,-0.332825,-1.69829,-0.052406\H,0,0.706078,-0.139643,
 0.100469\\Version=ES64L-G09RevD.01\State=1-A\HF=-155.6971476\MP2=-155.
 9229161\RMSD=6.430e-09\PG=C01 [X(C4H6)]\\@

 Normal termination of Gaussian 09 at Wed Aug 26 08:39:33 2020.
