 Gaussian 09, Revision D.01,
 Gaussian 09:  ES64L-G09RevD.01 24-Apr-2013

 --------------------
 #p B2PLYPD3/Def2QZVP
 --------------------

 ---------
 butadiene
 ---------
 Symbolic Z-matrix:
 Charge =  0 Multiplicity = 1

                         Standard orientation:
 ---------------------------------------------------------------------
 Center     Atomic      Atomic             Coordinates (Angstroms)
 Number     Number       Type             X           Y           Z
 ---------------------------------------------------------------------
      1          6           0       -1.865652    0.090741   -0.015621
      2          6           0       -0.625763   -0.327393   -0.068429
      3          6           0        0.622007    0.399016   -0.045569
      4          6           0        1.831764   -0.139459    0.029333
      5          1           0       -2.665048   -0.666852    0.253880
      6          1           0       -2.049542    1.133620    0.096152
      7          1           0       -0.316118   -1.442734    0.042846
      8          1           0        0.579341    1.497602    0.106279
      9          1           0        2.001407   -1.210197    0.048737
     10          1           0        2.675826    0.551133    0.053816
 ---------------------------------------------------------------------

 SCF Done:  E(RB2PLYPD3) =  -155.683786591     A.U. after   11 cycles
 E2(B2PLYPD3) =    -0.2264931093D+00 E(B2PLYPD3) =    -0.15591027969999D+03

 The electronic state is 1-A.
 Alpha  occ. eigenvalues --  -10.62950 -10.62563 -10.61843 -10.61688  -0.93346
 Alpha  occ. eigenvalues --   -0.85619  -0.70288  -0.62911  -0.54412  -0.53737
 Alpha  occ. eigenvalues --   -0.46816  -0.45608  -0.39800  -0.38029  -0.28306
 Alpha virt. eigenvalues --    0.01475   0.06871   0.07163   0.07843   0.09964
 Alpha virt. eigenvalues --    0.11677   0.12212   0.14900   0.15408   0.15927
 Alpha virt. eigenvalues --    0.18730   0.19491   0.21895   0.22770   0.23575

 Mulliken charges:
               1
     1  C   -0.169382
     2  C   -0.010273
     3  C   -0.021827
     4  C   -0.176916
     5  H    0.084914
     6  H    0.068729
     7  H    0.029482
     8  H    0.040534
     9  H    0.068133
    10  H    0.086607
 Sum of Mulliken charges =   0.00000

 Dipole moment (field-independent basis, Debye):
    X=              0.1950    Y=              0.0605    Z=              0.4585  Tot=              0.5019
 Quadrupole moment (field-independent basis, Debye-Ang):
   XX=            -23.8673   YY=            -23.4186   ZZ=            -29.1398
   XY=             -0.2016   XZ=             -0.6574   YZ=             -0.0440

 1\1\GINC-NODE31\SP\RB2PLYPD3-FC\def2QZVP\C4H6\BOITTIER\26-Aug-2020\0\\
 #p B2PLYPD3/Def2QZVP\\butadiene\\0,1\C,0,-3.868405,0.203012,0.023774\C
 ,0,-2.722994,-0.430476,-0.017161\C,0,-1.365949,0.062955,-0.025997\C,0,
 -0.270274,-0.678819,0.065355\H,0,-4.786836,-0.390009,0.324477\H,0,-3.8
 63171,1.265366,0.096441\H,0,-2.615111,-1.578228,0.135399\H,0,-1.211455
 ,1.156469,0.084138\H,0,-0.293165,-1.761209,0.124875\H,0,0.683151,-0.14
 8802,0.060822\\Version=ES64L-G09RevD.01\State=1-A\HF=-155.6837866\MP2=
 -155.9102797\RMSD=6.599e-09\PG=C01 [X(C4H6)]\\@

 Normal termination of Gaussian 09 at Wed Aug 26 13:18:59 2020.
