 Gaussian 09, Revision D.01,
 Gaussian 09:  ES64L-G09RevD.01 24-Apr-2013

 --------------------
 #p B2PLYPD3/Def2QZVP
 --------------------

 ---------
 butadiene
 ---------
 Symbolic Z-matrix:
 Charge =  0 Multiplicity = 1

                         Standard orientation:
 ---------------------------------------------------------------------
 Center     Atomic      Atomic             Coordinates (Angstroms)
 Number     Number       Type             X           Y           Z
 ---------------------------------------------------------------------
      1          6           0       -1.837201    0.144719    0.052157
      2          6           0       -0.611080   -0.405561   -0.028398
      3          6           0        0.589931    0.326425   -0.059930
      4          6           0        1.839120   -0.070315    0.007622
      5          1           0       -2.686154   -0.577650   -0.052239
      6          1           0       -2.002870    1.242403   -0.081175
      7          1           0       -0.548788   -1.465825    0.112481
      8          1           0        0.551321    1.441474    0.086882
      9          1           0        2.081011   -1.143321   -0.036153
     10          1           0        2.720866    0.531307    0.141499
 ---------------------------------------------------------------------

 SCF Done:  E(RB2PLYPD3) =  -155.685470773     A.U. after   11 cycles
 E2(B2PLYPD3) =    -0.2267310725D+00 E(B2PLYPD3) =    -0.15591220184573D+03

 The electronic state is 1-A.
 Alpha  occ. eigenvalues --  -10.62636 -10.62484 -10.62174 -10.61391  -0.93705
 Alpha  occ. eigenvalues --   -0.85223  -0.70475  -0.63484  -0.54969  -0.53943
 Alpha  occ. eigenvalues --   -0.46732  -0.44564  -0.40338  -0.38506  -0.27785
 Alpha virt. eigenvalues --    0.01091   0.06977   0.07435   0.07708   0.09880
 Alpha virt. eigenvalues --    0.11584   0.12425   0.14745   0.15368   0.16268
 Alpha virt. eigenvalues --    0.18983   0.19434   0.21754   0.22628   0.23845

 Mulliken charges:
               1
     1  C   -0.164901
     2  C   -0.045875
     3  C   -0.007147
     4  C   -0.169016
     5  H    0.078140
     6  H    0.072338
     7  H    0.061808
     8  H    0.040457
     9  H    0.046697
    10  H    0.087500
 Sum of Mulliken charges =   0.00000

 Dipole moment (field-independent basis, Debye):
    X=              0.0676    Y=             -0.0473    Z=              0.0762  Tot=              0.1123
 Quadrupole moment (field-independent basis, Debye-Ang):
   XX=            -23.4655   YY=            -23.4288   ZZ=            -29.1677
   XY=              0.1974   XZ=              0.7220   YZ=              0.0468

 1\1\GINC-NODE25\SP\RB2PLYPD3-FC\def2QZVP\C4H6\BOITTIER\26-Aug-2020\0\\
 #p B2PLYPD3/Def2QZVP\\butadiene\\0,1\C,0,-3.831936,0.253742,0.064047\C
 ,0,-2.722459,-0.506704,0.005282\C,0,-1.410681,0.000117,-0.0347\C,0,-0.
 251741,-0.609738,0.051166\H,0,-4.795117,-0.309251,-0.029536\H,0,-3.800
 128,1.359841,-0.096162\H,0,-2.849401,-1.5575,0.171411\H,0,-1.251581,1.
 107627,0.085663\H,0,-0.203634,-1.709361,0.034295\H,0,0.722237,-0.17063
 8,0.177288\\Version=ES64L-G09RevD.01\State=1-A\HF=-155.6854708\MP2=-15
 5.9122018\RMSD=8.318e-09\PG=C01 [X(C4H6)]\\@

 Normal termination of Gaussian 09 at Wed Aug 26 14:06:44 2020.
