 Gaussian 09, Revision D.01,
 Gaussian 09:  ES64L-G09RevD.01 24-Apr-2013

 --------------------
 #p B2PLYPD3/Def2QZVP
 --------------------

 ---------
 butadiene
 ---------
 Symbolic Z-matrix:
 Charge =  0 Multiplicity = 1

                         Standard orientation:
 ---------------------------------------------------------------------
 Center     Atomic      Atomic             Coordinates (Angstroms)
 Number     Number       Type             X           Y           Z
 ---------------------------------------------------------------------
      1          6           0        1.824616    0.097239   -0.029278
      2          6           0        0.589051   -0.395601    0.023519
      3          6           0       -0.580196    0.401775    0.031643
      4          6           0       -1.825331   -0.105014   -0.022692
      5          1           0        2.648663   -0.511888   -0.005932
      6          1           0        2.003787    1.148657   -0.157971
      7          1           0        0.433189   -1.447210    0.175619
      8          1           0       -0.458061    1.507695    0.171561
      9          1           0       -1.951949   -1.190417   -0.152387
     10          1           0       -2.724469    0.502769   -0.050047
 ---------------------------------------------------------------------

 SCF Done:  E(RB2PLYPD3) =  -155.695630956     A.U. after   11 cycles
 E2(B2PLYPD3) =    -0.2259323511D+00 E(B2PLYPD3) =    -0.15592156330713D+03

 The electronic state is 1-A.
 Alpha  occ. eigenvalues --  -10.62640 -10.62007 -10.61838 -10.60722  -0.93586
 Alpha  occ. eigenvalues --   -0.84843  -0.70862  -0.63844  -0.55247  -0.53908
 Alpha  occ. eigenvalues --   -0.46776  -0.45470  -0.41585  -0.38189  -0.27414
 Alpha virt. eigenvalues --    0.01446   0.07168   0.07346   0.08016   0.09622
 Alpha virt. eigenvalues --    0.11689   0.12550   0.14873   0.15668   0.16199
 Alpha virt. eigenvalues --    0.18659   0.20186   0.21763   0.22823   0.23647

 Mulliken charges:
               1
     1  C   -0.180587
     2  C   -0.026889
     3  C   -0.026271
     4  C   -0.178728
     5  H    0.088046
     6  H    0.066261
     7  H    0.057955
     8  H    0.052360
     9  H    0.059850
    10  H    0.088005
 Sum of Mulliken charges =   0.00000

 Dipole moment (field-independent basis, Debye):
    X=              0.0375    Y=             -0.0067    Z=              0.0096  Tot=              0.0393
 Quadrupole moment (field-independent basis, Debye-Ang):
   XX=            -23.4418   YY=            -23.2479   ZZ=            -29.1071
   XY=              0.0985   XZ=              0.1205   YZ=             -0.0399

 1\1\GINC-NODE01\SP\RB2PLYPD3-FC\def2QZVP\C4H6\BOITTIER\26-Aug-2020\0\\
 #p B2PLYPD3/Def2QZVP\\butadiene\\0,1\C,0,-3.825666,0.221188,0.045373\C
 ,0,-2.703595,-0.494395,0.010796\C,0,-1.406382,0.07078,-0.017989\C,0,-0
 .277198,-0.657073,0.054962\H,0,-4.748762,-0.224317,0.038015\H,0,-3.805
 617,1.290957,0.141993\H,0,-2.746648,-1.560715,-0.10928\H,0,-1.320916,1
 .175407,-0.191333\H,0,-0.354469,-1.742692,0.217486\H,0,0.719437,-0.226
 746,0.066576\\Version=ES64L-G09RevD.01\State=1-A\HF=-155.695631\MP2=-1
 55.9215633\RMSD=4.056e-09\PG=C01 [X(C4H6)]\\@

 Normal termination of Gaussian 09 at Wed Aug 26 09:19:09 2020.
