 Gaussian 09, Revision D.01,
 Gaussian 09:  ES64L-G09RevD.01 24-Apr-2013

 --------------------
 #p B2PLYPD3/Def2QZVP
 --------------------

 ---------
 butadiene
 ---------
 Symbolic Z-matrix:
 Charge =  0 Multiplicity = 1

                         Standard orientation:
 ---------------------------------------------------------------------
 Center     Atomic      Atomic             Coordinates (Angstroms)
 Number     Number       Type             X           Y           Z
 ---------------------------------------------------------------------
      1          6           0       -1.838665   -0.110951   -0.026165
      2          6           0       -0.610998    0.408534    0.015800
      3          6           0        0.610261   -0.379205    0.020339
      4          6           0        1.849328    0.097020   -0.019822
      5          1           0       -2.757043    0.452423    0.007977
      6          1           0       -1.984093   -1.196089   -0.033164
      7          1           0       -0.514345    1.498042    0.076679
      8          1           0        0.449573   -1.472219    0.064936
      9          1           0        2.028074    1.170596   -0.053702
     10          1           0        2.718279   -0.545144   -0.003644
 ---------------------------------------------------------------------

 SCF Done:  E(RB2PLYPD3) =  -155.700315796     A.U. after   11 cycles
 E2(B2PLYPD3) =    -0.2257391634D+00 E(B2PLYPD3) =    -0.15592605495914D+03

 The electronic state is 1-A.
 Alpha  occ. eigenvalues --  -10.62748 -10.62685 -10.61682 -10.61539  -0.92961
 Alpha  occ. eigenvalues --   -0.85025  -0.70215  -0.63699  -0.54899  -0.53663
 Alpha  occ. eigenvalues --   -0.47188  -0.45021  -0.40769  -0.38163  -0.27874
 Alpha virt. eigenvalues --    0.01720   0.07014   0.07367   0.08005   0.09746
 Alpha virt. eigenvalues --    0.11578   0.12509   0.14566   0.15879   0.16238
 Alpha virt. eigenvalues --    0.18874   0.20552   0.21626   0.22605   0.23532

 Mulliken charges:
               1
     1  C   -0.168168
     2  C   -0.030307
     3  C   -0.026383
     4  C   -0.174352
     5  H    0.086408
     6  H    0.057154
     7  H    0.052524
     8  H    0.049217
     9  H    0.064544
    10  H    0.089363
 Sum of Mulliken charges =   0.00000

 Dipole moment (field-independent basis, Debye):
    X=             -0.0364    Y=              0.0070    Z=              0.0768  Tot=              0.0853
 Quadrupole moment (field-independent basis, Debye-Ang):
   XX=            -23.1398   YY=            -23.3221   ZZ=            -29.2726
   XY=              0.1083   XZ=             -0.0999   YZ=             -0.0008

 1\1\GINC-NODE36\SP\RB2PLYPD3-FC\def2QZVP\C4H6\BOITTIER\26-Aug-2020\0\\
 #p B2PLYPD3/Def2QZVP\\butadiene\\0,1\C,0,-3.841963,0.225465,0.041305\C
 ,0,-2.727203,-0.506334,0.017334\C,0,-1.38469,0.049658,-0.006299\C,0,-0
 .25077,-0.639307,0.050627\H,0,-4.846425,-0.165182,0.020715\H,0,-3.7908
 08,1.318864,0.017155\H,0,-2.827261,-1.59683,-0.012379\H,0,-1.347267,1.
 152071,-0.082287\H,0,-0.266974,-1.72614,0.1154\H,0,0.719042,-0.163755,
 0.018553\\Version=ES64L-G09RevD.01\State=1-A\HF=-155.7003158\MP2=-155.
 926055\RMSD=3.424e-09\PG=C01 [X(C4H6)]\\@

 Normal termination of Gaussian 09 at Wed Aug 26 21:08:36 2020.
