 Gaussian 09, Revision D.01,
 Gaussian 09:  ES64L-G09RevD.01 24-Apr-2013

 --------------------
 #p B2PLYPD3/Def2QZVP
 --------------------

 ---------
 butadiene
 ---------
 Symbolic Z-matrix:
 Charge =  0 Multiplicity = 1

                         Standard orientation:
 ---------------------------------------------------------------------
 Center     Atomic      Atomic             Coordinates (Angstroms)
 Number     Number       Type             X           Y           Z
 ---------------------------------------------------------------------
      1          6           0       -1.825781   -0.117292    0.032378
      2          6           0       -0.597346    0.409339   -0.040475
      3          6           0        0.603386   -0.393824   -0.014999
      4          6           0        1.828155    0.100841    0.015007
      5          1           0       -2.696196    0.492492    0.044294
      6          1           0       -1.980507   -1.173546   -0.015121
      7          1           0       -0.523100    1.499004   -0.013061
      8          1           0        0.445734   -1.467027   -0.047221
      9          1           0        1.999265    1.172903    0.017557
     10          1           0        2.704321   -0.518211    0.062091
 ---------------------------------------------------------------------

 SCF Done:  E(RB2PLYPD3) =  -155.700639450     A.U. after   11 cycles
 E2(B2PLYPD3) =    -0.2253271464D+00 E(B2PLYPD3) =    -0.15592596659673D+03

 The electronic state is 1-A.
 Alpha  occ. eigenvalues --  -10.62485 -10.62265 -10.61203 -10.61109  -0.93250
 Alpha  occ. eigenvalues --   -0.85112  -0.70308  -0.64139  -0.54886  -0.54170
 Alpha  occ. eigenvalues --   -0.46720  -0.45494  -0.41294  -0.38308  -0.27696
 Alpha virt. eigenvalues --    0.01850   0.07066   0.07424   0.08082   0.09643
 Alpha virt. eigenvalues --    0.11700   0.12537   0.14769   0.15793   0.16374
 Alpha virt. eigenvalues --    0.18761   0.20204   0.21997   0.22934   0.23853

 Mulliken charges:
               1
     1  C   -0.175757
     2  C   -0.028615
     3  C   -0.028318
     4  C   -0.173225
     5  H    0.083714
     6  H    0.063671
     7  H    0.053934
     8  H    0.054739
     9  H    0.064176
    10  H    0.085682
 Sum of Mulliken charges =   0.00000

 Dipole moment (field-independent basis, Debye):
    X=             -0.0147    Y=             -0.0013    Z=              0.0034  Tot=              0.0151
 Quadrupole moment (field-independent basis, Debye-Ang):
   XX=            -23.4150   YY=            -23.1059   ZZ=            -29.1724
   XY=              0.1044   XZ=              0.0901   YZ=              0.0837

 1\1\GINC-NODE31\SP\RB2PLYPD3-FC\def2QZVP\C4H6\BOITTIER\26-Aug-2020\0\\
 #p B2PLYPD3/Def2QZVP\\butadiene\\0,1\C,0,-3.827721,0.229474,-0.012715\
 C,0,-2.714468,-0.508704,0.073677\C,0,-1.388433,0.063319,0.030128\C,0,-
 0.273365,-0.645186,0.012926\H,0,-4.794057,-0.213009,-0.010865\H,0,-3.7
 88806,1.297116,0.009528\H,0,-2.838507,-1.594174,0.07224\H,0,-1.349385,
 1.147796,0.036692\H,0,-0.298867,-1.730276,0.03601\H,0,0.700099,-0.1960
 19,-0.048122\\Version=ES64L-G09RevD.01\State=1-A\HF=-155.7006395\MP2=-
 155.9259666\RMSD=5.769e-09\PG=C01 [X(C4H6)]\\@

 Normal termination of Gaussian 09 at Wed Aug 26 18:51:16 2020.
