 Gaussian 09, Revision D.01,
 Gaussian 09:  ES64L-G09RevD.01 24-Apr-2013

 --------------------
 #p B2PLYPD3/Def2QZVP
 --------------------

 ---------
 butadiene
 ---------
 Symbolic Z-matrix:
 Charge =  0 Multiplicity = 1

                         Standard orientation:
 ---------------------------------------------------------------------
 Center     Atomic      Atomic             Coordinates (Angstroms)
 Number     Number       Type             X           Y           Z
 ---------------------------------------------------------------------
      1          6           0        1.834763   -0.115274   -0.003255
      2          6           0        0.599052    0.418597   -0.002826
      3          6           0       -0.590207   -0.400209   -0.023516
      4          6           0       -1.826918    0.104759    0.012620
      5          1           0        2.709409    0.502951    0.009612
      6          1           0        1.970954   -1.185238    0.093221
      7          1           0        0.434754    1.505596   -0.040055
      8          1           0       -0.475121   -1.482189   -0.013616
      9          1           0       -2.041076    1.156456    0.067561
     10          1           0       -2.699058   -0.544815   -0.014862
 ---------------------------------------------------------------------

 SCF Done:  E(RB2PLYPD3) =  -155.699929842     A.U. after   11 cycles
 E2(B2PLYPD3) =    -0.2260576962D+00 E(B2PLYPD3) =    -0.15592598753794D+03

 The electronic state is 1-A.
 Alpha  occ. eigenvalues --  -10.62802 -10.62441 -10.61561 -10.61412  -0.93047
 Alpha  occ. eigenvalues --   -0.84681  -0.70225  -0.64082  -0.54611  -0.53868
 Alpha  occ. eigenvalues --   -0.46388  -0.45673  -0.41386  -0.38155  -0.27445
 Alpha virt. eigenvalues --    0.01611   0.07038   0.07340   0.08062   0.09448
 Alpha virt. eigenvalues --    0.11700   0.12450   0.14816   0.15798   0.16222
 Alpha virt. eigenvalues --    0.18713   0.20356   0.21838   0.22852   0.23788

 Mulliken charges:
               1
     1  C   -0.176410
     2  C   -0.033818
     3  C   -0.024240
     4  C   -0.177544
     5  H    0.086096
     6  H    0.067651
     7  H    0.056353
     8  H    0.055641
     9  H    0.065597
    10  H    0.080673
 Sum of Mulliken charges =   0.00000

 Dipole moment (field-independent basis, Debye):
    X=             -0.0136    Y=              0.0114    Z=              0.0821  Tot=              0.0840
 Quadrupole moment (field-independent basis, Debye-Ang):
   XX=            -23.5892   YY=            -23.0251   ZZ=            -29.2996
   XY=             -0.2400   XZ=              0.0976   YZ=             -0.0650

 1\1\GINC-NODE32\SP\RB2PLYPD3-FC\def2QZVP\C4H6\BOITTIER\26-Aug-2020\0\\
 #p B2PLYPD3/Def2QZVP\\butadiene\\0,1\C,0,-3.832508,0.235229,0.01875\C,
 0,-2.71568,-0.516098,0.032967\C,0,-1.396497,0.069948,-0.005972\C,0,-0.
 273263,-0.652321,0.04326\H,0,-4.805655,-0.21159,0.045418\H,0,-3.76982,
 1.313981,0.089759\H,0,-2.75366,-1.615359,0.021618\H,0,-1.311154,1.1546
 09,-0.02178\H,0,-0.255439,-1.723876,0.123266\H,0,0.70312,-0.174576,0.0
 01236\\Version=ES64L-G09RevD.01\State=1-A\HF=-155.6999298\MP2=-155.925
 9875\RMSD=5.184e-09\PG=C01 [X(C4H6)]\\@

 Normal termination of Gaussian 09 at Wed Aug 26 16:12:19 2020.
