 Gaussian 09, Revision D.01,
 Gaussian 09:  ES64L-G09RevD.01 24-Apr-2013

 --------------------
 #p B2PLYPD3/Def2QZVP
 --------------------

 ---------
 butadiene
 ---------
 Symbolic Z-matrix:
 Charge =  0 Multiplicity = 1

                         Standard orientation:
 ---------------------------------------------------------------------
 Center     Atomic      Atomic             Coordinates (Angstroms)
 Number     Number       Type             X           Y           Z
 ---------------------------------------------------------------------
      1          6           0        1.824442    0.093120   -0.012573
      2          6           0        0.602348   -0.399147    0.022878
      3          6           0       -0.607886    0.406042    0.069326
      4          6           0       -1.835050   -0.114079   -0.039176
      5          1           0        2.734678   -0.485716   -0.084718
      6          1           0        1.946385    1.215263   -0.037212
      7          1           0        0.458010   -1.460470   -0.013461
      8          1           0       -0.423029    1.497321   -0.053312
      9          1           0       -1.924820   -1.201020    0.024194
     10          1           0       -2.694349    0.519009   -0.078221
 ---------------------------------------------------------------------

 SCF Done:  E(RB2PLYPD3) =  -155.695976130     A.U. after   11 cycles
 E2(B2PLYPD3) =    -0.2259768171D+00 E(B2PLYPD3) =    -0.15592195294753D+03

 The electronic state is 1-A.
 Alpha  occ. eigenvalues --  -10.62785 -10.62098 -10.61691 -10.61638  -0.93216
 Alpha  occ. eigenvalues --   -0.85046  -0.69866  -0.63764  -0.54944  -0.53493
 Alpha  occ. eigenvalues --   -0.47027  -0.44952  -0.40846  -0.38269  -0.27894
 Alpha virt. eigenvalues --    0.01864   0.07084   0.07244   0.08107   0.09456
 Alpha virt. eigenvalues --    0.11719   0.12509   0.14475   0.15535   0.16273
 Alpha virt. eigenvalues --    0.18692   0.19828   0.21629   0.23243   0.23946

 Mulliken charges:
               1
     1  C   -0.168879
     2  C   -0.024977
     3  C   -0.025391
     4  C   -0.179569
     5  H    0.088832
     6  H    0.051049
     7  H    0.049822
     8  H    0.049809
     9  H    0.067664
    10  H    0.091642
 Sum of Mulliken charges =   0.00000

 Dipole moment (field-independent basis, Debye):
    X=             -0.0066    Y=             -0.0436    Z=             -0.1570  Tot=              0.1631
 Quadrupole moment (field-independent basis, Debye-Ang):
   XX=            -23.5078   YY=            -23.2706   ZZ=            -29.2441
   XY=             -0.0444   XZ=             -0.0951   YZ=             -0.1527

 1\1\GINC-NODE29\SP\RB2PLYPD3-FC\def2QZVP\C4H6\BOITTIER\26-Aug-2020\0\\
 #p B2PLYPD3/Def2QZVP\\butadiene\\0,1\C,0,-3.831096,0.209037,0.039401\C
 ,0,-2.718424,-0.496933,0.013635\C,0,-1.382543,0.074842,-0.046782\C,0,-
 0.269534,-0.656839,0.071892\H,0,-4.830886,-0.19402,0.121558\H,0,-3.747
 794,1.334971,0.04351\H,0,-2.768523,-1.566017,0.069398\H,0,-1.366435,1.
 183585,0.055836\H,0,-0.37821,-1.743031,0.028398\H,0,0.690287,-0.189208
 ,0.099888\\Version=ES64L-G09RevD.01\State=1-A\HF=-155.6959761\MP2=-155
 .9219529\RMSD=6.317e-09\PG=C01 [X(C4H6)]\\@

 Normal termination of Gaussian 09 at Wed Aug 26 09:16:53 2020.
