 Gaussian 09, Revision D.01,
 Gaussian 09:  ES64L-G09RevD.01 24-Apr-2013

 --------------------
 #p B2PLYPD3/Def2QZVP
 --------------------

 ---------
 butadiene
 ---------
 Symbolic Z-matrix:
 Charge =  0 Multiplicity = 1

                         Standard orientation:
 ---------------------------------------------------------------------
 Center     Atomic      Atomic             Coordinates (Angstroms)
 Number     Number       Type             X           Y           Z
 ---------------------------------------------------------------------
      1          6           0        1.834058   -0.104378    0.005838
      2          6           0        0.583239    0.393150   -0.005418
      3          6           0       -0.600669   -0.412923    0.015441
      4          6           0       -1.823569    0.107539   -0.016016
      5          1           0        2.648339    0.530051    0.019018
      6          1           0        2.029630   -1.167395   -0.002104
      7          1           0        0.450965    1.484024   -0.091133
      8          1           0       -0.479369   -1.470772   -0.028438
      9          1           0       -1.875989    1.203198    0.116229
     10          1           0       -2.731929   -0.479432   -0.012644
 ---------------------------------------------------------------------

 SCF Done:  E(RB2PLYPD3) =  -155.696750114     A.U. after   11 cycles
 E2(B2PLYPD3) =    -0.2258610224D+00 E(B2PLYPD3) =    -0.15592261113653D+03

 The electronic state is 1-A.
 Alpha  occ. eigenvalues --  -10.62629 -10.61994 -10.61586 -10.61042  -0.93394
 Alpha  occ. eigenvalues --   -0.84934  -0.70437  -0.64151  -0.55037  -0.54001
 Alpha  occ. eigenvalues --   -0.46559  -0.45463  -0.41680  -0.38277  -0.27454
 Alpha virt. eigenvalues --    0.01581   0.07096   0.07400   0.08103   0.09529
 Alpha virt. eigenvalues --    0.11736   0.12587   0.14691   0.15824   0.16192
 Alpha virt. eigenvalues --    0.18684   0.20267   0.21649   0.22906   0.24139

 Mulliken charges:
               1
     1  C   -0.184512
     2  C   -0.027520
     3  C   -0.024970
     4  C   -0.172780
     5  H    0.089047
     6  H    0.066568
     7  H    0.050809
     8  H    0.056772
     9  H    0.058935
    10  H    0.087650
 Sum of Mulliken charges =   0.00000

 Dipole moment (field-independent basis, Debye):
    X=              0.0077    Y=             -0.0549    Z=              0.0106  Tot=              0.0565
 Quadrupole moment (field-independent basis, Debye-Ang):
   XX=            -23.5483   YY=            -23.1265   ZZ=            -29.1970
   XY=              0.0740   XZ=             -0.1405   YZ=              0.1018

 1\1\GINC-NODE37\SP\RB2PLYPD3-FC\def2QZVP\C4H6\BOITTIER\26-Aug-2020\0\\
 #p B2PLYPD3/Def2QZVP\\butadiene\\0,1\C,0,-3.837505,0.220761,0.020703\C
 ,0,-2.698519,-0.496746,0.030882\C,0,-1.387337,0.079984,0.027487\C,0,-0
 .28005,-0.655668,0.018187\H,0,-4.753839,-0.253574,0.053337\H,0,-3.8358
 37,1.300683,-0.024936\H,0,-2.767801,-1.595755,-0.016314\H,0,-1.313701,
 1.140021,-0.053644\H,0,-0.42803,-1.737206,0.188723\H,0,0.720175,-0.244
 555,0.004055\\Version=ES64L-G09RevD.01\State=1-A\HF=-155.6967501\MP2=-
 155.9226111\RMSD=6.594e-09\PG=C01 [X(C4H6)]\\@

 Normal termination of Gaussian 09 at Wed Aug 26 09:04:15 2020.
