 Gaussian 09, Revision D.01,
 Gaussian 09:  ES64L-G09RevD.01 24-Apr-2013

 --------------------
 #p B2PLYPD3/Def2QZVP
 --------------------

 ---------
 butadiene
 ---------
 Symbolic Z-matrix:
 Charge =  0 Multiplicity = 1

                         Standard orientation:
 ---------------------------------------------------------------------
 Center     Atomic      Atomic             Coordinates (Angstroms)
 Number     Number       Type             X           Y           Z
 ---------------------------------------------------------------------
      1          6           0        1.833639    0.120719    0.031922
      2          6           0        0.600654   -0.408922   -0.028477
      3          6           0       -0.585549    0.366710   -0.036869
      4          6           0       -1.821280   -0.102024    0.008029
      5          1           0        2.701881   -0.482544    0.083828
      6          1           0        1.914356    1.189050   -0.024018
      7          1           0        0.472973   -1.475033   -0.038511
      8          1           0       -0.506773    1.472876   -0.050059
      9          1           0       -2.055641   -1.140652    0.014902
     10          1           0       -2.691581    0.577404    0.166224
 ---------------------------------------------------------------------

 SCF Done:  E(RB2PLYPD3) =  -155.696914869     A.U. after   11 cycles
 E2(B2PLYPD3) =    -0.2257432929D+00 E(B2PLYPD3) =    -0.15592265816235D+03

 The electronic state is 1-A.
 Alpha  occ. eigenvalues --  -10.62270 -10.62188 -10.61372 -10.61331  -0.93621
 Alpha  occ. eigenvalues --   -0.85055  -0.70559  -0.64088  -0.55186  -0.53891
 Alpha  occ. eigenvalues --   -0.46516  -0.45567  -0.41359  -0.38480  -0.27487
 Alpha virt. eigenvalues --    0.01511   0.06968   0.07459   0.07984   0.09888
 Alpha virt. eigenvalues --    0.11723   0.12486   0.14841   0.15873   0.16156
 Alpha virt. eigenvalues --    0.18740   0.20389   0.21615   0.22541   0.24193

 Mulliken charges:
               1
     1  C   -0.177807
     2  C   -0.036809
     3  C   -0.011064
     4  C   -0.175757
     5  H    0.091240
     6  H    0.067789
     7  H    0.055037
     8  H    0.046049
     9  H    0.063668
    10  H    0.077654
 Sum of Mulliken charges =   0.00000

 Dipole moment (field-independent basis, Debye):
    X=              0.0255    Y=             -0.0525    Z=              0.0893  Tot=              0.1066
 Quadrupole moment (field-independent basis, Debye-Ang):
   XX=            -23.5571   YY=            -23.1637   ZZ=            -29.1421
   XY=              0.0201   XZ=             -0.3071   YZ=              0.0023

 1\1\GINC-NODE19\SP\RB2PLYPD3-FC\def2QZVP\C4H6\BOITTIER\26-Aug-2020\0\\
 #p B2PLYPD3/Def2QZVP\\butadiene\\0,1\C,0,-3.830448,0.235262,-0.012214\
 C,0,-2.712789,-0.50599,0.063977\C,0,-1.40615,0.042775,0.046488\C,0,-0.
 275511,-0.64239,0.015486\H,0,-4.793555,-0.202777,-0.044016\H,0,-3.7168
 48,1.301842,0.009606\H,0,-2.779356,-1.576797,0.107985\H,0,-1.284104,1.
 144863,0.024368\H,0,-0.232306,-1.705955,0.04162\H,0,0.701956,-0.13642,
 -0.165143\\Version=ES64L-G09RevD.01\State=1-A\HF=-155.6969149\MP2=-155
 .9226582\RMSD=5.844e-09\PG=C01 [X(C4H6)]\\@

 Normal termination of Gaussian 09 at Wed Aug 26 09:02:29 2020.
