 Gaussian 09, Revision D.01,
 Gaussian 09:  ES64L-G09RevD.01 24-Apr-2013

 --------------------
 #p B2PLYPD3/Def2QZVP
 --------------------

 ---------
 butadiene
 ---------
 Symbolic Z-matrix:
 Charge =  0 Multiplicity = 1

                         Standard orientation:
 ---------------------------------------------------------------------
 Center     Atomic      Atomic             Coordinates (Angstroms)
 Number     Number       Type             X           Y           Z
 ---------------------------------------------------------------------
      1          6           0       -1.824475    0.098331    0.013515
      2          6           0       -0.592667   -0.433363   -0.051392
      3          6           0        0.607235    0.372432   -0.126909
      4          6           0        1.817957   -0.090282    0.063195
      5          1           0       -2.907654   -0.303579    0.177255
      6          1           0       -1.836413    1.252403    0.198473
      7          1           0       -0.506511   -1.478808   -0.000672
      8          1           0        0.442178    1.429531   -0.015926
      9          1           0        2.047106   -1.169836    0.081883
     10          1           0        2.712993    0.587581    0.168529
 ---------------------------------------------------------------------

 SCF Done:  E(RB2PLYPD3) =  -155.677358429     A.U. after   11 cycles
 E2(B2PLYPD3) =    -0.2272237411D+00 E(B2PLYPD3) =    -0.15590458217009D+03

 The electronic state is 1-A.
 Alpha  occ. eigenvalues --  -10.63366 -10.62671 -10.62257 -10.62080  -0.93538
 Alpha  occ. eigenvalues --   -0.84734  -0.69055  -0.64441  -0.54413  -0.53378
 Alpha  occ. eigenvalues --   -0.47230  -0.43230  -0.40476  -0.38349  -0.27933
 Alpha virt. eigenvalues --    0.01633   0.06869   0.07236   0.07913   0.09240
 Alpha virt. eigenvalues --    0.11303   0.12657   0.13885   0.15619   0.16862
 Alpha virt. eigenvalues --    0.18875   0.19764   0.21624   0.22593   0.23017

 Mulliken charges:
               1
     1  C   -0.158341
     2  C   -0.037225
     3  C   -0.022171
     4  C   -0.161570
     5  H    0.083663
     6  H    0.031427
     7  H    0.060291
     8  H    0.061525
     9  H    0.065208
    10  H    0.077192
 Sum of Mulliken charges =   0.00000

 Dipole moment (field-independent basis, Debye):
    X=              0.0955    Y=             -0.0748    Z=              0.4093  Tot=              0.4269
 Quadrupole moment (field-independent basis, Debye-Ang):
   XX=            -23.1873   YY=            -23.7108   ZZ=            -29.2561
   XY=             -0.0414   XZ=             -0.2250   YZ=              0.2087

 1\1\GINC-NODE10\SP\RB2PLYPD3-FC\def2QZVP\C4H6\BOITTIER\26-Aug-2020\0\\
 #p B2PLYPD3/Def2QZVP\\butadiene\\0,1\C,0,-3.829004,0.215776,0.051272\C
 ,0,-2.713274,-0.529351,-0.013513\C,0,-1.387903,0.046835,-0.092085\C,0,
 -0.280138,-0.626083,0.097995\H,0,-4.966656,0.016018,0.216989\H,0,-3.63
 2511,1.353505,0.233472\H,0,-2.816869,-1.573092,0.039633\H,0,-1.359599,
 1.116613,0.016517\H,0,-0.249272,-1.729214,0.119057\H,0,0.722548,-0.120
 394,0.200865\\Version=ES64L-G09RevD.01\State=1-A\HF=-155.6773584\MP2=-
 155.9045822\RMSD=9.169e-09\PG=C01 [X(C4H6)]\\@

 Normal termination of Gaussian 09 at Wed Aug 26 14:52:18 2020.
