 Gaussian 09, Revision D.01,
 Gaussian 09:  ES64L-G09RevD.01 24-Apr-2013

 --------------------
 #p B2PLYPD3/Def2QZVP
 --------------------

 ---------
 butadiene
 ---------
 Symbolic Z-matrix:
 Charge =  0 Multiplicity = 1

                         Standard orientation:
 ---------------------------------------------------------------------
 Center     Atomic      Atomic             Coordinates (Angstroms)
 Number     Number       Type             X           Y           Z
 ---------------------------------------------------------------------
      1          6           0        1.843841   -0.172920   -0.075488
      2          6           0        0.620730    0.437065   -0.004757
      3          6           0       -0.606671   -0.339350    0.039410
      4          6           0       -1.848294    0.084412   -0.026207
      5          1           0        2.643924    0.602455    0.201301
      6          1           0        1.993931   -1.261341   -0.040759
      7          1           0        0.530165    1.586653    0.152240
      8          1           0       -0.522391   -1.465849    0.216347
      9          1           0       -2.098832    1.105335   -0.085898
     10          1           0       -2.604438   -0.622497   -0.040982
 ---------------------------------------------------------------------

 SCF Done:  E(RB2PLYPD3) =  -155.676614769     A.U. after   12 cycles
 E2(B2PLYPD3) =    -0.2275500101D+00 E(B2PLYPD3) =    -0.15590416477933D+03

 The electronic state is 1-A.
 Alpha  occ. eigenvalues --  -10.64060 -10.62947 -10.62562 -10.60308  -0.92722
 Alpha  occ. eigenvalues --   -0.85025  -0.69880  -0.62675  -0.54649  -0.53497
 Alpha  occ. eigenvalues --   -0.46723  -0.44600  -0.40678  -0.37429  -0.27777
 Alpha virt. eigenvalues --    0.01236   0.06779   0.06964   0.07790   0.09602
 Alpha virt. eigenvalues --    0.11495   0.12302   0.14877   0.15621   0.15766
 Alpha virt. eigenvalues --    0.18775   0.19415   0.21320   0.22458   0.24336

 Mulliken charges:
               1
     1  C   -0.171692
     2  C   -0.041335
     3  C   -0.008017
     4  C   -0.181252
     5  H    0.074151
     6  H    0.081321
     7  H    0.053267
     8  H    0.038510
     9  H    0.066145
    10  H    0.088902
 Sum of Mulliken charges =   0.00000

 Dipole moment (field-independent basis, Debye):
    X=             -0.1566    Y=             -0.0055    Z=              0.3618  Tot=              0.3943
 Quadrupole moment (field-independent basis, Debye-Ang):
   XX=            -24.4746   YY=            -22.8056   ZZ=            -29.3482
   XY=             -0.1867   XZ=              0.8099   YZ=              0.1416

 1\1\GINC-NODE23\SP\RB2PLYPD3-FC\def2QZVP\C4H6\BOITTIER\26-Aug-2020\0\\
 #p B2PLYPD3/Def2QZVP\\butadiene\\0,1\C,0,-3.835904,0.276505,-0.040702\
 C,0,-2.737991,-0.535534,0.050214\C,0,-1.392992,0.014221,0.055724\C,0,-
 0.245827,-0.623493,0.002427\H,0,-4.756208,-0.334179,0.272436\H,0,-3.79
 2324,1.374857,-0.051512\H,0,-2.848597,-1.675731,0.255445\H,0,-1.276242
 ,1.144287,0.185073\H,0,-0.178983,-1.674132,-0.015032\H,0,0.622358,-0.0
 61692,-0.045828\\Version=ES64L-G09RevD.01\State=1-A\HF=-155.6766148\MP
 2=-155.9041648\RMSD=3.271e-09\PG=C01 [X(C4H6)]\\@

 Normal termination of Gaussian 09 at Wed Aug 26 14:18:26 2020.
