 Gaussian 09, Revision D.01,
 Gaussian 09:  ES64L-G09RevD.01 24-Apr-2013

 --------------------
 #p B2PLYPD3/Def2QZVP
 --------------------

 ---------
 butadiene
 ---------
 Symbolic Z-matrix:
 Charge =  0 Multiplicity = 1

                         Standard orientation:
 ---------------------------------------------------------------------
 Center     Atomic      Atomic             Coordinates (Angstroms)
 Number     Number       Type             X           Y           Z
 ---------------------------------------------------------------------
      1          6           0        1.829605    0.125543    0.004461
      2          6           0        0.608181   -0.410933   -0.011398
      3          6           0       -0.598949    0.389745   -0.010691
      4          6           0       -1.834179   -0.108284    0.016620
      5          1           0        2.666752   -0.540153    0.011136
      6          1           0        1.980644    1.196879    0.065913
      7          1           0        0.488588   -1.489340   -0.066170
      8          1           0       -0.480639    1.481170   -0.028473
      9          1           0       -1.974254   -1.161345    0.081048
     10          1           0       -2.709034    0.536365   -0.057407
 ---------------------------------------------------------------------

 SCF Done:  E(RB2PLYPD3) =  -155.700364574     A.U. after   11 cycles
 E2(B2PLYPD3) =    -0.2255943760D+00 E(B2PLYPD3) =    -0.15592595895030D+03

 The electronic state is 1-A.
 Alpha  occ. eigenvalues --  -10.62451 -10.62368 -10.61364 -10.61213  -0.93120
 Alpha  occ. eigenvalues --   -0.85050  -0.70046  -0.63999  -0.54506  -0.54181
 Alpha  occ. eigenvalues --   -0.46436  -0.45789  -0.41318  -0.38170  -0.27650
 Alpha virt. eigenvalues --    0.01820   0.07038   0.07381   0.08035   0.09629
 Alpha virt. eigenvalues --    0.11772   0.12360   0.14801   0.15769   0.16149
 Alpha virt. eigenvalues --    0.18695   0.20312   0.21589   0.22869   0.24099

 Mulliken charges:
               1
     1  C   -0.178014
     2  C   -0.034199
     3  C   -0.021799
     4  C   -0.181064
     5  H    0.086069
     6  H    0.071867
     7  H    0.054601
     8  H    0.049929
     9  H    0.065599
    10  H    0.087012
 Sum of Mulliken charges =   0.00000

 Dipole moment (field-independent basis, Debye):
    X=              0.0246    Y=             -0.0177    Z=             -0.0025  Tot=              0.0304
 Quadrupole moment (field-independent basis, Debye-Ang):
   XX=            -23.7456   YY=            -22.9593   ZZ=            -29.2322
   XY=              0.0395   XZ=              0.1676   YZ=             -0.0129

 1\1\GINC-NODE02\SP\RB2PLYPD3-FC\def2QZVP\C4H6\BOITTIER\26-Aug-2020\0\\
 #p B2PLYPD3/Def2QZVP\\butadiene\\0,1\C,0,-3.829131,0.23526,0.011304\C,
 0,-2.723096,-0.509956,0.046983\C,0,-1.392401,0.061928,0.025756\C,0,-0.
 266021,-0.649245,0.017167\H,0,-4.771705,-0.270158,0.022191\H,0,-3.7865
 94,1.313996,-0.082864\H,0,-2.797852,-1.590234,0.134592\H,0,-1.313881,1
 .15697,0.010279\H,0,-0.31639,-1.711851,-0.015071\H,0,0.71006,-0.169226
 ,0.074349\\Version=ES64L-G09RevD.01\State=1-A\HF=-155.7003646\MP2=-155
 .925959\RMSD=4.624e-09\PG=C01 [X(C4H6)]\\@

 Normal termination of Gaussian 09 at Wed Aug 26 20:58:17 2020.
