 Gaussian 09, Revision D.01,
 Gaussian 09:  ES64L-G09RevD.01 24-Apr-2013

 --------------------
 #p B2PLYPD3/Def2QZVP
 --------------------

 ---------
 butadiene
 ---------
 Symbolic Z-matrix:
 Charge =  0 Multiplicity = 1

                         Standard orientation:
 ---------------------------------------------------------------------
 Center     Atomic      Atomic             Coordinates (Angstroms)
 Number     Number       Type             X           Y           Z
 ---------------------------------------------------------------------
      1          6           0       -1.805612   -0.143526   -0.015665
      2          6           0       -0.588065    0.439171    0.014576
      3          6           0        0.593034   -0.378282    0.106099
      4          6           0        1.834779    0.082766   -0.066789
      5          1           0       -2.659280    0.491259   -0.090005
      6          1           0       -1.960300   -1.218485   -0.086221
      7          1           0       -0.547744    1.518334    0.040041
      8          1           0        0.416109   -1.416988   -0.044978
      9          1           0        1.929259    1.260952    0.003207
     10          1           0        2.617136   -0.635852   -0.051373
 ---------------------------------------------------------------------

 SCF Done:  E(RB2PLYPD3) =  -155.684139626     A.U. after   11 cycles
 E2(B2PLYPD3) =    -0.2271076018D+00 E(B2PLYPD3) =    -0.15591124722807D+03

 The electronic state is 1-A.
 Alpha  occ. eigenvalues --  -10.62504 -10.62243 -10.61878 -10.61487  -0.93317
 Alpha  occ. eigenvalues --   -0.84747  -0.69813  -0.64046  -0.54766  -0.53277
 Alpha  occ. eigenvalues --   -0.46296  -0.44613  -0.41694  -0.38220  -0.27424
 Alpha virt. eigenvalues --    0.01533   0.07036   0.07232   0.08027   0.09051
 Alpha virt. eigenvalues --    0.11835   0.12121   0.14443   0.15368   0.16482
 Alpha virt. eigenvalues --    0.18330   0.19367   0.21266   0.23438   0.24627

 Mulliken charges:
               1
     1  C   -0.178161
     2  C   -0.031684
     3  C   -0.026217
     4  C   -0.177739
     5  H    0.078687
     6  H    0.068202
     7  H    0.055575
     8  H    0.058668
     9  H    0.062223
    10  H    0.090447
 Sum of Mulliken charges =   0.00000

 Dipole moment (field-independent basis, Debye):
    X=             -0.1025    Y=             -0.0499    Z=             -0.1257  Tot=              0.1697
 Quadrupole moment (field-independent basis, Debye-Ang):
   XX=            -24.3444   YY=            -22.7909   ZZ=            -29.3339
   XY=             -0.2340   XZ=              0.1856   YZ=              0.2618

 1\1\GINC-NODE32\SP\RB2PLYPD3-FC\def2QZVP\C4H6\BOITTIER\26-Aug-2020\0\\
 #p B2PLYPD3/Def2QZVP\\butadiene\\0,1\C,0,-3.805288,0.254721,0.044876\C
 ,0,-2.714107,-0.539884,0.016638\C,0,-1.404103,0.048662,-0.078775\C,0,-
 0.266765,-0.629899,0.095592\H,0,-4.760112,-0.213848,0.122213\H,0,-3.76
 1745,1.340162,0.110954\H,0,-2.870822,-1.608467,-0.004288\H,0,-1.38893,
 1.102829,0.067984\H,0,-0.388291,-1.805886,0.030532\H,0,0.633257,-0.065
 682,0.076851\\Version=ES64L-G09RevD.01\State=1-A\HF=-155.6841396\MP2=-
 155.9112472\RMSD=9.433e-09\PG=C01 [X(C4H6)]\\@

 Normal termination of Gaussian 09 at Wed Aug 26 11:49:38 2020.
