 Gaussian 09, Revision D.01,
 Gaussian 09:  ES64L-G09RevD.01 24-Apr-2013

 --------------------
 #p B2PLYPD3/Def2QZVP
 --------------------

 ---------
 butadiene
 ---------
 Symbolic Z-matrix:
 Charge =  0 Multiplicity = 1

                         Standard orientation:
 ---------------------------------------------------------------------
 Center     Atomic      Atomic             Coordinates (Angstroms)
 Number     Number       Type             X           Y           Z
 ---------------------------------------------------------------------
      1          6           0        1.849224    0.098212    0.007475
      2          6           0        0.608862   -0.387592    0.008796
      3          6           0       -0.621463    0.415830   -0.013481
      4          6           0       -1.838701   -0.127519   -0.001876
      5          1           0        2.715363   -0.524798   -0.029238
      6          1           0        1.989071    1.181395    0.049026
      7          1           0        0.493748   -1.445236   -0.078867
      8          1           0       -0.490308    1.488275   -0.034589
      9          1           0       -1.974199   -1.202116    0.077377
     10          1           0       -2.721206    0.508897    0.010807
 ---------------------------------------------------------------------

 SCF Done:  E(RB2PLYPD3) =  -155.700437091     A.U. after   11 cycles
 E2(B2PLYPD3) =    -0.2254819905D+00 E(B2PLYPD3) =    -0.15592591908099D+03

 The electronic state is 1-A.
 Alpha  occ. eigenvalues --  -10.62646 -10.62259 -10.61664 -10.61340  -0.92842
 Alpha  occ. eigenvalues --   -0.85064  -0.69902  -0.64219  -0.54582  -0.53989
 Alpha  occ. eigenvalues --   -0.46989  -0.45451  -0.41098  -0.37955  -0.27861
 Alpha virt. eigenvalues --    0.01889   0.07027   0.07463   0.08088   0.09506
 Alpha virt. eigenvalues --    0.11701   0.12435   0.14618   0.15768   0.16177
 Alpha virt. eigenvalues --    0.18794   0.20362   0.21503   0.22939   0.23964

 Mulliken charges:
               1
     1  C   -0.179226
     2  C   -0.026699
     3  C   -0.038945
     4  C   -0.172079
     5  H    0.089654
     6  H    0.060210
     7  H    0.055549
     8  H    0.056891
     9  H    0.069540
    10  H    0.085105
 Sum of Mulliken charges =   0.00000

 Dipole moment (field-independent basis, Debye):
    X=             -0.0232    Y=             -0.0091    Z=             -0.0038  Tot=              0.0252
 Quadrupole moment (field-independent basis, Debye-Ang):
   XX=            -23.4988   YY=            -23.0898   ZZ=            -29.2517
   XY=             -0.0090   XZ=             -0.2340   YZ=              0.0497

 1\1\GINC-NODE14\SP\RB2PLYPD3-FC\def2QZVP\C4H6\BOITTIER\26-Aug-2020\0\\
 #p B2PLYPD3/Def2QZVP\\butadiene\\0,1\C,0,-3.855416,0.208133,0.014384\C
 ,0,-2.720266,-0.488806,0.029062\C,0,-1.367373,0.085084,0.025216\C,0,-0
 .265197,-0.664715,0.031493\H,0,-4.817675,-0.25067,0.071334\H,0,-3.8021
 7,1.297085,-0.062538\H,0,-2.793089,-1.546784,0.151234\H,0,-1.307112,1.
 163953,0.011272\H,0,-0.321892,-1.748338,-0.012605\H,0,0.715673,-0.1948
 39,-0.001876\\Version=ES64L-G09RevD.01\State=1-A\HF=-155.7004371\MP2=-
 155.9259191\RMSD=4.660e-09\PG=C01 [X(C4H6)]\\@

 Normal termination of Gaussian 09 at Wed Aug 26 18:30:16 2020.
