 Gaussian 09, Revision D.01,
 Gaussian 09:  ES64L-G09RevD.01 24-Apr-2013

 --------------------
 #p B2PLYPD3/Def2QZVP
 --------------------

 ---------
 butadiene
 ---------
 Symbolic Z-matrix:
 Charge =  0 Multiplicity = 1

                         Standard orientation:
 ---------------------------------------------------------------------
 Center     Atomic      Atomic             Coordinates (Angstroms)
 Number     Number       Type             X           Y           Z
 ---------------------------------------------------------------------
      1          6           0       -1.831401    0.113201    0.040014
      2          6           0       -0.607539   -0.419312   -0.063721
      3          6           0        0.581986    0.374192   -0.023206
      4          6           0        1.843676   -0.093991    0.024368
      5          1           0       -2.688803   -0.509291    0.001041
      6          1           0       -1.934986    1.221767    0.133264
      7          1           0       -0.450134   -1.464609   -0.038036
      8          1           0        0.381066    1.438623   -0.107396
      9          1           0        2.105134   -1.159970    0.154960
     10          1           0        2.667391    0.628939   -0.008572
 ---------------------------------------------------------------------

 SCF Done:  E(RB2PLYPD3) =  -155.695745706     A.U. after   11 cycles
 E2(B2PLYPD3) =    -0.2263803117D+00 E(B2PLYPD3) =    -0.15592212601730D+03

 The electronic state is 1-A.
 Alpha  occ. eigenvalues --  -10.62398 -10.62055 -10.61993 -10.61817  -0.93305
 Alpha  occ. eigenvalues --   -0.84558  -0.70423  -0.64146  -0.54776  -0.53314
 Alpha  occ. eigenvalues --   -0.46633  -0.45787  -0.41167  -0.38186  -0.27405
 Alpha virt. eigenvalues --    0.01347   0.06995   0.07339   0.08115   0.09651
 Alpha virt. eigenvalues --    0.11733   0.12200   0.14871   0.15512   0.16204
 Alpha virt. eigenvalues --    0.18648   0.20065   0.21632   0.22475   0.24020

 Mulliken charges:
               1
     1  C   -0.174175
     2  C   -0.033265
     3  C   -0.022848
     4  C   -0.187049
     5  H    0.090554
     6  H    0.063193
     7  H    0.058362
     8  H    0.051731
     9  H    0.070018
    10  H    0.083479
 Sum of Mulliken charges =   0.00000

 Dipole moment (field-independent basis, Debye):
    X=             -0.0663    Y=             -0.0496    Z=              0.0726  Tot=              0.1101
 Quadrupole moment (field-independent basis, Debye-Ang):
   XX=            -23.7395   YY=            -23.0895   ZZ=            -29.2777
   XY=             -0.2218   XZ=              0.0057   YZ=             -0.1346

 1\1\GINC-NODE33\SP\RB2PLYPD3-FC\def2QZVP\C4H6\BOITTIER\26-Aug-2020\0\\
 #p B2PLYPD3/Def2QZVP\\butadiene\\0,1\C,0,-3.827819,0.241839,0.057803\C
 ,0,-2.725294,-0.513154,-0.023393\C,0,-1.408417,0.045304,-0.008631\C,0,
 -0.25608,-0.648127,0.059145\H,0,-4.78649,-0.210664,0.039233\H,0,-3.722
 297,1.352889,0.110506\H,0,-2.76563,-1.567838,0.040603\H,0,-1.407508,1.
 124783,-0.1319\H,0,-0.197606,-1.73875,0.228997\H,0,0.687935,-0.093327,
 0.002119\\Version=ES64L-G09RevD.01\State=1-A\HF=-155.6957457\MP2=-155.
 922126\RMSD=5.156e-09\PG=C01 [X(C4H6)]\\@

 Normal termination of Gaussian 09 at Wed Aug 26 09:28:34 2020.
