 Gaussian 09, Revision D.01,
 Gaussian 09:  ES64L-G09RevD.01 24-Apr-2013

 --------------------
 #p B2PLYPD3/Def2QZVP
 --------------------

 ---------
 butadiene
 ---------
 Symbolic Z-matrix:
 Charge =  0 Multiplicity = 1

                         Standard orientation:
 ---------------------------------------------------------------------
 Center     Atomic      Atomic             Coordinates (Angstroms)
 Number     Number       Type             X           Y           Z
 ---------------------------------------------------------------------
      1          6           0       -1.790195   -0.100308   -0.056757
      2          6           0       -0.605805    0.418906    0.005944
      3          6           0        0.568325   -0.380574    0.047097
      4          6           0        1.825163    0.080354   -0.025994
      5          1           0       -2.827158    0.385322    0.127634
      6          1           0       -1.801127   -1.234732   -0.076034
      7          1           0       -0.505574    1.469754    0.185392
      8          1           0        0.418668   -1.383660    0.049640
      9          1           0        2.062562    1.142401   -0.201570
     10          1           0        2.667706   -0.489348    0.093195
 ---------------------------------------------------------------------

 SCF Done:  E(RB2PLYPD3) =  -155.680618213     A.U. after   11 cycles
 E2(B2PLYPD3) =    -0.2255229184D+00 E(B2PLYPD3) =    -0.15590614113141D+03

 The electronic state is 1-A.
 Alpha  occ. eigenvalues --  -10.62232 -10.61635 -10.61489 -10.61096  -0.94259
 Alpha  occ. eigenvalues --   -0.85208  -0.70284  -0.64886  -0.55214  -0.53789
 Alpha  occ. eigenvalues --   -0.47662  -0.44501  -0.40805  -0.38622  -0.27819
 Alpha virt. eigenvalues --    0.01707   0.07024   0.07494   0.08061   0.09694
 Alpha virt. eigenvalues --    0.11596   0.12778   0.14505   0.15567   0.16521
 Alpha virt. eigenvalues --    0.18706   0.19756   0.22047   0.22428   0.24124

 Mulliken charges:
               1
     1  C   -0.154107
     2  C   -0.017989
     3  C   -0.042521
     4  C   -0.174384
     5  H    0.079815
     6  H    0.039856
     7  H    0.062416
     8  H    0.063019
     9  H    0.057799
    10  H    0.086097
 Sum of Mulliken charges =   0.00000

 Dipole moment (field-independent basis, Debye):
    X=              0.0085    Y=             -0.0102    Z=              0.2151  Tot=              0.2155
 Quadrupole moment (field-independent basis, Debye-Ang):
   XX=            -23.1740   YY=            -23.5923   ZZ=            -28.9374
   XY=              0.0161   XZ=             -0.5336   YZ=              0.0131

 1\1\GINC-NODE40\SP\RB2PLYPD3-FC\def2QZVP\C4H6\BOITTIER\26-Aug-2020\0\\
 #p B2PLYPD3/Def2QZVP\\butadiene\\0,1\C,0,-3.792231,0.217256,0.062156\C
 ,0,-2.724048,-0.513142,0.019761\C,0,-1.422273,0.054491,-0.031414\C,0,-
 0.272485,-0.628784,0.061119\H,0,-4.900582,-0.072734,-0.118378\H,0,-3.5
 93353,1.33431,0.055328\H,0,-2.819284,-1.568397,-0.134822\H,0,-1.383944
 ,1.067608,-0.058024\H,0,-0.235951,-1.711912,0.262686\H,0,0.661159,-0.2
 27522,-0.065143\\Version=ES64L-G09RevD.01\State=1-A\HF=-155.6806182\MP
 2=-155.9061411\RMSD=9.013e-09\PG=C01 [X(C4H6)]\\@

 Normal termination of Gaussian 09 at Wed Aug 26 14:50:43 2020.
