 Gaussian 09, Revision D.01,
 Gaussian 09:  ES64L-G09RevD.01 24-Apr-2013

 --------------------
 #p B2PLYPD3/Def2QZVP
 --------------------

 ---------
 butadiene
 ---------
 Symbolic Z-matrix:
 Charge =  0 Multiplicity = 1

                         Standard orientation:
 ---------------------------------------------------------------------
 Center     Atomic      Atomic             Coordinates (Angstroms)
 Number     Number       Type             X           Y           Z
 ---------------------------------------------------------------------
      1          6           0       -1.847104   -0.128106   -0.014539
      2          6           0       -0.600344    0.432053    0.015153
      3          6           0        0.594439   -0.372816   -0.020895
      4          6           0        1.842506    0.077441    0.013586
      5          1           0       -2.745186    0.466432   -0.035295
      6          1           0       -1.966705   -1.206431    0.132661
      7          1           0       -0.431197    1.537866   -0.062634
      8          1           0        0.426074   -1.441329   -0.005828
      9          1           0        2.019890    1.133402    0.099727
     10          1           0        2.760138   -0.541367   -0.088459
 ---------------------------------------------------------------------

 SCF Done:  E(RB2PLYPD3) =  -155.694924201     A.U. after   11 cycles
 E2(B2PLYPD3) =    -0.2268543851D+00 E(B2PLYPD3) =    -0.15592177858595D+03

 The electronic state is 1-A.
 Alpha  occ. eigenvalues --  -10.63495 -10.62306 -10.62283 -10.61625  -0.92989
 Alpha  occ. eigenvalues --   -0.84465  -0.70329  -0.63858  -0.54633  -0.53367
 Alpha  occ. eigenvalues --   -0.46740  -0.45350  -0.41066  -0.38093  -0.27407
 Alpha virt. eigenvalues --    0.01204   0.07013   0.07304   0.08026   0.09420
 Alpha virt. eigenvalues --    0.11610   0.12518   0.14645   0.15595   0.16363
 Alpha virt. eigenvalues --    0.18802   0.19895   0.21976   0.22808   0.23469

 Mulliken charges:
               1
     1  C   -0.176515
     2  C   -0.038405
     3  C   -0.015939
     4  C   -0.174434
     5  H    0.087620
     6  H    0.068273
     7  H    0.053189
     8  H    0.052115
     9  H    0.058338
    10  H    0.085759
 Sum of Mulliken charges =   0.00000

 Dipole moment (field-independent basis, Debye):
    X=             -0.0160    Y=              0.0062    Z=              0.0390  Tot=              0.0426
 Quadrupole moment (field-independent basis, Debye-Ang):
   XX=            -23.2878   YY=            -23.3413   ZZ=            -29.3586
   XY=              0.2246   XZ=             -0.1835   YZ=             -0.1118

 1\1\GINC-NODE31\SP\RB2PLYPD3-FC\def2QZVP\C4H6\BOITTIER\26-Aug-2020\0\\
 #p B2PLYPD3/Def2QZVP\\butadiene\\0,1\C,0,-3.842879,0.249948,0.027349\C
 ,0,-2.719929,-0.529823,0.023979\C,0,-1.397812,0.043368,0.032818\C,0,-0
 .253465,-0.628871,0.020377\H,0,-4.834583,-0.168763,0.068112\H,0,-3.763
 485,1.325355,-0.162265\H,0,-2.755905,-1.644016,0.145483\H,0,-1.36767,1
 .123227,-0.024555\H,0,-0.272813,-1.702002,-0.023839\H,0,0.762353,-0.18
 5108,0.101442\\Version=ES64L-G09RevD.01\State=1-A\HF=-155.6949242\MP2=
 -155.9217786\RMSD=6.424e-09\PG=C01 [X(C4H6)]\\@

 Normal termination of Gaussian 09 at Wed Aug 26 08:59:59 2020.
