 Gaussian 09, Revision D.01,
 Gaussian 09:  ES64L-G09RevD.01 24-Apr-2013

 --------------------
 #p B2PLYPD3/Def2QZVP
 --------------------

 ---------
 butadiene
 ---------
 Symbolic Z-matrix:
 Charge =  0 Multiplicity = 1

                         Standard orientation:
 ---------------------------------------------------------------------
 Center     Atomic      Atomic             Coordinates (Angstroms)
 Number     Number       Type             X           Y           Z
 ---------------------------------------------------------------------
      1          6           0       -1.826295    0.114590    0.005806
      2          6           0       -0.604895   -0.405758   -0.028153
      3          6           0        0.599173    0.395482   -0.003695
      4          6           0        1.833574   -0.106445    0.011007
      5          1           0       -2.683957   -0.533513    0.010387
      6          1           0       -1.958627    1.216006    0.096822
      7          1           0       -0.504887   -1.480482   -0.009560
      8          1           0        0.442110    1.465636   -0.060914
      9          1           0        1.984323   -1.185635    0.071190
     10          1           0        2.711694    0.530772   -0.017707
 ---------------------------------------------------------------------

 SCF Done:  E(RB2PLYPD3) =  -155.700074564     A.U. after   11 cycles
 E2(B2PLYPD3) =    -0.2256747748D+00 E(B2PLYPD3) =    -0.15592574933876D+03

 The electronic state is 1-A.
 Alpha  occ. eigenvalues --  -10.62353 -10.62172 -10.61589 -10.61570  -0.93228
 Alpha  occ. eigenvalues --   -0.84983  -0.69900  -0.63995  -0.54586  -0.53872
 Alpha  occ. eigenvalues --   -0.46577  -0.45420  -0.41231  -0.38275  -0.27716
 Alpha virt. eigenvalues --    0.01855   0.07034   0.07337   0.08049   0.09633
 Alpha virt. eigenvalues --    0.11745   0.12352   0.14673   0.15723   0.16193
 Alpha virt. eigenvalues --    0.18680   0.20358   0.21455   0.22819   0.24037

 Mulliken charges:
               1
     1  C   -0.175949
     2  C   -0.027224
     3  C   -0.028669
     4  C   -0.177711
     5  H    0.087299
     6  H    0.063136
     7  H    0.052919
     8  H    0.053861
     9  H    0.065357
    10  H    0.086981
 Sum of Mulliken charges =   0.00000

 Dipole moment (field-independent basis, Debye):
    X=             -0.0107    Y=             -0.0286    Z=              0.0654  Tot=              0.0722
 Quadrupole moment (field-independent basis, Debye-Ang):
   XX=            -23.6946   YY=            -23.0456   ZZ=            -29.2443
   XY=              0.0278   XZ=             -0.1817   YZ=             -0.0618

 1\1\GINC-NODE31\SP\RB2PLYPD3-FC\def2QZVP\C4H6\BOITTIER\26-Aug-2020\0\\
 #p B2PLYPD3/Def2QZVP\\butadiene\\0,1\C,0,-3.82792,0.227003,0.027211\C,
 0,-2.720351,-0.505643,0.011237\C,0,-1.391599,0.066004,0.009644\C,0,-0.
 267659,-0.649275,0.041698\H,0,-4.788203,-0.25553,0.052912\H,0,-3.75931
 3,1.336627,0.081442\H,0,-2.815347,-1.579605,0.06565\H,0,-1.353759,1.14
 448,-0.08325\H,0,-0.313321,-1.7354,0.137853\H,0,0.710656,-0.181921,-0.
 007749\\Version=ES64L-G09RevD.01\State=1-A\HF=-155.7000746\MP2=-155.92
 57493\RMSD=2.990e-09\PG=C01 [X(C4H6)]\\@

 Normal termination of Gaussian 09 at Wed Aug 26 19:58:39 2020.
