 Gaussian 09, Revision D.01,
 Gaussian 09:  ES64L-G09RevD.01 24-Apr-2013

 --------------------
 #p B2PLYPD3/Def2QZVP
 --------------------

 ---------
 butadiene
 ---------
 Symbolic Z-matrix:
 Charge =  0 Multiplicity = 1

                         Standard orientation:
 ---------------------------------------------------------------------
 Center     Atomic      Atomic             Coordinates (Angstroms)
 Number     Number       Type             X           Y           Z
 ---------------------------------------------------------------------
      1          6           0        1.823689   -0.113678    0.011495
      2          6           0        0.595017    0.403201   -0.019163
      3          6           0       -0.605746   -0.388972    0.002197
      4          6           0       -1.830693    0.100536    0.000648
      5          1           0        2.738055    0.509361    0.003522
      6          1           0        1.986620   -1.187325    0.064274
      7          1           0        0.515324    1.477229   -0.048659
      8          1           0       -0.428020   -1.461639   -0.080903
      9          1           0       -1.992049    1.180796    0.078967
     10          1           0       -2.713530   -0.524947    0.011734
 ---------------------------------------------------------------------

 SCF Done:  E(RB2PLYPD3) =  -155.699987783     A.U. after   11 cycles
 E2(B2PLYPD3) =    -0.2255428277D+00 E(B2PLYPD3) =    -0.15592553061072D+03

 The electronic state is 1-A.
 Alpha  occ. eigenvalues --  -10.62283 -10.62217 -10.61748 -10.61433  -0.93402
 Alpha  occ. eigenvalues --   -0.85029  -0.70030  -0.64086  -0.54696  -0.53893
 Alpha  occ. eigenvalues --   -0.46834  -0.45116  -0.40991  -0.38454  -0.27800
 Alpha virt. eigenvalues --    0.01837   0.07021   0.07396   0.08002   0.09733
 Alpha virt. eigenvalues --    0.11681   0.12457   0.14681   0.15713   0.16270
 Alpha virt. eigenvalues --    0.18748   0.20301   0.21700   0.22769   0.23721

 Mulliken charges:
               1
     1  C   -0.173929
     2  C   -0.026899
     3  C   -0.027894
     4  C   -0.173054
     5  H    0.081953
     6  H    0.061377
     7  H    0.054683
     8  H    0.053857
     9  H    0.063509
    10  H    0.086399
 Sum of Mulliken charges =   0.00000

 Dipole moment (field-independent basis, Debye):
    X=              0.0097    Y=              0.0041    Z=              0.0209  Tot=              0.0234
 Quadrupole moment (field-independent basis, Debye-Ang):
   XX=            -23.4146   YY=            -23.2191   ZZ=            -29.1966
   XY=             -0.0932   XZ=             -0.0324   YZ=              0.0616

 1\1\GINC-NODE24\SP\RB2PLYPD3-FC\def2QZVP\C4H6\BOITTIER\26-Aug-2020\0\\
 #p B2PLYPD3/Def2QZVP\\butadiene\\0,1\C,0,-3.827151,0.227044,0.028351\C
 ,0,-2.712272,-0.504176,0.018205\C,0,-1.388027,0.058133,0.015161\C,0,-0
 .27175,-0.644517,0.033162\H,0,-4.839094,-0.220336,0.039634\H,0,-3.7931
 27,1.31362,0.043966\H,0,-2.828139,-1.575286,0.025682\H,0,-1.369269,1.1
 4179,-0.105022\H,0,-0.308,-1.73284,0.14879\H,0,0.709638,-0.188928,0.02
 4834\\Version=ES64L-G09RevD.01\State=1-A\HF=-155.6999878\MP2=-155.9255
 306\RMSD=4.576e-09\PG=C01 [X(C4H6)]\\@

 Normal termination of Gaussian 09 at Wed Aug 26 20:47:00 2020.
