 Gaussian 09, Revision D.01,
 Gaussian 09:  ES64L-G09RevD.01 24-Apr-2013

 --------------------
 #p B2PLYPD3/Def2QZVP
 --------------------

 ---------
 butadiene
 ---------
 Symbolic Z-matrix:
 Charge =  0 Multiplicity = 1

                         Standard orientation:
 ---------------------------------------------------------------------
 Center     Atomic      Atomic             Coordinates (Angstroms)
 Number     Number       Type             X           Y           Z
 ---------------------------------------------------------------------
      1          6           0        1.802962   -0.138296   -0.039991
      2          6           0        0.558832    0.454129    0.067032
      3          6           0       -0.583474   -0.338757    0.128838
      4          6           0       -1.811884    0.047688   -0.090814
      5          1           0        2.733347    0.433572   -0.183861
      6          1           0        2.017854   -1.307101   -0.047014
      7          1           0        0.500933    1.554161   -0.034302
      8          1           0       -0.433857   -1.389154   -0.031629
      9          1           0       -1.920788    1.143707    0.026067
     10          1           0       -2.696111   -0.583765   -0.119649
 ---------------------------------------------------------------------

 SCF Done:  E(RB2PLYPD3) =  -155.674542761     A.U. after   12 cycles
 E2(B2PLYPD3) =    -0.2281604182D+00 E(B2PLYPD3) =    -0.15590270317946D+03

 The electronic state is 1-A.
 Alpha  occ. eigenvalues --  -10.63641 -10.63382 -10.61356 -10.61206  -0.94160
 Alpha  occ. eigenvalues --   -0.84325  -0.70042  -0.63728  -0.55070  -0.53202
 Alpha  occ. eigenvalues --   -0.46598  -0.43348  -0.41066  -0.38935  -0.27206
 Alpha virt. eigenvalues --    0.00960   0.06977   0.07219   0.07857   0.09339
 Alpha virt. eigenvalues --    0.11662   0.12389   0.14375   0.15325   0.16606
 Alpha virt. eigenvalues --    0.18693   0.19138   0.21586   0.23215   0.23830

 Mulliken charges:
               1
     1  C   -0.170440
     2  C   -0.045262
     3  C   -0.004133
     4  C   -0.167104
     5  H    0.079321
     6  H    0.059578
     7  H    0.059171
     8  H    0.054383
     9  H    0.047137
    10  H    0.087349
 Sum of Mulliken charges =   0.00000

 Dipole moment (field-independent basis, Debye):
    X=              0.0497    Y=             -0.0247    Z=             -0.2123  Tot=              0.2195
 Quadrupole moment (field-independent basis, Debye-Ang):
   XX=            -23.5736   YY=            -23.3802   ZZ=            -29.3042
   XY=              0.1731   XZ=             -0.3304   YZ=              0.1267

 1\1\GINC-NODE17\SP\RB2PLYPD3-FC\def2QZVP\C4H6\BOITTIER\26-Aug-2020\0\\
 #p B2PLYPD3/Def2QZVP\\butadiene\\0,1\C,0,-3.800216,0.258415,-0.040506\
 C,0,-2.688767,-0.549928,0.106269\C,0,-1.417701,0.016806,0.129816\C,0,-
 0.28474,-0.604884,-0.06118\H,0,-4.82209,-0.135924,-0.157204\H,0,-3.792
 075,1.444522,-0.114098\H,0,-2.838771,-1.645212,0.066973\H,0,-1.368448,
 1.065961,-0.089996\H,0,-0.382765,-1.693582,0.117446\H,0,0.702081,-0.15
 3125,-0.1205\\Version=ES64L-G09RevD.01\State=1-A\HF=-155.6745428\MP2=-
 155.9027032\RMSD=5.989e-09\PG=C01 [X(C4H6)]\\@

 Normal termination of Gaussian 09 at Wed Aug 26 12:22:06 2020.
