 Gaussian 09, Revision D.01,
 Gaussian 09:  ES64L-G09RevD.01 24-Apr-2013

 --------------------
 #p B2PLYPD3/Def2QZVP
 --------------------

 ---------
 butadiene
 ---------
 Symbolic Z-matrix:
 Charge =  0 Multiplicity = 1

                         Standard orientation:
 ---------------------------------------------------------------------
 Center     Atomic      Atomic             Coordinates (Angstroms)
 Number     Number       Type             X           Y           Z
 ---------------------------------------------------------------------
      1          6           0        1.843302   -0.098958   -0.000500
      2          6           0        0.607399    0.369873   -0.008195
      3          6           0       -0.616784   -0.435059   -0.048657
      4          6           0       -1.850856    0.128065    0.013155
      5          1           0        2.635372    0.624541    0.091992
      6          1           0        2.128458   -1.118884    0.008233
      7          1           0        0.479719    1.487329    0.011881
      8          1           0       -0.440825   -1.489625    0.072993
      9          1           0       -1.996526    1.204392   -0.021859
     10          1           0       -2.704555   -0.491277    0.101940
 ---------------------------------------------------------------------

 SCF Done:  E(RB2PLYPD3) =  -155.695939428     A.U. after   11 cycles
 E2(B2PLYPD3) =    -0.2259691211D+00 E(B2PLYPD3) =    -0.15592190854949D+03

 The electronic state is 1-A.
 Alpha  occ. eigenvalues --  -10.62929 -10.62653 -10.61860 -10.60879  -0.92668
 Alpha  occ. eigenvalues --   -0.84937  -0.70440  -0.63789  -0.54675  -0.53870
 Alpha  occ. eigenvalues --   -0.46608  -0.46146  -0.40714  -0.37878  -0.27686
 Alpha virt. eigenvalues --    0.01623   0.06990   0.07399   0.08086   0.09441
 Alpha virt. eigenvalues --    0.11643   0.12347   0.14950   0.15566   0.16228
 Alpha virt. eigenvalues --    0.18791   0.20006   0.21820   0.22768   0.24185

 Mulliken charges:
               1
     1  C   -0.179491
     2  C   -0.015303
     3  C   -0.046504
     4  C   -0.175678
     5  H    0.079925
     6  H    0.068410
     7  H    0.044253
     8  H    0.063271
     9  H    0.073401
    10  H    0.087715
 Sum of Mulliken charges =   0.00000

 Dipole moment (field-independent basis, Debye):
    X=             -0.0359    Y=             -0.0322    Z=              0.1997  Tot=              0.2054
 Quadrupole moment (field-independent basis, Debye-Ang):
   XX=            -23.5799   YY=            -22.9975   ZZ=            -29.2842
   XY=             -0.4096   XZ=             -0.0484   YZ=             -0.1323

 1\1\GINC-NODE27\SP\RB2PLYPD3-FC\def2QZVP\C4H6\BOITTIER\26-Aug-2020\0\\
 #p B2PLYPD3/Def2QZVP\\butadiene\\0,1\C,0,-3.849503,0.214472,0.024316\C
 ,0,-2.719528,-0.471422,0.029257\C,0,-1.369444,0.096272,-0.027073\C,0,-
 0.258258,-0.680433,0.049463\H,0,-4.759749,-0.350617,0.131592\H,0,-3.94
 4345,1.26919,0.009737\H,0,-2.797209,-1.592728,0.074546\H,0,-1.350343,1
 .167699,0.070651\H,0,-0.310897,-1.765809,0.038787\H,0,0.694069,-0.2249
 04,0.125855\\Version=ES64L-G09RevD.01\State=1-A\HF=-155.6959394\MP2=-1
 55.9219085\RMSD=6.958e-09\PG=C01 [X(C4H6)]\\@

 Normal termination of Gaussian 09 at Wed Aug 26 09:03:46 2020.
