 Gaussian 09, Revision D.01,
 Gaussian 09:  ES64L-G09RevD.01 24-Apr-2013

 --------------------
 #p B2PLYPD3/Def2QZVP
 --------------------

 ---------
 butadiene
 ---------
 Symbolic Z-matrix:
 Charge =  0 Multiplicity = 1

                         Standard orientation:
 ---------------------------------------------------------------------
 Center     Atomic      Atomic             Coordinates (Angstroms)
 Number     Number       Type             X           Y           Z
 ---------------------------------------------------------------------
      1          6           0        1.847205    0.086100   -0.028349
      2          6           0        0.605912   -0.374256    0.038493
      3          6           0       -0.610770    0.440799    0.002799
      4          6           0       -1.833843   -0.143998   -0.018885
      5          1           0        2.686206   -0.588751   -0.070172
      6          1           0        2.072054    1.155461    0.068003
      7          1           0        0.467959   -1.438522    0.002911
      8          1           0       -0.497964    1.485078    0.036046
      9          1           0       -2.051621   -1.149301    0.055904
     10          1           0       -2.727657    0.484171   -0.057043
 ---------------------------------------------------------------------

 SCF Done:  E(RB2PLYPD3) =  -155.695576305     A.U. after   11 cycles
 E2(B2PLYPD3) =    -0.2256030833D+00 E(B2PLYPD3) =    -0.15592117938876D+03

 The electronic state is 1-A.
 Alpha  occ. eigenvalues --  -10.62780 -10.62168 -10.61493 -10.61303  -0.92812
 Alpha  occ. eigenvalues --   -0.84857  -0.70478  -0.64721  -0.54766  -0.53919
 Alpha  occ. eigenvalues --   -0.47470  -0.45340  -0.41169  -0.37839  -0.27587
 Alpha virt. eigenvalues --    0.01648   0.06979   0.07560   0.08140   0.09349
 Alpha virt. eigenvalues --    0.11675   0.12430   0.14924   0.15789   0.16322
 Alpha virt. eigenvalues --    0.18833   0.20258   0.21809   0.23064   0.23843

 Mulliken charges:
               1
     1  C   -0.175490
     2  C   -0.028658
     3  C   -0.045685
     4  C   -0.171877
     5  H    0.082643
     6  H    0.062546
     7  H    0.057675
     8  H    0.069669
     9  H    0.076528
    10  H    0.072648
 Sum of Mulliken charges =   0.00000

 Dipole moment (field-independent basis, Debye):
    X=             -0.0670    Y=             -0.0300    Z=              0.0755  Tot=              0.1054
 Quadrupole moment (field-independent basis, Debye-Ang):
   XX=            -23.4933   YY=            -22.9942   ZZ=            -29.2320
   XY=              0.3589   XZ=             -0.0630   YZ=              0.0947

 1\1\GINC-NODE40\SP\RB2PLYPD3-FC\def2QZVP\C4H6\BOITTIER\26-Aug-2020\0\\
 #p B2PLYPD3/Def2QZVP\\butadiene\\0,1\C,0,-3.852604,0.203888,0.046104\C
 ,0,-2.715281,-0.475456,-0.000739\C,0,-1.371198,0.107045,0.005246\C,0,-
 0.273798,-0.687892,0.051671\H,0,-4.799478,-0.306095,0.11275\H,0,-3.881
 082,1.291755,-0.092125\H,0,-2.771676,-1.544953,0.076424\H,0,-1.293669,
 1.152445,-0.068765\H,0,-0.241627,-1.718122,0.016386\H,0,0.718985,-0.23
 0611,0.066851\\Version=ES64L-G09RevD.01\State=1-A\HF=-155.6955763\MP2=
 -155.9211794\RMSD=7.147e-09\PG=C01 [X(C4H6)]\\@

 Normal termination of Gaussian 09 at Wed Aug 26 09:15:32 2020.
