 Gaussian 09, Revision D.01,
 Gaussian 09:  ES64L-G09RevD.01 24-Apr-2013

 --------------------
 #p B2PLYPD3/Def2QZVP
 --------------------

 ---------
 butadiene
 ---------
 Symbolic Z-matrix:
 Charge =  0 Multiplicity = 1

                         Standard orientation:
 ---------------------------------------------------------------------
 Center     Atomic      Atomic             Coordinates (Angstroms)
 Number     Number       Type             X           Y           Z
 ---------------------------------------------------------------------
      1          6           0       -1.839704    0.099943   -0.008896
      2          6           0       -0.591948   -0.394644    0.004578
      3          6           0        0.603495    0.414578    0.025952
      4          6           0        1.833653   -0.111528   -0.025164
      5          1           0       -2.695648   -0.529455   -0.031158
      6          1           0       -2.028734    1.163502   -0.032301
      7          1           0       -0.481179   -1.461720    0.057087
      8          1           0        0.453303    1.487986    0.039397
      9          1           0        1.966521   -1.193415    0.008107
     10          1           0        2.752761    0.483014   -0.019946
 ---------------------------------------------------------------------

 SCF Done:  E(RB2PLYPD3) =  -155.700376890     A.U. after   11 cycles
 E2(B2PLYPD3) =    -0.2258911091D+00 E(B2PLYPD3) =    -0.15592626799939D+03

 The electronic state is 1-A.
 Alpha  occ. eigenvalues --  -10.62605 -10.62381 -10.61852 -10.61306  -0.93090
 Alpha  occ. eigenvalues --   -0.84736  -0.70294  -0.64315  -0.54740  -0.53876
 Alpha  occ. eigenvalues --   -0.46741  -0.45414  -0.41451  -0.38140  -0.27508
 Alpha virt. eigenvalues --    0.01579   0.07028   0.07430   0.08086   0.09544
 Alpha virt. eigenvalues --    0.11651   0.12539   0.14672   0.15849   0.16285
 Alpha virt. eigenvalues --    0.18782   0.20413   0.21804   0.22731   0.23850

 Mulliken charges:
               1
     1  C   -0.180045
     2  C   -0.025603
     3  C   -0.034406
     4  C   -0.169761
     5  H    0.085829
     6  H    0.062834
     7  H    0.056003
     8  H    0.057582
     9  H    0.063323
    10  H    0.084244
 Sum of Mulliken charges =   0.00000

 Dipole moment (field-independent basis, Debye):
    X=              0.0084    Y=             -0.0042    Z=              0.0409  Tot=              0.0419
 Quadrupole moment (field-independent basis, Debye-Ang):
   XX=            -23.3743   YY=            -23.1461   ZZ=            -29.2806
   XY=             -0.1416   XZ=              0.0955   YZ=             -0.0739

 1\1\GINC-NODE13\SP\RB2PLYPD3-FC\def2QZVP\C4H6\BOITTIER\26-Aug-2020\0\\
 #p B2PLYPD3/Def2QZVP\\butadiene\\0,1\C,0,-3.843808,0.217074,0.007998\C
 ,0,-2.706875,-0.495621,0.0418\C,0,-1.384047,0.082737,0.038955\C,0,-0.2
 70377,-0.659924,0.009228\H,0,-4.800084,-0.246396,0.004783\H,0,-3.83618
 1,1.295853,-0.052137\H,0,-2.791995,-1.562621,0.130922\H,0,-1.336311,1.
 165378,0.015422\H,0,-0.336529,-1.746155,0.079691\H,0,0.741604,-0.24278
 4,-0.003227\\Version=ES64L-G09RevD.01\State=1-A\HF=-155.7003769\MP2=-1
 55.926268\RMSD=2.838e-09\PG=C01 [X(C4H6)]\\@

 Normal termination of Gaussian 09 at Wed Aug 26 19:18:51 2020.
