 Gaussian 09, Revision D.01,
 Gaussian 09:  ES64L-G09RevD.01 24-Apr-2013

 --------------------
 #p B2PLYPD3/Def2QZVP
 --------------------

 ---------
 butadiene
 ---------
 Symbolic Z-matrix:
 Charge =  0 Multiplicity = 1

                         Standard orientation:
 ---------------------------------------------------------------------
 Center     Atomic      Atomic             Coordinates (Angstroms)
 Number     Number       Type             X           Y           Z
 ---------------------------------------------------------------------
      1          6           0        1.826144   -0.149283    0.042151
      2          6           0        0.604734    0.428888   -0.063410
      3          6           0       -0.606298   -0.349348   -0.112785
      4          6           0       -1.866677    0.078911    0.041730
      5          1           0        2.714807    0.462888    0.114006
      6          1           0        2.138392   -1.164974    0.149671
      7          1           0        0.645507    1.597574   -0.032059
      8          1           0       -0.439584   -1.440632   -0.008003
      9          1           0       -2.161307    1.155063    0.178930
     10          1           0       -2.645238   -0.664927    0.151343
 ---------------------------------------------------------------------

 SCF Done:  E(RB2PLYPD3) =  -155.683986262     A.U. after   12 cycles
 E2(B2PLYPD3) =    -0.2275026607D+00 E(B2PLYPD3) =    -0.15591148892258D+03

 The electronic state is 1-A.
 Alpha  occ. eigenvalues --  -10.63954 -10.62946 -10.62139 -10.61771  -0.92665
 Alpha  occ. eigenvalues --   -0.84614  -0.70604  -0.63019  -0.54673  -0.53405
 Alpha  occ. eigenvalues --   -0.46153  -0.44634  -0.40668  -0.38065  -0.27459
 Alpha virt. eigenvalues --    0.01141   0.06948   0.07200   0.07681   0.09525
 Alpha virt. eigenvalues --    0.11139   0.12406   0.14821   0.15692   0.16402
 Alpha virt. eigenvalues --    0.18920   0.20101   0.21421   0.22796   0.23414

 Mulliken charges:
               1
     1  C   -0.165839
     2  C   -0.032999
     3  C   -0.028248
     4  C   -0.170248
     5  H    0.068230
     6  H    0.065574
     7  H    0.052610
     8  H    0.057552
     9  H    0.069802
    10  H    0.083565
 Sum of Mulliken charges =   0.00000

 Dipole moment (field-independent basis, Debye):
    X=              0.1197    Y=             -0.0532    Z=              0.3865  Tot=              0.4081
 Quadrupole moment (field-independent basis, Debye-Ang):
   XX=            -23.3617   YY=            -23.1842   ZZ=            -29.4014
   XY=             -0.3385   XZ=             -0.2208   YZ=             -0.0879

 1\1\GINC-NODE06\SP\RB2PLYPD3-FC\def2QZVP\C4H6\BOITTIER\26-Aug-2020\0\\
 #p B2PLYPD3/Def2QZVP\\butadiene\\0,1\C,0,-3.826078,0.262232,0.069212\C
 ,0,-2.728636,-0.527631,-0.02568\C,0,-1.397169,0.019164,-0.079527\C,0,-
 0.234757,-0.627255,0.084106\H,0,-4.810569,-0.179019,0.144804\H,0,-3.95
 0427,1.318724,0.164336\H,0,-2.979285,-1.669424,0.01854\H,0,-1.364745,1
 .123768,0.012522\H,0,-0.13897,-1.737211,0.234297\H,0,0.664895,-0.03457
 ,0.188123\\Version=ES64L-G09RevD.01\State=1-A\HF=-155.6839863\MP2=-155
 .9114889\RMSD=3.951e-09\PG=C01 [X(C4H6)]\\@

 Normal termination of Gaussian 09 at Wed Aug 26 12:27:48 2020.
