 Gaussian 09, Revision D.01,
 Gaussian 09:  ES64L-G09RevD.01 24-Apr-2013

 --------------------
 #p B2PLYPD3/Def2QZVP
 --------------------

 ---------
 butadiene
 ---------
 Symbolic Z-matrix:
 Charge =  0 Multiplicity = 1

                         Standard orientation:
 ---------------------------------------------------------------------
 Center     Atomic      Atomic             Coordinates (Angstroms)
 Number     Number       Type             X           Y           Z
 ---------------------------------------------------------------------
      1          6           0        1.823625   -0.136390   -0.077668
      2          6           0        0.602949    0.452960    0.083980
      3          6           0       -0.593274   -0.371219    0.027344
      4          6           0       -1.857253    0.083210   -0.053109
      5          1           0        2.737762    0.460885   -0.053615
      6          1           0        1.936580   -1.197481   -0.129086
      7          1           0        0.509735    1.510654    0.175126
      8          1           0       -0.333836   -1.379107    0.330733
      9          1           0       -2.193081    1.174767   -0.154330
     10          1           0       -2.513444   -0.741087   -0.052111
 ---------------------------------------------------------------------

 SCF Done:  E(RB2PLYPD3) =  -155.683965703     A.U. after   12 cycles
 E2(B2PLYPD3) =    -0.2273003506D+00 E(B2PLYPD3) =    -0.15591126605364D+03

 The electronic state is 1-A.
 Alpha  occ. eigenvalues --  -10.62559 -10.62492 -10.61999 -10.61899  -0.92778
 Alpha  occ. eigenvalues --   -0.84418  -0.70251  -0.64067  -0.53913  -0.53562
 Alpha  occ. eigenvalues --   -0.46452  -0.46352  -0.41135  -0.37001  -0.27382
 Alpha virt. eigenvalues --    0.01396   0.07117   0.07266   0.07945   0.09160
 Alpha virt. eigenvalues --    0.11424   0.12195   0.14780   0.15033   0.16404
 Alpha virt. eigenvalues --    0.18453   0.19739   0.21391   0.22483   0.24283

 Mulliken charges:
               1
     1  C   -0.173078
     2  C   -0.047714
     3  C   -0.029128
     4  C   -0.194467
     5  H    0.080952
     6  H    0.067186
     7  H    0.063800
     8  H    0.065241
     9  H    0.083927
    10  H    0.083282
 Sum of Mulliken charges =   0.00000

 Dipole moment (field-independent basis, Debye):
    X=              0.0773    Y=              0.0493    Z=              0.1678  Tot=              0.1912
 Quadrupole moment (field-independent basis, Debye-Ang):
   XX=            -24.1254   YY=            -22.8727   ZZ=            -29.3000
   XY=             -0.5720   XZ=              0.0367   YZ=             -0.2017

 1\1\GINC-NODE32\SP\RB2PLYPD3-FC\def2QZVP\C4H6\BOITTIER\26-Aug-2020\0\\
 #p B2PLYPD3/Def2QZVP\\butadiene\\0,1\C,0,-3.819895,0.263504,-0.0536\C,
 0,-2.731432,-0.541096,0.123543\C,0,-1.401607,0.041196,0.046554\C,0,-0.
 246243,-0.645166,-0.021732\H,0,-4.83008,-0.15,-0.014814\H,0,-3.73113,1
 .325243,-0.132009\H,0,-2.838773,-1.594785,0.241572\H,0,-1.465189,1.087
 191,0.32412\H,0,-0.122529,-1.782639,-0.095033\H,0,0.553499,0.040459,-0
 .041364\\Version=ES64L-G09RevD.01\State=1-A\HF=-155.6839657\MP2=-155.9
 112661\RMSD=3.777e-09\PG=C01 [X(C4H6)]\\@

 Normal termination of Gaussian 09 at Wed Aug 26 15:25:32 2020.
