 Gaussian 09, Revision D.01,
 Gaussian 09:  ES64L-G09RevD.01 24-Apr-2013

 --------------------
 #p B2PLYPD3/Def2QZVP
 --------------------

 ---------
 butadiene
 ---------
 Symbolic Z-matrix:
 Charge =  0 Multiplicity = 1

                         Standard orientation:
 ---------------------------------------------------------------------
 Center     Atomic      Atomic             Coordinates (Angstroms)
 Number     Number       Type             X           Y           Z
 ---------------------------------------------------------------------
      1          6           0       -1.827314   -0.126083   -0.057309
      2          6           0       -0.583759    0.463313    0.027966
      3          6           0        0.592043   -0.398383    0.083581
      4          6           0        1.818905    0.100844   -0.095858
      5          1           0       -2.714941    0.417492    0.005010
      6          1           0       -1.884983   -1.222841   -0.174983
      7          1           0       -0.494762    1.498528    0.244518
      8          1           0        0.419339   -1.415617    0.217803
      9          1           0        2.110138    1.149956   -0.091343
     10          1           0        2.565958   -0.665665    0.048721
 ---------------------------------------------------------------------

 SCF Done:  E(RB2PLYPD3) =  -155.686633117     A.U. after   11 cycles
 E2(B2PLYPD3) =    -0.2268528354D+00 E(B2PLYPD3) =    -0.15591348595240D+03

 The electronic state is 1-A.
 Alpha  occ. eigenvalues --  -10.62685 -10.62092 -10.61809 -10.61294  -0.92876
 Alpha  occ. eigenvalues --   -0.84334  -0.70068  -0.64942  -0.54456  -0.53817
 Alpha  occ. eigenvalues --   -0.47307  -0.45533  -0.41453  -0.37146  -0.27282
 Alpha virt. eigenvalues --    0.01442   0.07080   0.07429   0.07944   0.09052
 Alpha virt. eigenvalues --    0.11656   0.12395   0.14851   0.15709   0.16243
 Alpha virt. eigenvalues --    0.18738   0.19829   0.21667   0.22431   0.24245

 Mulliken charges:
               1
     1  C   -0.187525
     2  C   -0.039639
     3  C   -0.042008
     4  C   -0.164955
     5  H    0.088133
     6  H    0.061943
     7  H    0.071842
     8  H    0.068790
     9  H    0.075527
    10  H    0.067891
 Sum of Mulliken charges =   0.00000

 Dipole moment (field-independent basis, Debye):
    X=             -0.0612    Y=              0.0229    Z=              0.3248  Tot=              0.3313
 Quadrupole moment (field-independent basis, Debye-Ang):
   XX=            -24.2077   YY=            -22.7620   ZZ=            -29.2427
   XY=              0.3700   XZ=              0.1723   YZ=              0.1216

 1\1\GINC-NODE10\SP\RB2PLYPD3-FC\def2QZVP\C4H6\BOITTIER\26-Aug-2020\0\\
 #p B2PLYPD3/Def2QZVP\\butadiene\\0,1\C,0,-3.823009,0.253967,0.074139\C
 ,0,-2.711413,-0.558032,-0.003973\C,0,-1.395624,0.068472,-0.069665\C,0,
 -0.283054,-0.648739,0.115846\H,0,-4.796584,-0.115162,0.018164\H,0,-3.6
 74824,1.343528,0.178775\H,0,-2.817546,-1.594135,-0.208207\H,0,-1.37581
 6,1.098427,-0.215977\H,0,-0.192651,-1.733744,0.123824\H,0,0.59357,-0.0
 36798,-0.037728\\Version=ES64L-G09RevD.01\State=1-A\HF=-155.6866331\MP
 2=-155.913486\RMSD=8.564e-09\PG=C01 [X(C4H6)]\\@

 Normal termination of Gaussian 09 at Wed Aug 26 13:46:55 2020.
