 Gaussian 09, Revision D.01,
 Gaussian 09:  ES64L-G09RevD.01 24-Apr-2013

 --------------------
 #p B2PLYPD3/Def2QZVP
 --------------------

 ---------
 butadiene
 ---------
 Symbolic Z-matrix:
 Charge =  0 Multiplicity = 1

                         Standard orientation:
 ---------------------------------------------------------------------
 Center     Atomic      Atomic             Coordinates (Angstroms)
 Number     Number       Type             X           Y           Z
 ---------------------------------------------------------------------
      1          6           0        1.855509   -0.128556    0.037568
      2          6           0        0.626709    0.411101   -0.040151
      3          6           0       -0.615350   -0.372777   -0.017543
      4          6           0       -1.863649    0.095219    0.012120
      5          1           0        2.755000    0.506015    0.063124
      6          1           0        1.899514   -1.243189   -0.065839
      7          1           0        0.541599    1.486732   -0.014994
      8          1           0       -0.473556   -1.412042   -0.026837
      9          1           0       -2.035828    1.162285    0.000888
     10          1           0       -2.706051   -0.529729    0.091698
 ---------------------------------------------------------------------

 SCF Done:  E(RB2PLYPD3) =  -155.696009835     A.U. after   11 cycles
 E2(B2PLYPD3) =    -0.2259188948D+00 E(B2PLYPD3) =    -0.15592192872945D+03

 The electronic state is 1-A.
 Alpha  occ. eigenvalues --  -10.62717 -10.62356 -10.62273 -10.61201  -0.92769
 Alpha  occ. eigenvalues --   -0.85025  -0.70059  -0.64218  -0.54670  -0.53908
 Alpha  occ. eigenvalues --   -0.46885  -0.45428  -0.41205  -0.37849  -0.27809
 Alpha virt. eigenvalues --    0.01608   0.06965   0.07521   0.08067   0.09563
 Alpha virt. eigenvalues --    0.11650   0.12478   0.14497   0.15805   0.16187
 Alpha virt. eigenvalues --    0.18804   0.20169   0.21327   0.22901   0.24143

 Mulliken charges:
               1
     1  C   -0.174158
     2  C   -0.034595
     3  C   -0.029141
     4  C   -0.177103
     5  H    0.090869
     6  H    0.062871
     7  H    0.053411
     8  H    0.054239
     9  H    0.063444
    10  H    0.090163
 Sum of Mulliken charges =   0.00000

 Dipole moment (field-independent basis, Debye):
    X=             -0.0108    Y=              0.0301    Z=              0.0046  Tot=              0.0323
 Quadrupole moment (field-independent basis, Debye-Ang):
   XX=            -23.4069   YY=            -23.2060   ZZ=            -29.2984
   XY=              0.2461   XZ=             -0.1953   YZ=              0.0948

 1\1\GINC-NODE16\SP\RB2PLYPD3-FC\def2QZVP\C4H6\BOITTIER\26-Aug-2020\0\\
 #p B2PLYPD3/Def2QZVP\\butadiene\\0,1\C,0,-3.856469,0.234793,0.052341\C
 ,0,-2.740084,-0.51215,-0.002258\C,0,-1.380851,0.04478,-0.00276\C,0,-0.
 232549,-0.631256,0.047522\H,0,-4.852305,-0.232902,0.096943\H,0,-3.7067
 86,1.335861,-0.090073\H,0,-2.842729,-1.584695,0.060735\H,0,-1.340295,1
 .091918,-0.048824\H,0,-0.248056,-1.711743,0.074149\H,0,0.705675,-0.159
 455,0.108129\\Version=ES64L-G09RevD.01\State=1-A\HF=-155.6960098\MP2=-
 155.9219287\RMSD=6.007e-09\PG=C01 [X(C4H6)]\\@

 Normal termination of Gaussian 09 at Wed Aug 26 09:28:15 2020.
