 Gaussian 09, Revision D.01,
 Gaussian 09:  ES64L-G09RevD.01 24-Apr-2013

 --------------------
 #p B2PLYPD3/Def2QZVP
 --------------------

 ---------
 butadiene
 ---------
 Symbolic Z-matrix:
 Charge =  0 Multiplicity = 1

                         Standard orientation:
 ---------------------------------------------------------------------
 Center     Atomic      Atomic             Coordinates (Angstroms)
 Number     Number       Type             X           Y           Z
 ---------------------------------------------------------------------
      1          6           0       -1.829104    0.104716    0.030347
      2          6           0       -0.603359   -0.404404   -0.046630
      3          6           0        0.604797    0.384703   -0.039833
      4          6           0        1.831534   -0.095510    0.051952
      5          1           0       -2.816317   -0.462953    0.116340
      6          1           0       -1.964292    1.219794    0.010540
      7          1           0       -0.441331   -1.477140   -0.019009
      8          1           0        0.522249    1.457002   -0.110165
      9          1           0        1.986914   -1.181549   -0.088250
     10          1           0        2.689570    0.507817    0.115524
 ---------------------------------------------------------------------

 SCF Done:  E(RB2PLYPD3) =  -155.693184756     A.U. after   11 cycles
 E2(B2PLYPD3) =    -0.2259371673D+00 E(B2PLYPD3) =    -0.15591912192312D+03

 The electronic state is 1-A.
 Alpha  occ. eigenvalues --  -10.62714 -10.62579 -10.62137 -10.61141  -0.93383
 Alpha  occ. eigenvalues --   -0.85046  -0.69876  -0.63954  -0.55031  -0.53338
 Alpha  occ. eigenvalues --   -0.47392  -0.44408  -0.40944  -0.38198  -0.27852
 Alpha virt. eigenvalues --    0.01776   0.06971   0.07348   0.07985   0.09645
 Alpha virt. eigenvalues --    0.11572   0.12551   0.14379   0.15718   0.16488
 Alpha virt. eigenvalues --    0.18803   0.20171   0.21478   0.22860   0.23738

 Mulliken charges:
               1
     1  C   -0.159778
     2  C   -0.035704
     3  C   -0.020126
     4  C   -0.175462
     5  H    0.082750
     6  H    0.056641
     7  H    0.055995
     8  H    0.051231
     9  H    0.056926
    10  H    0.087528
 Sum of Mulliken charges =   0.00000

 Dipole moment (field-independent basis, Debye):
    X=              0.0023    Y=              0.0441    Z=             -0.0427  Tot=              0.0614
 Quadrupole moment (field-independent basis, Debye-Ang):
   XX=            -23.2160   YY=            -23.4378   ZZ=            -29.2051
   XY=              0.0404   XZ=             -0.2740   YZ=              0.0228

 1\1\GINC-NODE18\SP\RB2PLYPD3-FC\def2QZVP\C4H6\BOITTIER\26-Aug-2020\0\\
 #p B2PLYPD3/Def2QZVP\\butadiene\\0,1\C,0,-3.832565,0.218741,0.053843\C
 ,0,-2.71877,-0.504446,-0.009706\C,0,-1.38843,0.054396,-0.026046\C,0,-0
 .267481,-0.635895,0.078286\H,0,-4.905222,-0.159538,0.156535\H,0,-3.765
 226,1.338974,0.002756\H,0,-2.75205,-1.587656,0.04798\H,0,-1.277292,1.1
 21705,-0.126474\H,0,-0.310668,-1.735615,-0.031406\H,0,0.685384,-0.1952
 ,0.124194\\Version=ES64L-G09RevD.01\State=1-A\HF=-155.6931848\MP2=-155
 .9191219\RMSD=5.184e-09\PG=C01 [X(C4H6)]\\@

 Normal termination of Gaussian 09 at Wed Aug 26 22:22:47 2020.
