 Gaussian 09, Revision D.01,
 Gaussian 09:  ES64L-G09RevD.01 24-Apr-2013

 --------------------
 #p B2PLYPD3/Def2QZVP
 --------------------

 ---------
 butadiene
 ---------
 Symbolic Z-matrix:
 Charge =  0 Multiplicity = 1

                         Standard orientation:
 ---------------------------------------------------------------------
 Center     Atomic      Atomic             Coordinates (Angstroms)
 Number     Number       Type             X           Y           Z
 ---------------------------------------------------------------------
      1          6           0        1.847992    0.117004    0.001903
      2          6           0        0.611022   -0.411842   -0.016822
      3          6           0       -0.612349    0.396466   -0.017209
      4          6           0       -1.850913   -0.116821    0.014069
      5          1           0        2.726140   -0.488371    0.101814
      6          1           0        1.978361    1.173497    0.012052
      7          1           0        0.498431   -1.488168   -0.054127
      8          1           0       -0.465454    1.479889   -0.013645
      9          1           0       -2.029964   -1.163453    0.030355
     10          1           0       -2.682034    0.577770    0.031906
 ---------------------------------------------------------------------

 SCF Done:  E(RB2PLYPD3) =  -155.699980706     A.U. after   11 cycles
 E2(B2PLYPD3) =    -0.2258462653D+00 E(B2PLYPD3) =    -0.15592582697131D+03

 The electronic state is 1-A.
 Alpha  occ. eigenvalues --  -10.62791 -10.62703 -10.61416 -10.61344  -0.92658
 Alpha  occ. eigenvalues --   -0.84876  -0.70214  -0.64195  -0.54335  -0.54245
 Alpha  occ. eigenvalues --   -0.46515  -0.46110  -0.41326  -0.37800  -0.27593
 Alpha virt. eigenvalues --    0.01638   0.06998   0.07470   0.08080   0.09442
 Alpha virt. eigenvalues --    0.11715   0.12425   0.14758   0.15795   0.16152
 Alpha virt. eigenvalues --    0.18802   0.20375   0.21668   0.23060   0.23857

 Mulliken charges:
               1
     1  C   -0.176388
     2  C   -0.032795
     3  C   -0.031640
     4  C   -0.180945
     5  H    0.086565
     6  H    0.064795
     7  H    0.056177
     8  H    0.053726
     9  H    0.074297
    10  H    0.086208
 Sum of Mulliken charges =   0.00000

 Dipole moment (field-independent basis, Debye):
    X=              0.0145    Y=             -0.0080    Z=              0.0798  Tot=              0.0815
 Quadrupole moment (field-independent basis, Debye-Ang):
   XX=            -23.5978   YY=            -22.9791   ZZ=            -29.3107
   XY=              0.1545   XZ=              0.1633   YZ=             -0.0134

 1\1\GINC-NODE33\SP\RB2PLYPD3-FC\def2QZVP\C4H6\BOITTIER\26-Aug-2020\0\\
 #p B2PLYPD3/Def2QZVP\\butadiene\\0,1\C,0,-3.850147,0.229975,0.011852\C
 ,0,-2.726828,-0.509479,0.050398\C,0,-1.379269,0.068149,0.029663\C,0,-0
 .251743,-0.657816,0.017759\H,0,-4.822163,-0.212455,-0.07208\H,0,-3.790
 682,1.292003,-0.031002\H,0,-2.807244,-1.587023,0.120949\H,0,-1.331264,
 1.159805,-0.007481\H,0,-0.261615,-1.719607,0.034032\H,0,0.689555,-0.12
 2881,-0.01887\\Version=ES64L-G09RevD.01\State=1-A\HF=-155.6999807\MP2=
 -155.925827\RMSD=2.256e-09\PG=C01 [X(C4H6)]\\@

 Normal termination of Gaussian 09 at Wed Aug 26 19:34:08 2020.
