 Gaussian 09, Revision D.01,
 Gaussian 09:  ES64L-G09RevD.01 24-Apr-2013

 --------------------
 #p B2PLYPD3/Def2QZVP
 --------------------

 ---------
 butadiene
 ---------
 Symbolic Z-matrix:
 Charge =  0 Multiplicity = 1

                         Standard orientation:
 ---------------------------------------------------------------------
 Center     Atomic      Atomic             Coordinates (Angstroms)
 Number     Number       Type             X           Y           Z
 ---------------------------------------------------------------------
      1          6           0       -1.840703   -0.135185   -0.006431
      2          6           0       -0.614539    0.420267    0.024931
      3          6           0        0.614249   -0.384992    0.013916
      4          6           0        1.847924    0.107012   -0.028185
      5          1           0       -2.698644    0.524540   -0.104407
      6          1           0       -2.047217   -1.151020   -0.110617
      7          1           0       -0.480749    1.459716    0.184427
      8          1           0        0.499366   -1.447549    0.113164
      9          1           0        2.024598    1.176109   -0.146613
     10          1           0        2.661063   -0.604413    0.038661
 ---------------------------------------------------------------------

 SCF Done:  E(RB2PLYPD3) =  -155.696196525     A.U. after   11 cycles
 E2(B2PLYPD3) =    -0.2255663397D+00 E(B2PLYPD3) =    -0.15592176286450D+03

 The electronic state is 1-A.
 Alpha  occ. eigenvalues --  -10.62624 -10.62137 -10.61363 -10.61340  -0.92790
 Alpha  occ. eigenvalues --   -0.85022  -0.70230  -0.64438  -0.54775  -0.53770
 Alpha  occ. eigenvalues --   -0.47222  -0.45743  -0.41172  -0.37616  -0.27738
 Alpha virt. eigenvalues --    0.01731   0.07030   0.07573   0.08028   0.09351
 Alpha virt. eigenvalues --    0.11751   0.12353   0.14903   0.15549   0.16082
 Alpha virt. eigenvalues --    0.18711   0.20005   0.21848   0.22906   0.23950

 Mulliken charges:
               1
     1  C   -0.172989
     2  C   -0.048016
     3  C   -0.027818
     4  C   -0.183997
     5  H    0.076254
     6  H    0.073887
     7  H    0.069474
     8  H    0.056627
     9  H    0.070370
    10  H    0.086208
 Sum of Mulliken charges =   0.00000

 Dipole moment (field-independent basis, Debye):
    X=             -0.0395    Y=             -0.0276    Z=             -0.0120  Tot=              0.0497
 Quadrupole moment (field-independent basis, Debye-Ang):
   XX=            -23.8375   YY=            -22.9245   ZZ=            -29.1655
   XY=              0.2412   XZ=              0.3483   YZ=             -0.0502

 1\1\GINC-NODE22\SP\RB2PLYPD3-FC\def2QZVP\C4H6\BOITTIER\26-Aug-2020\0\\
 #p B2PLYPD3/Def2QZVP\\butadiene\\0,1\C,0,-3.839854,0.246648,0.028143\C
 ,0,-2.732387,-0.519031,0.012624\C,0,-1.37982,0.054418,-0.001656\C,0,-0
 .253214,-0.648019,0.054331\H,0,-4.800925,-0.246497,0.146678\H,0,-3.861
 569,1.285654,0.101746\H,0,-2.786777,-1.569945,-0.115494\H,0,-1.304302,
 1.117035,-0.132877\H,0,-0.268976,-1.727508,0.204873\H,0,0.673167,-0.09
 5122,-0.034615\\Version=ES64L-G09RevD.01\State=1-A\HF=-155.6961965\MP2
 =-155.9217629\RMSD=6.771e-09\PG=C01 [X(C4H6)]\\@

 Normal termination of Gaussian 09 at Wed Aug 26 10:38:54 2020.
