 Gaussian 09, Revision D.01,
 Gaussian 09:  ES64L-G09RevD.01 24-Apr-2013

 --------------------
 #p B2PLYPD3/Def2QZVP
 --------------------

 ---------
 butadiene
 ---------
 Symbolic Z-matrix:
 Charge =  0 Multiplicity = 1

                         Standard orientation:
 ---------------------------------------------------------------------
 Center     Atomic      Atomic             Coordinates (Angstroms)
 Number     Number       Type             X           Y           Z
 ---------------------------------------------------------------------
      1          6           0       -1.851138    0.100873    0.020518
      2          6           0       -0.619773   -0.377583   -0.023112
      3          6           0        0.621021    0.422812   -0.023531
      4          6           0        1.856986   -0.134073    0.008388
      5          1           0       -2.657631   -0.573090    0.007170
      6          1           0       -2.037993    1.176070    0.108169
      7          1           0       -0.541439   -1.428465   -0.131700
      8          1           0        0.534126    1.503864   -0.053548
      9          1           0        1.926657   -1.218662    0.184721
     10          1           0        2.733709    0.468116   -0.008389
 ---------------------------------------------------------------------

 SCF Done:  E(RB2PLYPD3) =  -155.696995276     A.U. after   11 cycles
 E2(B2PLYPD3) =    -0.2256875493D+00 E(B2PLYPD3) =    -0.15592268282536D+03

 The electronic state is 1-A.
 Alpha  occ. eigenvalues --  -10.63042 -10.62118 -10.61845 -10.61013  -0.92638
 Alpha  occ. eigenvalues --   -0.85116  -0.69938  -0.64090  -0.54555  -0.54300
 Alpha  occ. eigenvalues --   -0.46491  -0.45732  -0.41434  -0.37691  -0.27778
 Alpha virt. eigenvalues --    0.01737   0.07054   0.07526   0.08042   0.09438
 Alpha virt. eigenvalues --    0.11679   0.12362   0.14615   0.15774   0.16273
 Alpha virt. eigenvalues --    0.18833   0.20247   0.21351   0.22620   0.24204

 Mulliken charges:
               1
     1  C   -0.177650
     2  C   -0.026718
     3  C   -0.046123
     4  C   -0.176010
     5  H    0.087360
     6  H    0.065673
     7  H    0.057576
     8  H    0.057751
     9  H    0.067708
    10  H    0.090432
 Sum of Mulliken charges =   0.00000

 Dipole moment (field-independent basis, Debye):
    X=             -0.0108    Y=              0.0098    Z=              0.0742  Tot=              0.0756
 Quadrupole moment (field-independent basis, Debye-Ang):
   XX=            -23.6020   YY=            -23.0234   ZZ=            -29.2446
   XY=              0.2210   XZ=              0.1386   YZ=             -0.0254

 1\1\GINC-NODE17\SP\RB2PLYPD3-FC\def2QZVP\C4H6\BOITTIER\26-Aug-2020\0\\
 #p B2PLYPD3/Def2QZVP\\butadiene\\0,1\C,0,-3.858901,0.204437,0.038268\C
 ,0,-2.728996,-0.480968,0.013414\C,0,-1.368454,0.092284,-0.009167\C,0,-
 0.247374,-0.668704,0.044013\H,0,-4.769858,-0.319926,0.044253\H,0,-3.85
 6694,1.297994,0.090931\H,0,-2.833939,-1.532487,-0.061257\H,0,-1.26711,
 1.170546,-0.074019\H,0,-0.365886,-1.742784,0.255171\H,0,0.720253,-0.22
 8109,0.010412\\Version=ES64L-G09RevD.01\State=1-A\HF=-155.6969953\MP2=
 -155.9226828\RMSD=6.411e-09\PG=C01 [X(C4H6)]\\@

 Normal termination of Gaussian 09 at Wed Aug 26 10:46:33 2020.
