 Gaussian 09, Revision D.01,
 Gaussian 09:  ES64L-G09RevD.01 24-Apr-2013

 --------------------
 #p B2PLYPD3/Def2QZVP
 --------------------

 ---------
 butadiene
 ---------
 Symbolic Z-matrix:
 Charge =  0 Multiplicity = 1

                         Standard orientation:
 ---------------------------------------------------------------------
 Center     Atomic      Atomic             Coordinates (Angstroms)
 Number     Number       Type             X           Y           Z
 ---------------------------------------------------------------------
      1          6           0        1.849940   -0.102893   -0.029029
      2          6           0        0.615233    0.389248    0.022518
      3          6           0       -0.614690   -0.418380    0.024250
      4          6           0       -1.850359    0.117125   -0.017105
      5          1           0        2.661624    0.552096   -0.051966
      6          1           0        2.055705   -1.156716    0.031595
      7          1           0        0.465336    1.472148    0.077484
      8          1           0       -0.460581   -1.477585    0.015926
      9          1           0       -1.974532    1.198852   -0.036092
     10          1           0       -2.748295   -0.499394   -0.040754
 ---------------------------------------------------------------------

 SCF Done:  E(RB2PLYPD3) =  -155.699366404     A.U. after   11 cycles
 E2(B2PLYPD3) =    -0.2256627911D+00 E(B2PLYPD3) =    -0.15592502919515D+03

 The electronic state is 1-A.
 Alpha  occ. eigenvalues --  -10.62712 -10.62611 -10.61940 -10.60935  -0.92673
 Alpha  occ. eigenvalues --   -0.84949  -0.70260  -0.64120  -0.54671  -0.53900
 Alpha  occ. eigenvalues --   -0.46915  -0.45954  -0.41067  -0.37782  -0.27733
 Alpha virt. eigenvalues --    0.01727   0.07012   0.07438   0.08151   0.09469
 Alpha virt. eigenvalues --    0.11675   0.12437   0.14713   0.15783   0.16175
 Alpha virt. eigenvalues --    0.18842   0.20490   0.21611   0.22929   0.23919

 Mulliken charges:
               1
     1  C   -0.179848
     2  C   -0.026252
     3  C   -0.038870
     4  C   -0.173777
     5  H    0.087555
     6  H    0.067642
     7  H    0.050917
     8  H    0.058690
     9  H    0.066396
    10  H    0.087547
 Sum of Mulliken charges =   0.00000

 Dipole moment (field-independent basis, Debye):
    X=              0.0086    Y=             -0.0122    Z=              0.0302  Tot=              0.0337
 Quadrupole moment (field-independent basis, Debye-Ang):
   XX=            -23.4358   YY=            -23.0758   ZZ=            -29.2887
   XY=             -0.1916   XZ=              0.1509   YZ=             -0.0217

 1\1\GINC-NODE35\SP\RB2PLYPD3-FC\def2QZVP\C4H6\BOITTIER\26-Aug-2020\0\\
 #p B2PLYPD3/Def2QZVP\\butadiene\\0,1\C,0,-3.85393,0.216501,-0.007899\C
 ,0,-2.727539,-0.48795,0.058092\C,0,-1.372512,0.085168,0.037773\C,0,-0.
 253389,-0.664672,0.012118\H,0,-4.770199,-0.282293,-0.012849\H,0,-3.866
 696,1.291415,0.022991\H,0,-2.774432,-1.578208,0.143533\H,0,-1.333808,1
 .154177,-0.000381\H,0,-0.325712,-1.751203,0.023589\H,0,0.740602,-0.220
 503,-0.028375\\Version=ES64L-G09RevD.01\State=1-A\HF=-155.6993664\MP2=
 -155.9250292\RMSD=6.160e-09\PG=C01 [X(C4H6)]\\@

 Normal termination of Gaussian 09 at Wed Aug 26 15:27:13 2020.
