 Gaussian 09, Revision D.01,
 Gaussian 09:  ES64L-G09RevD.01 24-Apr-2013

 --------------------
 #p B2PLYPD3/Def2QZVP
 --------------------

 ---------
 butadiene
 ---------
 Symbolic Z-matrix:
 Charge =  0 Multiplicity = 1

                         Standard orientation:
 ---------------------------------------------------------------------
 Center     Atomic      Atomic             Coordinates (Angstroms)
 Number     Number       Type             X           Y           Z
 ---------------------------------------------------------------------
      1          6           0        1.846184    0.099245    0.011047
      2          6           0        0.616607   -0.391611   -0.009905
      3          6           0       -0.608241    0.410660   -0.009633
      4          6           0       -1.846948   -0.121879    0.004101
      5          1           0        2.736896   -0.533055    0.001384
      6          1           0        2.013181    1.185075   -0.024088
      7          1           0        0.469942   -1.459498    0.004174
      8          1           0       -0.484996    1.480473    0.035430
      9          1           0       -2.043870   -1.166673    0.014898
     10          1           0       -2.736764    0.515191   -0.005463
 ---------------------------------------------------------------------

 SCF Done:  E(RB2PLYPD3) =  -155.700157091     A.U. after   11 cycles
 E2(B2PLYPD3) =    -0.2257222120D+00 E(B2PLYPD3) =    -0.15592587930318D+03

 The electronic state is 1-A.
 Alpha  occ. eigenvalues --  -10.62829 -10.62372 -10.61722 -10.61651  -0.92801
 Alpha  occ. eigenvalues --   -0.84853  -0.70091  -0.64251  -0.54560  -0.53768
 Alpha  occ. eigenvalues --   -0.46942  -0.45518  -0.40931  -0.37993  -0.27767
 Alpha virt. eigenvalues --    0.01719   0.06965   0.07463   0.08064   0.09543
 Alpha virt. eigenvalues --    0.11642   0.12432   0.14662   0.15878   0.16111
 Alpha virt. eigenvalues --    0.18864   0.20524   0.21645   0.22869   0.23616

 Mulliken charges:
               1
     1  C   -0.171274
     2  C   -0.029331
     3  C   -0.037528
     4  C   -0.175233
     5  H    0.085931
     6  H    0.061383
     7  H    0.055848
     8  H    0.059366
     9  H    0.069699
    10  H    0.081140
 Sum of Mulliken charges =   0.00000

 Dipole moment (field-independent basis, Debye):
    X=             -0.0171    Y=             -0.0263    Z=              0.0086  Tot=              0.0325
 Quadrupole moment (field-independent basis, Debye-Ang):
   XX=            -23.3403   YY=            -23.1472   ZZ=            -29.3062
   XY=              0.2219   XZ=             -0.0798   YZ=             -0.0140

 1\1\GINC-NODE32\SP\RB2PLYPD3-FC\def2QZVP\C4H6\BOITTIER\26-Aug-2020\0\\
 #p B2PLYPD3/Def2QZVP\\butadiene\\0,1\C,0,-3.849918,0.212968,0.008289\C
 ,0,-2.727875,-0.489126,0.04466\C,0,-1.379306,0.080759,0.022682\C,0,-0.
 255876,-0.664948,0.025589\H,0,-4.839305,-0.249263,0.035136\H,0,-3.8198
 86,1.31171,0.01205\H,0,-2.774617,-1.565985,0.061409\H,0,-1.309419,1.15
 3641,-0.053213\H,0,-0.249028,-1.727993,0.04501\H,0,0.73356,-0.197318,0
 .017823\\Version=ES64L-G09RevD.01\State=1-A\HF=-155.7001571\MP2=-155.9
 258793\RMSD=5.294e-09\PG=C01 [X(C4H6)]\\@

 Normal termination of Gaussian 09 at Wed Aug 26 21:34:00 2020.
