 Gaussian 09, Revision D.01,
 Gaussian 09:  ES64L-G09RevD.01 24-Apr-2013

 --------------------
 #p B2PLYPD3/Def2QZVP
 --------------------

 ---------
 butadiene
 ---------
 Symbolic Z-matrix:
 Charge =  0 Multiplicity = 1

                         Standard orientation:
 ---------------------------------------------------------------------
 Center     Atomic      Atomic             Coordinates (Angstroms)
 Number     Number       Type             X           Y           Z
 ---------------------------------------------------------------------
      1          6           0        1.864286    0.091359   -0.038352
      2          6           0        0.593974   -0.372326    0.003530
      3          6           0       -0.608787    0.409253    0.017132
      4          6           0       -1.843622   -0.108279   -0.019218
      5          1           0        2.625700   -0.593739    0.131964
      6          1           0        2.157603    1.116680   -0.066959
      7          1           0        0.423899   -1.425411    0.085419
      8          1           0       -0.478547    1.505650    0.117362
      9          1           0       -1.993510   -1.193437   -0.056696
     10          1           0       -2.770255    0.470214    0.010355
 ---------------------------------------------------------------------

 SCF Done:  E(RB2PLYPD3) =  -155.695645153     A.U. after   11 cycles
 E2(B2PLYPD3) =    -0.2261966272D+00 E(B2PLYPD3) =    -0.15592184178055D+03

 The electronic state is 1-A.
 Alpha  occ. eigenvalues --  -10.62763 -10.62541 -10.62053 -10.61166  -0.93030
 Alpha  occ. eigenvalues --   -0.84766  -0.71021  -0.63978  -0.54904  -0.53859
 Alpha  occ. eigenvalues --   -0.46981  -0.45796  -0.41050  -0.37990  -0.27463
 Alpha virt. eigenvalues --    0.01130   0.07010   0.07466   0.08054   0.09749
 Alpha virt. eigenvalues --    0.11563   0.12500   0.14906   0.15843   0.16192
 Alpha virt. eigenvalues --    0.18966   0.20239   0.21917   0.22372   0.23701

 Mulliken charges:
               1
     1  C   -0.177647
     2  C   -0.031855
     3  C   -0.028119
     4  C   -0.170009
     5  H    0.083674
     6  H    0.069215
     7  H    0.056190
     8  H    0.053118
     9  H    0.058885
    10  H    0.086548
 Sum of Mulliken charges =   0.00000

 Dipole moment (field-independent basis, Debye):
    X=             -0.0648    Y=              0.0006    Z=              0.2108  Tot=              0.2206
 Quadrupole moment (field-independent basis, Debye-Ang):
   XX=            -23.2110   YY=            -23.2903   ZZ=            -29.2421
   XY=              0.3964   XZ=              0.3159   YZ=             -0.0807

 1\1\GINC-NODE34\SP\RB2PLYPD3-FC\def2QZVP\C4H6\BOITTIER\26-Aug-2020\0\\
 #p B2PLYPD3/Def2QZVP\\butadiene\\0,1\C,0,-3.867008,0.218868,0.048253\C
 ,0,-2.704593,-0.473006,0.024795\C,0,-1.377924,0.071648,-0.006595\C,0,-
 0.260229,-0.664275,0.049559\H,0,-4.742366,-0.318076,-0.105234\H,0,-3.9
 65344,1.281159,0.0461\H,0,-2.732587,-1.541302,-0.025998\H,0,-1.303029,
 1.169815,-0.138936\H,0,-0.313826,-1.756866,0.118928\H,0,0.757458,-0.26
 8451,0.006972\\Version=ES64L-G09RevD.01\State=1-A\HF=-155.6956452\MP2=
 -155.9218418\RMSD=7.338e-09\PG=C01 [X(C4H6)]\\@

 Normal termination of Gaussian 09 at Wed Aug 26 08:42:04 2020.
