 Gaussian 09, Revision D.01,
 Gaussian 09:  ES64L-G09RevD.01 24-Apr-2013

 --------------------
 #p B2PLYPD3/Def2QZVP
 --------------------

 ---------
 butadiene
 ---------
 Symbolic Z-matrix:
 Charge =  0 Multiplicity = 1

                         Standard orientation:
 ---------------------------------------------------------------------
 Center     Atomic      Atomic             Coordinates (Angstroms)
 Number     Number       Type             X           Y           Z
 ---------------------------------------------------------------------
      1          6           0       -1.858439    0.121391   -0.024082
      2          6           0       -0.628475   -0.410541   -0.003350
      3          6           0        0.614791    0.365272    0.028125
      4          6           0        1.852201   -0.098203   -0.011270
      5          1           0       -2.732906   -0.496569    0.063439
      6          1           0       -1.923353    1.235701    0.014858
      7          1           0       -0.462200   -1.455596    0.013233
      8          1           0        0.520719    1.437468   -0.011075
      9          1           0        2.045210   -1.149128    0.000667
     10          1           0        2.672066    0.560610   -0.017663
 ---------------------------------------------------------------------

 SCF Done:  E(RB2PLYPD3) =  -155.697317065     A.U. after   11 cycles
 E2(B2PLYPD3) =    -0.2253456005D+00 E(B2PLYPD3) =    -0.15592266266546D+03

 The electronic state is 1-A.
 Alpha  occ. eigenvalues --  -10.62486 -10.62118 -10.62041 -10.60830  -0.92947
 Alpha  occ. eigenvalues --   -0.85307  -0.70316  -0.64211  -0.54887  -0.54039
 Alpha  occ. eigenvalues --   -0.47150  -0.45688  -0.40904  -0.38012  -0.27953
 Alpha virt. eigenvalues --    0.01723   0.06987   0.07534   0.08140   0.09756
 Alpha virt. eigenvalues --    0.11717   0.12439   0.14644   0.15810   0.16071
 Alpha virt. eigenvalues --    0.18838   0.20393   0.21446   0.22625   0.24343

 Mulliken charges:
               1
     1  C   -0.170576
     2  C   -0.043348
     3  C   -0.015219
     4  C   -0.180713
     5  H    0.092748
     6  H    0.064632
     7  H    0.056180
     8  H    0.045502
     9  H    0.062152
    10  H    0.088642
 Sum of Mulliken charges =   0.00000

 Dipole moment (field-independent basis, Debye):
    X=              0.0315    Y=             -0.0386    Z=              0.0812  Tot=              0.0952
 Quadrupole moment (field-independent basis, Debye-Ang):
   XX=            -23.4267   YY=            -23.1764   ZZ=            -29.2016
   XY=              0.1077   XZ=             -0.3257   YZ=             -0.0812

 1\1\GINC-NODE35\SP\RB2PLYPD3-FC\def2QZVP\C4H6\BOITTIER\26-Aug-2020\0\\
 #p B2PLYPD3/Def2QZVP\\butadiene\\0,1\C,0,-3.857546,0.232149,-0.001492\
 C,0,-2.740055,-0.506687,0.037618\C,0,-1.379641,0.039069,0.040669\C,0,-
 0.243202,-0.63584,0.017237\H,0,-4.826364,-0.218975,0.108538\H,0,-3.725
 412,1.341183,-0.00241\H,0,-2.759862,-1.563459,0.091493\H,0,-1.284141,1
 .109054,-0.036818\H,0,-0.237754,-1.703251,0.066665\H,0,0.679594,-0.132
 076,-0.01315\\Version=ES64L-G09RevD.01\State=1-A\HF=-155.6973171\MP2=-
 155.9226627\RMSD=6.643e-09\PG=C01 [X(C4H6)]\\@

 Normal termination of Gaussian 09 at Wed Aug 26 08:42:15 2020.
