 Gaussian 09, Revision D.01,
 Gaussian 09:  ES64L-G09RevD.01 24-Apr-2013

 --------------------
 #p B2PLYPD3/Def2QZVP
 --------------------

 ---------
 butadiene
 ---------
 Symbolic Z-matrix:
 Charge =  0 Multiplicity = 1

                         Standard orientation:
 ---------------------------------------------------------------------
 Center     Atomic      Atomic             Coordinates (Angstroms)
 Number     Number       Type             X           Y           Z
 ---------------------------------------------------------------------
      1          6           0       -1.834135    0.072856    0.032996
      2          6           0       -0.581677   -0.377939   -0.045273
      3          6           0        0.590875    0.441550   -0.008984
      4          6           0        1.832439   -0.127869    0.017698
      5          1           0       -2.725771   -0.508389   -0.055107
      6          1           0       -2.025119    1.122844    0.097742
      7          1           0       -0.433925   -1.424042   -0.035382
      8          1           0        0.424311    1.499462   -0.059977
      9          1           0        1.939851   -1.214661    0.126188
     10          1           0        2.775639    0.473202   -0.052089
 ---------------------------------------------------------------------

 SCF Done:  E(RB2PLYPD3) =  -155.694795107     A.U. after   11 cycles
 E2(B2PLYPD3) =    -0.2265183280D+00 E(B2PLYPD3) =    -0.15592131343524D+03

 The electronic state is 1-A.
 Alpha  occ. eigenvalues --  -10.62872 -10.62695 -10.61941 -10.61061  -0.93290
 Alpha  occ. eigenvalues --   -0.84343  -0.70386  -0.64822  -0.54746  -0.53643
 Alpha  occ. eigenvalues --   -0.46832  -0.45247  -0.41672  -0.38108  -0.27205
 Alpha virt. eigenvalues --    0.01211   0.07002   0.07447   0.08123   0.09439
 Alpha virt. eigenvalues --    0.11639   0.12612   0.14660   0.15729   0.16341
 Alpha virt. eigenvalues --    0.18822   0.20203   0.21910   0.22673   0.23670

 Mulliken charges:
               1
     1  C   -0.174866
     2  C   -0.020034
     3  C   -0.039552
     4  C   -0.176215
     5  H    0.083979
     6  H    0.053505
     7  H    0.057580
     8  H    0.063410
     9  H    0.069076
    10  H    0.083117
 Sum of Mulliken charges =   0.00000

 Dipole moment (field-independent basis, Debye):
    X=             -0.0027    Y=              0.0060    Z=             -0.0217  Tot=              0.0227
 Quadrupole moment (field-independent basis, Debye-Ang):
   XX=            -23.3553   YY=            -23.2470   ZZ=            -29.2886
   XY=             -0.2520   XZ=              0.0305   YZ=             -0.1071

 1\1\GINC-NODE28\SP\RB2PLYPD3-FC\def2QZVP\C4H6\BOITTIER\26-Aug-2020\0\\
 #p B2PLYPD3/Def2QZVP\\butadiene\\0,1\C,0,-3.84197,0.198138,0.050715\C,
 0,-2.695424,-0.480193,-0.006678\C,0,-1.390926,0.108029,-0.000626\C,0,-
 0.276558,-0.680572,0.051571\H,0,-4.826477,-0.210413,-0.016024\H,0,-3.8
 34328,1.267057,0.072959\H,0,-2.744431,-1.534302,0.045403\H,0,-1.358427
 ,1.175593,-0.094291\H,0,-0.372239,-1.763218,0.203712\H,0,0.761465,-0.2
 68407,-0.040132\\Version=ES64L-G09RevD.01\State=1-A\HF=-155.6947951\MP
 2=-155.9213134\RMSD=8.470e-09\PG=C01 [X(C4H6)]\\@

 Normal termination of Gaussian 09 at Wed Aug 26 11:19:27 2020.
