 Gaussian 09, Revision D.01,
 Gaussian 09:  ES64L-G09RevD.01 24-Apr-2013

 --------------------
 #p B2PLYPD3/Def2QZVP
 --------------------

 ---------
 butadiene
 ---------
 Symbolic Z-matrix:
 Charge =  0 Multiplicity = 1

                         Standard orientation:
 ---------------------------------------------------------------------
 Center     Atomic      Atomic             Coordinates (Angstroms)
 Number     Number       Type             X           Y           Z
 ---------------------------------------------------------------------
      1          6           0        1.833456   -0.120195    0.003116
      2          6           0        0.606892    0.415439   -0.037744
      3          6           0       -0.619223   -0.410654   -0.033158
      4          6           0       -1.821068    0.126666    0.030444
      5          1           0        2.762573    0.471746    0.206929
      6          1           0        1.903658   -1.203929    0.026460
      7          1           0        0.482680    1.486341   -0.076726
      8          1           0       -0.527872   -1.459075   -0.049227
      9          1           0       -1.944742    1.195275    0.018827
     10          1           0       -2.676640   -0.557890    0.097795
 ---------------------------------------------------------------------

 SCF Done:  E(RB2PLYPD3) =  -155.696027187     A.U. after   11 cycles
 E2(B2PLYPD3) =    -0.2256453046D+00 E(B2PLYPD3) =    -0.15592167249213D+03

 The electronic state is 1-A.
 Alpha  occ. eigenvalues --  -10.62678 -10.62022 -10.61853 -10.61237  -0.92992
 Alpha  occ. eigenvalues --   -0.85047  -0.69120  -0.64637  -0.54425  -0.53681
 Alpha  occ. eigenvalues --   -0.46514  -0.45563  -0.41315  -0.37867  -0.27871
 Alpha virt. eigenvalues --    0.02152   0.06982   0.07450   0.08006   0.09285
 Alpha virt. eigenvalues --    0.11768   0.12459   0.14484   0.15767   0.16057
 Alpha virt. eigenvalues --    0.18648   0.20219   0.21395   0.23204   0.24106

 Mulliken charges:
               1
     1  C   -0.170693
     2  C   -0.037323
     3  C   -0.032566
     4  C   -0.175646
     5  H    0.082691
     6  H    0.060554
     7  H    0.059532
     8  H    0.060487
     9  H    0.071082
    10  H    0.081881
 Sum of Mulliken charges =   0.00000

 Dipole moment (field-independent basis, Debye):
    X=             -0.0559    Y=             -0.0157    Z=              0.1571  Tot=              0.1675
 Quadrupole moment (field-independent basis, Debye-Ang):
   XX=            -24.0068   YY=            -22.9187   ZZ=            -29.2223
   XY=              0.0928   XZ=              0.3734   YZ=              0.0117

 1\1\GINC-NODE27\SP\RB2PLYPD3-FC\def2QZVP\C4H6\BOITTIER\26-Aug-2020\0\\
 #p B2PLYPD3/Def2QZVP\\butadiene\\0,1\C,0,-3.836806,0.222716,0.031331\C
 ,0,-2.722014,-0.51855,0.003125\C,0,-1.371189,0.082039,-0.016215\C,0,-0
 .280401,-0.65386,0.060084\H,0,-4.853263,-0.193443,0.252285\H,0,-3.7178
 22,1.302421,0.025666\H,0,-2.785677,-1.595406,-0.007264\H,0,-1.279397,1
 .129617,-0.0603\H,0,-0.34403,-1.727648,0.07699\H,0,0.681335,-0.126656,
 0.107814\\Version=ES64L-G09RevD.01\State=1-A\HF=-155.6960272\MP2=-155.
 9216725\RMSD=3.938e-09\PG=C01 [X(C4H6)]\\@

 Normal termination of Gaussian 09 at Wed Aug 26 09:31:05 2020.
