 Gaussian 09, Revision D.01,
 Gaussian 09:  ES64L-G09RevD.01 24-Apr-2013

 --------------------
 #p B2PLYPD3/Def2QZVP
 --------------------

 ---------
 butadiene
 ---------
 Symbolic Z-matrix:
 Charge =  0 Multiplicity = 1

                         Standard orientation:
 ---------------------------------------------------------------------
 Center     Atomic      Atomic             Coordinates (Angstroms)
 Number     Number       Type             X           Y           Z
 ---------------------------------------------------------------------
      1          6           0        1.830696    0.121829    0.018652
      2          6           0        0.618775   -0.431842   -0.036358
      3          6           0       -0.592060    0.373815   -0.019711
      4          6           0       -1.840519   -0.096788    0.032850
      5          1           0        2.736388   -0.478497    0.073610
      6          1           0        2.000035    1.225298    0.007106
      7          1           0        0.463498   -1.489653   -0.048232
      8          1           0       -0.501993    1.455979   -0.004108
      9          1           0       -2.145349   -1.107221    0.049041
     10          1           0       -2.653927    0.592007   -0.050010
 ---------------------------------------------------------------------

 SCF Done:  E(RB2PLYPD3) =  -155.697656972     A.U. after   11 cycles
 E2(B2PLYPD3) =    -0.2256071549D+00 E(B2PLYPD3) =    -0.15592326412660D+03

 The electronic state is 1-A.
 Alpha  occ. eigenvalues --  -10.62546 -10.62403 -10.62068 -10.60868  -0.92968
 Alpha  occ. eigenvalues --   -0.84929  -0.70297  -0.64308  -0.54795  -0.53883
 Alpha  occ. eigenvalues --   -0.46833  -0.45416  -0.41006  -0.38091  -0.27669
 Alpha virt. eigenvalues --    0.01729   0.06958   0.07464   0.08081   0.09577
 Alpha virt. eigenvalues --    0.11595   0.12436   0.14869   0.15862   0.16209
 Alpha virt. eigenvalues --    0.18853   0.20222   0.21998   0.22430   0.24013

 Mulliken charges:
               1
     1  C   -0.164348
     2  C   -0.046542
     3  C   -0.021185
     4  C   -0.178237
     5  H    0.082058
     6  H    0.066334
     7  H    0.065342
     8  H    0.055652
     9  H    0.064624
    10  H    0.076303
 Sum of Mulliken charges =   0.00000

 Dipole moment (field-independent basis, Debye):
    X=              0.0468    Y=             -0.0346    Z=             -0.0152  Tot=              0.0601
 Quadrupole moment (field-independent basis, Debye-Ang):
   XX=            -23.4161   YY=            -23.0557   ZZ=            -29.2390
   XY=              0.3724   XZ=              0.2716   YZ=             -0.0805

 1\1\GINC-NODE39\SP\RB2PLYPD3-FC\def2QZVP\C4H6\BOITTIER\26-Aug-2020\0\\
 #p B2PLYPD3/Def2QZVP\\butadiene\\0,1\C,0,-3.826994,0.241216,-0.004512\
 C,0,-2.736388,-0.522498,0.070659\C,0,-1.398882,0.047882,0.035627\C,0,-
 0.257359,-0.643933,0.001049\H,0,-4.82712,-0.185091,-0.045756\H,0,-3.79
 2087,1.35693,-0.024908\H,0,-2.776752,-1.590105,0.113117\H,0,-1.289965,
 1.127417,-0.011009\H,0,-0.142079,-1.693068,0.014661\H,0,0.668221,-0.11
 3044,0.067332\\Version=ES64L-G09RevD.01\State=1-A\HF=-155.697657\MP2=-
 155.9232641\RMSD=4.036e-09\PG=C01 [X(C4H6)]\\@

 Normal termination of Gaussian 09 at Wed Aug 26 22:13:29 2020.
