 Gaussian 09, Revision D.01,
 Gaussian 09:  ES64L-G09RevD.01 24-Apr-2013

 --------------------
 #p B2PLYPD3/Def2QZVP
 --------------------

 ---------
 butadiene
 ---------
 Symbolic Z-matrix:
 Charge =  0 Multiplicity = 1

                         Standard orientation:
 ---------------------------------------------------------------------
 Center     Atomic      Atomic             Coordinates (Angstroms)
 Number     Number       Type             X           Y           Z
 ---------------------------------------------------------------------
      1          6           0       -1.793475   -0.139591    0.048132
      2          6           0       -0.567816    0.427502   -0.085571
      3          6           0        0.565547   -0.352509   -0.016059
      4          6           0        1.812159    0.067564    0.058063
      5          1           0       -2.761752    0.423281   -0.055045
      6          1           0       -1.872793   -1.178646    0.270110
      7          1           0       -0.569714    1.529704   -0.076487
      8          1           0        0.386116   -1.344369   -0.237999
      9          1           0        2.045970    1.128565    0.224367
     10          1           0        2.673688   -0.576326   -0.152337
 ---------------------------------------------------------------------

 SCF Done:  E(RB2PLYPD3) =  -155.684263435     A.U. after   11 cycles
 E2(B2PLYPD3) =    -0.2265902138D+00 E(B2PLYPD3) =    -0.15591085364911D+03

 The electronic state is 1-A.
 Alpha  occ. eigenvalues --  -10.62303 -10.62060 -10.61429 -10.60963  -0.94488
 Alpha  occ. eigenvalues --   -0.84628  -0.70523  -0.64614  -0.54647  -0.54386
 Alpha  occ. eigenvalues --   -0.46351  -0.45144  -0.41702  -0.38529  -0.27059
 Alpha virt. eigenvalues --    0.00972   0.07089   0.07594   0.07832   0.09756
 Alpha virt. eigenvalues --    0.11703   0.12386   0.14823   0.15453   0.16432
 Alpha virt. eigenvalues --    0.18694   0.19943   0.21242   0.22546   0.23890

 Mulliken charges:
               1
     1  C   -0.174077
     2  C   -0.033810
     3  C   -0.021527
     4  C   -0.184919
     5  H    0.079907
     6  H    0.063757
     7  H    0.058046
     8  H    0.069347
     9  H    0.062374
    10  H    0.080903
 Sum of Mulliken charges =   0.00000

 Dipole moment (field-independent basis, Debye):
    X=             -0.0847    Y=              0.0066    Z=             -0.0877  Tot=              0.1220
 Quadrupole moment (field-independent basis, Debye-Ang):
   XX=            -23.5926   YY=            -23.4190   ZZ=            -28.9415
   XY=              0.0737   XZ=             -0.4703   YZ=              0.2215

 1\1\GINC-NODE12\SP\RB2PLYPD3-FC\def2QZVP\C4H6\BOITTIER\26-Aug-2020\0\\
 #p B2PLYPD3/Def2QZVP\\butadiene\\0,1\C,0,-3.790236,0.253799,-0.032873\
 C,0,-2.691212,-0.527657,0.119386\C,0,-1.432714,0.026574,0.037101\C,0,-
 0.285764,-0.619217,-0.021691\H,0,-4.846207,-0.116982,0.078824\H,0,-3.6
 75204,1.284028,-0.279036\H,0,-2.89773,-1.610257,0.135634\H,0,-1.4249,1
 .039426,0.235366\H,0,-0.252992,-1.70878,-0.162499\H,0,0.680301,-0.1416
 87,0.177755\\Version=ES64L-G09RevD.01\State=1-A\HF=-155.6842634\MP2=-1
 55.9108536\RMSD=9.980e-09\PG=C01 [X(C4H6)]\\@

 Normal termination of Gaussian 09 at Wed Aug 26 11:23:43 2020.
