 Gaussian 09, Revision D.01,
 Gaussian 09:  ES64L-G09RevD.01 24-Apr-2013

 --------------------
 #p B2PLYPD3/Def2QZVP
 --------------------

 ---------
 butadiene
 ---------
 Symbolic Z-matrix:
 Charge =  0 Multiplicity = 1

                         Standard orientation:
 ---------------------------------------------------------------------
 Center     Atomic      Atomic             Coordinates (Angstroms)
 Number     Number       Type             X           Y           Z
 ---------------------------------------------------------------------
      1          6           0       -1.830341   -0.131290    0.042704
      2          6           0       -0.590942    0.455468   -0.033846
      3          6           0        0.578563   -0.346134   -0.127350
      4          6           0        1.841749    0.071924    0.039767
      5          1           0       -2.715457    0.398379    0.237431
      6          1           0       -1.955390   -1.204740    0.008639
      7          1           0       -0.320012    1.551860   -0.131687
      8          1           0        0.398815   -1.397162   -0.053033
      9          1           0        2.056976    1.104121    0.107605
     10          1           0        2.540892   -0.752262    0.303397
 ---------------------------------------------------------------------

 SCF Done:  E(RB2PLYPD3) =  -155.682378903     A.U. after   11 cycles
 E2(B2PLYPD3) =    -0.2276574208D+00 E(B2PLYPD3) =    -0.15591003632382D+03

 The electronic state is 1-A.
 Alpha  occ. eigenvalues --  -10.63638 -10.62086 -10.61772 -10.61552  -0.93374
 Alpha  occ. eigenvalues --   -0.84401  -0.70996  -0.63987  -0.54515  -0.53697
 Alpha  occ. eigenvalues --   -0.46590  -0.45814  -0.41316  -0.38031  -0.26992
 Alpha virt. eigenvalues --    0.00859   0.06963   0.07231   0.08122   0.09206
 Alpha virt. eigenvalues --    0.11733   0.12427   0.14909   0.15363   0.16123
 Alpha virt. eigenvalues --    0.18747   0.20030   0.21427   0.22702   0.24558

 Mulliken charges:
               1
     1  C   -0.177627
     2  C   -0.042278
     3  C   -0.001677
     4  C   -0.183354
     5  H    0.086530
     6  H    0.068772
     7  H    0.051576
     8  H    0.048783
     9  H    0.067626
    10  H    0.081647
 Sum of Mulliken charges =   0.00000

 Dipole moment (field-independent basis, Debye):
    X=             -0.1197    Y=             -0.0401    Z=              0.3378  Tot=              0.3607
 Quadrupole moment (field-independent basis, Debye-Ang):
   XX=            -24.2345   YY=            -23.0875   ZZ=            -29.1997
   XY=              0.5658   XZ=              0.4048   YZ=             -0.1969

 1\1\GINC-NODE18\SP\RB2PLYPD3-FC\def2QZVP\C4H6\BOITTIER\26-Aug-2020\0\\
 #p B2PLYPD3/Def2QZVP\\butadiene\\0,1\C,0,-3.8222,0.267777,-0.034131\C,
 0,-2.717947,-0.540978,0.078985\C,0,-1.414968,0.024341,0.120367\C,0,-0.
 258069,-0.639049,-0.020478\H,0,-4.79512,-0.09242,-0.194077\H,0,-3.7379
 55,1.345184,-0.068638\H,0,-2.661757,-1.660724,0.246504\H,0,-1.39011,1.
 083556,-0.020834\H,0,-0.246328,-1.695559,-0.022367\H,0,0.583104,0.0167
 29,-0.336654\\Version=ES64L-G09RevD.01\State=1-A\HF=-155.6823789\MP2=-
 155.9100363\RMSD=9.351e-09\PG=C01 [X(C4H6)]\\@

 Normal termination of Gaussian 09 at Wed Aug 26 13:27:58 2020.
