 Gaussian 09, Revision D.01,
 Gaussian 09:  ES64L-G09RevD.01 24-Apr-2013

 --------------------
 #p B2PLYPD3/Def2QZVP
 --------------------

 ---------
 butadiene
 ---------
 Symbolic Z-matrix:
 Charge =  0 Multiplicity = 1

                         Standard orientation:
 ---------------------------------------------------------------------
 Center     Atomic      Atomic             Coordinates (Angstroms)
 Number     Number       Type             X           Y           Z
 ---------------------------------------------------------------------
      1          6           0        1.840329   -0.114654   -0.003285
      2          6           0        0.605114    0.425862   -0.000193
      3          6           0       -0.599981   -0.401459   -0.003445
      4          6           0       -1.834563    0.098792    0.001753
      5          1           0        2.740162    0.473209   -0.037351
      6          1           0        1.964878   -1.176507    0.085557
      7          1           0        0.446156    1.492288    0.000307
      8          1           0       -0.470921   -1.488463   -0.041160
      9          1           0       -2.046008    1.163208    0.034379
     10          1           0       -2.699662   -0.514984   -0.010712
 ---------------------------------------------------------------------

 SCF Done:  E(RB2PLYPD3) =  -155.700214319     A.U. after   11 cycles
 E2(B2PLYPD3) =    -0.2257598760D+00 E(B2PLYPD3) =    -0.15592597419549D+03

 The electronic state is 1-A.
 Alpha  occ. eigenvalues --  -10.62798 -10.62633 -10.61562 -10.61199  -0.92813
 Alpha  occ. eigenvalues --   -0.84775  -0.70283  -0.64254  -0.54865  -0.53762
 Alpha  occ. eigenvalues --   -0.46818  -0.45640  -0.41274  -0.37954  -0.27572
 Alpha virt. eigenvalues --    0.01721   0.07051   0.07395   0.08145   0.09364
 Alpha virt. eigenvalues --    0.11649   0.12568   0.14695   0.15912   0.16236
 Alpha virt. eigenvalues --    0.18796   0.20509   0.21871   0.22920   0.23754

 Mulliken charges:
               1
     1  C   -0.174294
     2  C   -0.037828
     3  C   -0.026578
     4  C   -0.175401
     5  H    0.085810
     6  H    0.067040
     7  H    0.060847
     8  H    0.054890
     9  H    0.061450
    10  H    0.084063
 Sum of Mulliken charges =   0.00000

 Dipole moment (field-independent basis, Debye):
    X=             -0.0116    Y=              0.0081    Z=              0.0297  Tot=              0.0328
 Quadrupole moment (field-independent basis, Debye-Ang):
   XX=            -23.3434   YY=            -23.1063   ZZ=            -29.2826
   XY=             -0.2577   XZ=              0.0361   YZ=             -0.0328

 1\1\GINC-NODE24\SP\RB2PLYPD3-FC\def2QZVP\C4H6\BOITTIER\26-Aug-2020\0\\
 #p B2PLYPD3/Def2QZVP\\butadiene\\0,1\C,0,-3.839216,0.233854,0.015849\C
 ,0,-2.723294,-0.522606,0.036064\C,0,-1.387544,0.070591,0.011255\C,0,-0
 .264893,-0.646121,0.032437\H,0,-4.83129,-0.180728,-0.002951\H,0,-3.767
 689,1.302678,0.074474\H,0,-2.761495,-1.599695,0.066926\H,0,-1.316331,1
 .161407,-0.057344\H,0,-0.251003,-1.729908,0.095435\H,0,0.697585,-0.201
 04,0.00394\\Version=ES64L-G09RevD.01\State=1-A\HF=-155.7002143\MP2=-15
 5.9259742\RMSD=5.332e-09\PG=C01 [X(C4H6)]\\@

 Normal termination of Gaussian 09 at Wed Aug 26 09:54:38 2020.
