 Gaussian 09, Revision D.01,
 Gaussian 09:  ES64L-G09RevD.01 24-Apr-2013

 --------------------
 #p B2PLYPD3/Def2QZVP
 --------------------

 ---------
 butadiene
 ---------
 Symbolic Z-matrix:
 Charge =  0 Multiplicity = 1

                         Standard orientation:
 ---------------------------------------------------------------------
 Center     Atomic      Atomic             Coordinates (Angstroms)
 Number     Number       Type             X           Y           Z
 ---------------------------------------------------------------------
      1          6           0       -1.835124    0.102665    0.012803
      2          6           0       -0.600181   -0.395983   -0.016197
      3          6           0        0.611722    0.428787   -0.020679
      4          6           0        1.837047   -0.122734    0.022701
      5          1           0       -2.711600   -0.553865    0.042119
      6          1           0       -2.033309    1.171171    0.019387
      7          1           0       -0.454257   -1.482007   -0.007412
      8          1           0        0.456126    1.501835   -0.061031
      9          1           0        1.937764   -1.205971   -0.057333
     10          1           0        2.724491    0.492427    0.072500
 ---------------------------------------------------------------------

 SCF Done:  E(RB2PLYPD3) =  -155.699848698     A.U. after   11 cycles
 E2(B2PLYPD3) =    -0.2260747410D+00 E(B2PLYPD3) =    -0.15592592343938D+03

 The electronic state is 1-A.
 Alpha  occ. eigenvalues --  -10.62796 -10.62627 -10.61775 -10.61579  -0.92779
 Alpha  occ. eigenvalues --   -0.84716  -0.69765  -0.64022  -0.54446  -0.53602
 Alpha  occ. eigenvalues --   -0.46566  -0.45676  -0.41120  -0.37908  -0.27642
 Alpha virt. eigenvalues --    0.01820   0.07007   0.07306   0.08074   0.09342
 Alpha virt. eigenvalues --    0.11700   0.12399   0.14626   0.15800   0.16105
 Alpha virt. eigenvalues --    0.18723   0.20452   0.21490   0.22946   0.23946

 Mulliken charges:
               1
     1  C   -0.177334
     2  C   -0.025221
     3  C   -0.037373
     4  C   -0.175966
     5  H    0.083036
     6  H    0.065179
     7  H    0.053049
     8  H    0.058562
     9  H    0.068462
    10  H    0.087606
 Sum of Mulliken charges =   0.00000

 Dipole moment (field-independent basis, Debye):
    X=              0.0117    Y=              0.0255    Z=             -0.0208  Tot=              0.0349
 Quadrupole moment (field-independent basis, Debye-Ang):
   XX=            -23.6543   YY=            -23.0150   ZZ=            -29.3535
   XY=             -0.1675   XZ=             -0.0813   YZ=              0.0503

 1\1\GINC-NODE35\SP\RB2PLYPD3-FC\def2QZVP\C4H6\BOITTIER\26-Aug-2020\0\\
 #p B2PLYPD3/Def2QZVP\\butadiene\\0,1\C,0,-3.840486,0.216242,0.032989\C
 ,0,-2.715811,-0.497548,0.019268\C,0,-1.375097,0.0947,-0.007266\C,0,-0.
 269118,-0.667321,0.052845\H,0,-4.820838,-0.270387,0.079935\H,0,-3.8427
 52,1.30273,0.00926\H,0,-2.768045,-1.591407,0.058802\H,0,-1.334847,1.17
 6664,-0.077999\H,0,-0.36568,-1.752765,0.003472\H,0,0.714889,-0.221137,
 0.086159\\Version=ES64L-G09RevD.01\State=1-A\HF=-155.6998487\MP2=-155.
 9259234\RMSD=5.829e-09\PG=C01 [X(C4H6)]\\@

 Normal termination of Gaussian 09 at Wed Aug 26 14:26:57 2020.
