 Gaussian 09, Revision D.01,
 Gaussian 09:  ES64L-G09RevD.01 24-Apr-2013

 --------------------
 #p B2PLYPD3/Def2QZVP
 --------------------

 ---------
 butadiene
 ---------
 Symbolic Z-matrix:
 Charge =  0 Multiplicity = 1

                         Standard orientation:
 ---------------------------------------------------------------------
 Center     Atomic      Atomic             Coordinates (Angstroms)
 Number     Number       Type             X           Y           Z
 ---------------------------------------------------------------------
      1          6           0        1.831455    0.100607   -0.018986
      2          6           0        0.607746   -0.391296    0.013590
      3          6           0       -0.598282    0.417328    0.013417
      4          6           0       -1.828520   -0.116566   -0.020783
      5          1           0        2.698238   -0.522770    0.031937
      6          1           0        2.002055    1.163124   -0.079539
      7          1           0        0.458373   -1.481599    0.062194
      8          1           0       -0.520691    1.510400    0.100224
      9          1           0       -1.978437   -1.200057   -0.037837
     10          1           0       -2.733931    0.470459   -0.000406
 ---------------------------------------------------------------------

 SCF Done:  E(RB2PLYPD3) =  -155.700312259     A.U. after   11 cycles
 E2(B2PLYPD3) =    -0.2255984277D+00 E(B2PLYPD3) =    -0.15592591068700D+03

 The electronic state is 1-A.
 Alpha  occ. eigenvalues --  -10.62770 -10.62468 -10.61657 -10.61033  -0.93062
 Alpha  occ. eigenvalues --   -0.85013  -0.70061  -0.63835  -0.54797  -0.53952
 Alpha  occ. eigenvalues --   -0.46742  -0.45208  -0.41145  -0.38170  -0.27759
 Alpha virt. eigenvalues --    0.01878   0.07071   0.07339   0.08009   0.09601
 Alpha virt. eigenvalues --    0.11637   0.12512   0.14638   0.15843   0.16300
 Alpha virt. eigenvalues --    0.18770   0.20400   0.21773   0.22757   0.23729

 Mulliken charges:
               1
     1  C   -0.173810
     2  C   -0.025567
     3  C   -0.033516
     4  C   -0.173226
     5  H    0.086708
     6  H    0.065091
     7  H    0.052890
     8  H    0.056065
     9  H    0.060713
    10  H    0.084653
 Sum of Mulliken charges =   0.00000

 Dipole moment (field-independent basis, Debye):
    X=             -0.0111    Y=              0.0068    Z=              0.0865  Tot=              0.0875
 Quadrupole moment (field-independent basis, Debye-Ang):
   XX=            -23.3709   YY=            -23.1461   ZZ=            -29.2356
   XY=              0.1083   XZ=             -0.0166   YZ=             -0.0194

 1\1\GINC-NODE39\SP\RB2PLYPD3-FC\def2QZVP\C4H6\BOITTIER\26-Aug-2020\0\\
 #p B2PLYPD3/Def2QZVP\\butadiene\\0,1\C,0,-3.834393,0.212706,0.035967\C
 ,0,-2.719196,-0.491973,0.019988\C,0,-1.387447,0.086245,-0.002089\C,0,-
 0.273121,-0.658917,0.049942\H,0,-4.799316,-0.245874,0.002318\H,0,-3.81
 0953,1.289901,0.064524\H,0,-2.768466,-1.592317,0.004171\H,0,-1.267586,
 1.172391,-0.121593\H,0,-0.32038,-1.750716,0.099551\H,0,0.722992,-0.245
 139,0.013468\\Version=ES64L-G09RevD.01\State=1-A\HF=-155.7003123\MP2=-
 155.9259107\RMSD=5.482e-09\PG=C01 [X(C4H6)]\\@

 Normal termination of Gaussian 09 at Wed Aug 26 20:54:10 2020.
