 Gaussian 09, Revision D.01,
 Gaussian 09:  ES64L-G09RevD.01 24-Apr-2013

 --------------------
 #p B2PLYPD3/Def2QZVP
 --------------------

 ---------
 butadiene
 ---------
 Symbolic Z-matrix:
 Charge =  0 Multiplicity = 1

                         Standard orientation:
 ---------------------------------------------------------------------
 Center     Atomic      Atomic             Coordinates (Angstroms)
 Number     Number       Type             X           Y           Z
 ---------------------------------------------------------------------
      1          6           0        1.849331    0.117631   -0.036630
      2          6           0        0.618120   -0.411942    0.019306
      3          6           0       -0.591564    0.375356    0.040425
      4          6           0       -1.852521   -0.102930   -0.015411
      5          1           0        2.745716   -0.492723   -0.013698
      6          1           0        2.004355    1.179336   -0.104745
      7          1           0        0.443111   -1.466711    0.191308
      8          1           0       -0.511361    1.444569    0.119658
      9          1           0       -2.123866   -1.132039   -0.196697
     10          1           0       -2.698148    0.598878   -0.041973
 ---------------------------------------------------------------------

 SCF Done:  E(RB2PLYPD3) =  -155.697509663     A.U. after   11 cycles
 E2(B2PLYPD3) =    -0.2262264655D+00 E(B2PLYPD3) =    -0.15592373612836D+03

 The electronic state is 1-A.
 Alpha  occ. eigenvalues --  -10.62709 -10.62520 -10.61806 -10.61802  -0.92918
 Alpha  occ. eigenvalues --   -0.84649  -0.70557  -0.64193  -0.54538  -0.53911
 Alpha  occ. eigenvalues --   -0.46722  -0.45676  -0.41156  -0.37830  -0.27534
 Alpha virt. eigenvalues --    0.01292   0.07002   0.07551   0.07959   0.09496
 Alpha virt. eigenvalues --    0.11585   0.12419   0.14873   0.15593   0.16211
 Alpha virt. eigenvalues --    0.18881   0.20283   0.21679   0.22307   0.23778

 Mulliken charges:
               1
     1  C   -0.174143
     2  C   -0.040101
     3  C   -0.030017
     4  C   -0.176923
     5  H    0.085700
     6  H    0.069744
     7  H    0.065215
     8  H    0.056769
     9  H    0.067059
    10  H    0.076699
 Sum of Mulliken charges =   0.00000

 Dipole moment (field-independent basis, Debye):
    X=              0.0605    Y=              0.0250    Z=             -0.0188  Tot=              0.0681
 Quadrupole moment (field-independent basis, Debye-Ang):
   XX=            -23.3656   YY=            -23.2410   ZZ=            -29.2407
   XY=              0.2838   XZ=              0.3577   YZ=             -0.0206

 1\1\GINC-NODE28\SP\RB2PLYPD3-FC\def2QZVP\C4H6\BOITTIER\26-Aug-2020\0\\
 #p B2PLYPD3/Def2QZVP\\butadiene\\0,1\C,0,-3.846403,0.237926,0.04962\C,
 0,-2.731344,-0.506874,0.012548\C,0,-1.399154,0.047816,-0.022221\C,0,-0
 .245581,-0.64914,0.051322\H,0,-4.838437,-0.200577,0.037479\H,0,-3.8067
 47,1.311526,0.090859\H,0,-2.750069,-1.579872,-0.132621\H,0,-1.284526,1
 .111571,-0.128116\H,0,-0.164986,-1.705487,0.259154\H,0,0.713083,-0.111
 448,0.064603\\Version=ES64L-G09RevD.01\State=1-A\HF=-155.6975097\MP2=-
 155.9237361\RMSD=3.998e-09\PG=C01 [X(C4H6)]\\@

 Normal termination of Gaussian 09 at Wed Aug 26 08:40:46 2020.
