 Gaussian 09, Revision D.01,
 Gaussian 09:  ES64L-G09RevD.01 24-Apr-2013

 --------------------
 #p B2PLYPD3/Def2QZVP
 --------------------

 ---------
 butadiene
 ---------
 Symbolic Z-matrix:
 Charge =  0 Multiplicity = 1

                         Standard orientation:
 ---------------------------------------------------------------------
 Center     Atomic      Atomic             Coordinates (Angstroms)
 Number     Number       Type             X           Y           Z
 ---------------------------------------------------------------------
      1          6           0        1.836673   -0.115393    0.014611
      2          6           0        0.599440    0.421333   -0.026232
      3          6           0       -0.606076   -0.401876   -0.003686
      4          6           0       -1.836906    0.095672    0.002602
      5          1           0        2.715090    0.509573    0.058510
      6          1           0        1.989705   -1.189923   -0.002082
      7          1           0        0.440508    1.482843   -0.020491
      8          1           0       -0.423857   -1.466037   -0.046287
      9          1           0       -1.974747    1.174500    0.023980
     10          1           0       -2.705482   -0.509371    0.062595
 ---------------------------------------------------------------------

 SCF Done:  E(RB2PLYPD3) =  -155.700360027     A.U. after   11 cycles
 E2(B2PLYPD3) =    -0.2257194071D+00 E(B2PLYPD3) =    -0.15592607943362D+03

 The electronic state is 1-A.
 Alpha  occ. eigenvalues --  -10.62648 -10.62324 -10.61761 -10.61187  -0.92955
 Alpha  occ. eigenvalues --   -0.84789  -0.70217  -0.64353  -0.54845  -0.53691
 Alpha  occ. eigenvalues --   -0.46945  -0.45735  -0.41233  -0.37995  -0.27617
 Alpha virt. eigenvalues --    0.01753   0.07050   0.07374   0.08207   0.09414
 Alpha virt. eigenvalues --    0.11714   0.12521   0.14678   0.15791   0.16173
 Alpha virt. eigenvalues --    0.18752   0.20415   0.21766   0.23195   0.23717

 Mulliken charges:
               1
     1  C   -0.178213
     2  C   -0.035711
     3  C   -0.024030
     4  C   -0.176662
     5  H    0.085683
     6  H    0.067477
     7  H    0.057901
     8  H    0.054243
     9  H    0.060711
    10  H    0.088602
 Sum of Mulliken charges =   0.00000

 Dipole moment (field-independent basis, Debye):
    X=              0.0066    Y=             -0.0036    Z=              0.0520  Tot=              0.0526
 Quadrupole moment (field-independent basis, Debye-Ang):
   XX=            -23.5027   YY=            -23.0886   ZZ=            -29.2686
   XY=             -0.2155   XZ=             -0.0420   YZ=              0.0705

 1\1\GINC-NODE27\SP\RB2PLYPD3-FC\def2QZVP\C4H6\BOITTIER\26-Aug-2020\0\\
 #p B2PLYPD3/Def2QZVP\\butadiene\\0,1\C,0,-3.837163,0.235457,0.032439\C
 ,0,-2.719428,-0.520035,0.012751\C,0,-1.383375,0.06853,0.010239\C,0,-0.
 264571,-0.645707,0.036312\H,0,-4.815067,-0.216055,0.095413\H,0,-3.7907
 25,1.318645,-0.021033\H,0,-2.757722,-1.591883,0.05485\H,0,-1.367631,1.
 146006,-0.068844\H,0,-0.326712,-1.730174,0.094576\H,0,0.700411,-0.2084
 57,0.077822\\Version=ES64L-G09RevD.01\State=1-A\HF=-155.70036\MP2=-155
 .9260794\RMSD=5.548e-09\PG=C01 [X(C4H6)]\\@

 Normal termination of Gaussian 09 at Wed Aug 26 21:06:51 2020.
