 Gaussian 09, Revision D.01,
 Gaussian 09:  ES64L-G09RevD.01 24-Apr-2013

 --------------------
 #p B2PLYPD3/Def2QZVP
 --------------------

 ---------
 butadiene
 ---------
 Symbolic Z-matrix:
 Charge =  0 Multiplicity = 1

                         Standard orientation:
 ---------------------------------------------------------------------
 Center     Atomic      Atomic             Coordinates (Angstroms)
 Number     Number       Type             X           Y           Z
 ---------------------------------------------------------------------
      1          6           0        1.842151   -0.099420   -0.018939
      2          6           0        0.603515    0.395585    0.027010
      3          6           0       -0.594839   -0.413146    0.001416
      4          6           0       -1.842847    0.112435   -0.009525
      5          1           0        2.744448    0.511891   -0.029190
      6          1           0        1.988186   -1.155963    0.010347
      7          1           0        0.447880    1.456134    0.011007
      8          1           0       -0.469252   -1.468216    0.040806
      9          1           0       -2.015846    1.185261   -0.006588
     10          1           0       -2.743301   -0.501836   -0.026152
 ---------------------------------------------------------------------

 SCF Done:  E(RB2PLYPD3) =  -155.699852124     A.U. after   11 cycles
 E2(B2PLYPD3) =    -0.2259640277D+00 E(B2PLYPD3) =    -0.15592581615216D+03

 The electronic state is 1-A.
 Alpha  occ. eigenvalues --  -10.62607 -10.62329 -10.61974 -10.61438  -0.93043
 Alpha  occ. eigenvalues --   -0.84615  -0.70346  -0.64638  -0.54641  -0.53870
 Alpha  occ. eigenvalues --   -0.46795  -0.45573  -0.41445  -0.38088  -0.27455
 Alpha virt. eigenvalues --    0.01470   0.06995   0.07498   0.08119   0.09510
 Alpha virt. eigenvalues --    0.11643   0.12567   0.14658   0.15822   0.16296
 Alpha virt. eigenvalues --    0.18817   0.20414   0.21853   0.22971   0.23586

 Mulliken charges:
               1
     1  C   -0.174635
     2  C   -0.026530
     3  C   -0.036296
     4  C   -0.176393
     5  H    0.085121
     6  H    0.063243
     7  H    0.057084
     8  H    0.060134
     9  H    0.064765
    10  H    0.083507
 Sum of Mulliken charges =   0.00000

 Dipole moment (field-independent basis, Debye):
    X=             -0.0030    Y=             -0.0066    Z=              0.0221  Tot=              0.0233
 Quadrupole moment (field-independent basis, Debye-Ang):
   XX=            -23.2937   YY=            -23.1893   ZZ=            -29.2978
   XY=             -0.1958   XZ=             -0.0069   YZ=             -0.0745

 1\1\GINC-NODE11\SP\RB2PLYPD3-FC\def2QZVP\C4H6\BOITTIER\26-Aug-2020\0\\
 #p B2PLYPD3/Def2QZVP\\butadiene\\0,1\C,0,-3.844827,0.216678,0.000508\C
 ,0,-2.716685,-0.49402,0.060203\C,0,-1.391364,0.082576,0.017605\C,0,-0.
 259712,-0.661218,0.021163\H,0,-4.843233,-0.2205,0.003124\H,0,-3.796308
 ,1.282556,0.004657\H,0,-2.756457,-1.565269,0.069444\H,0,-1.322979,1.14
 3526,0.031925\H,0,-0.284592,-1.747248,0.049656\H,0,0.73735,-0.221425,-
 0.008397\\Version=ES64L-G09RevD.01\State=1-A\HF=-155.6998521\MP2=-155.
 9258162\RMSD=5.162e-09\PG=C01 [X(C4H6)]\\@

 Normal termination of Gaussian 09 at Wed Aug 26 21:50:03 2020.
