 Gaussian 09, Revision D.01,
 Gaussian 09:  ES64L-G09RevD.01 24-Apr-2013

 --------------------
 #p B2PLYPD3/Def2QZVP
 --------------------

 ---------
 butadiene
 ---------
 Symbolic Z-matrix:
 Charge =  0 Multiplicity = 1

                         Standard orientation:
 ---------------------------------------------------------------------
 Center     Atomic      Atomic             Coordinates (Angstroms)
 Number     Number       Type             X           Y           Z
 ---------------------------------------------------------------------
      1          6           0       -1.840836   -0.133522    0.006329
      2          6           0       -0.624573    0.411365   -0.005871
      3          6           0        0.619483   -0.384697   -0.010803
      4          6           0        1.847037    0.101961   -0.011160
      5          1           0       -2.739721    0.502008    0.121933
      6          1           0       -1.968311   -1.194916   -0.081523
      7          1           0       -0.613237    1.517304   -0.055383
      8          1           0        0.484873   -1.477350    0.018276
      9          1           0        2.049592    1.177173    0.009617
     10          1           0        2.780140   -0.494865    0.116110
 ---------------------------------------------------------------------

 SCF Done:  E(RB2PLYPD3) =  -155.695437806     A.U. after   11 cycles
 E2(B2PLYPD3) =    -0.2259514010D+00 E(B2PLYPD3) =    -0.15592138920730D+03

 The electronic state is 1-A.
 Alpha  occ. eigenvalues --  -10.62987 -10.62935 -10.61814 -10.61643  -0.92687
 Alpha  occ. eigenvalues --   -0.85142  -0.69421  -0.63704  -0.54471  -0.53679
 Alpha  occ. eigenvalues --   -0.46666  -0.44921  -0.40721  -0.37885  -0.28040
 Alpha virt. eigenvalues --    0.01934   0.06949   0.07407   0.07814   0.09495
 Alpha virt. eigenvalues --    0.11563   0.12439   0.14361   0.15814   0.16242
 Alpha virt. eigenvalues --    0.18932   0.20432   0.21459   0.22566   0.23627

 Mulliken charges:
               1
     1  C   -0.174319
     2  C   -0.030923
     3  C   -0.038148
     4  C   -0.160288
     5  H    0.083739
     6  H    0.067160
     7  H    0.056015
     8  H    0.056189
     9  H    0.060999
    10  H    0.079576
 Sum of Mulliken charges =   0.00000

 Dipole moment (field-independent basis, Debye):
    X=             -0.0234    Y=              0.0164    Z=              0.0976  Tot=              0.1017
 Quadrupole moment (field-independent basis, Debye-Ang):
   XX=            -23.3228   YY=            -23.2422   ZZ=            -29.3022
   XY=              0.0253   XZ=              0.2286   YZ=              0.0255

 1\1\GINC-NODE29\SP\RB2PLYPD3-FC\def2QZVP\C4H6\BOITTIER\26-Aug-2020\0\\
 #p B2PLYPD3/Def2QZVP\\butadiene\\0,1\C,0,-3.842949,0.231237,0.012641\C
 ,0,-2.738047,-0.513593,0.040359\C,0,-1.375935,0.05712,0.021596\C,0,-0.
 249992,-0.632644,0.035769\H,0,-4.838077,-0.24377,-0.08403\H,0,-3.78611
 9,1.300847,0.069465\H,0,-2.916197,-1.603202,0.122181\H,0,-1.321401,1.1
 55376,-0.039373\H,0,-0.234864,-1.72681,0.04637\H,0,0.770915,-0.208602,
 -0.10921\\Version=ES64L-G09RevD.01\State=1-A\HF=-155.6954378\MP2=-155.
 9213892\RMSD=5.509e-09\PG=C01 [X(C4H6)]\\@

 Normal termination of Gaussian 09 at Wed Aug 26 10:06:47 2020.
