 Gaussian 09, Revision D.01,
 Gaussian 09:  ES64L-G09RevD.01 24-Apr-2013

 --------------------
 #p B2PLYPD3/Def2QZVP
 --------------------

 ---------
 butadiene
 ---------
 Symbolic Z-matrix:
 Charge =  0 Multiplicity = 1

                         Standard orientation:
 ---------------------------------------------------------------------
 Center     Atomic      Atomic             Coordinates (Angstroms)
 Number     Number       Type             X           Y           Z
 ---------------------------------------------------------------------
      1          6           0       -1.828079   -0.117220   -0.009243
      2          6           0       -0.592195    0.420265    0.014686
      3          6           0        0.589908   -0.386452    0.030762
      4          6           0        1.832964    0.096822   -0.025151
      5          1           0       -2.723631    0.493279   -0.051955
      6          1           0       -1.998556   -1.185207   -0.076479
      7          1           0       -0.451001    1.488379    0.074750
      8          1           0        0.432885   -1.458017    0.062411
      9          1           0        2.025578    1.158995   -0.049651
     10          1           0        2.699135   -0.577914   -0.025398
 ---------------------------------------------------------------------

 SCF Done:  E(RB2PLYPD3) =  -155.700131323     A.U. after   11 cycles
 E2(B2PLYPD3) =    -0.2260666302D+00 E(B2PLYPD3) =    -0.15592619795303D+03

 The electronic state is 1-A.
 Alpha  occ. eigenvalues --  -10.62541 -10.62223 -10.61783 -10.61577  -0.93281
 Alpha  occ. eigenvalues --   -0.84595  -0.70336  -0.64287  -0.54521  -0.53907
 Alpha  occ. eigenvalues --   -0.46525  -0.45583  -0.41397  -0.38279  -0.27402
 Alpha virt. eigenvalues --    0.01501   0.07006   0.07397   0.08051   0.09598
 Alpha virt. eigenvalues --    0.11703   0.12427   0.14815   0.15832   0.16131
 Alpha virt. eigenvalues --    0.18723   0.20446   0.21759   0.22809   0.23672

 Mulliken charges:
               1
     1  C   -0.175660
     2  C   -0.033442
     3  C   -0.022480
     4  C   -0.179966
     5  H    0.082135
     6  H    0.065878
     7  H    0.058805
     8  H    0.054497
     9  H    0.066234
    10  H    0.083999
 Sum of Mulliken charges =   0.00000

 Dipole moment (field-independent basis, Debye):
    X=             -0.0324    Y=              0.0024    Z=             -0.0326  Tot=              0.0460
 Quadrupole moment (field-independent basis, Debye-Ang):
   XX=            -23.5697   YY=            -23.0813   ZZ=            -29.2801
   XY=              0.2658   XZ=              0.1238   YZ=              0.0485

 1\1\GINC-NODE14\SP\RB2PLYPD3-FC\def2QZVP\C4H6\BOITTIER\26-Aug-2020\0\\
 #p B2PLYPD3/Def2QZVP\\butadiene\\0,1\C,0,-3.826929,0.239572,0.030613\C
 ,0,-2.711783,-0.517541,0.020553\C,0,-1.401005,0.056122,-0.013948\C,0,-
 0.268498,-0.647162,0.054516\H,0,-4.81973,-0.193655,0.087259\H,0,-3.796
 819,1.321955,0.072075\H,0,-2.770669,-1.594466,-0.013758\H,0,-1.357374,
 1.137187,-0.071418\H,0,-0.275442,-1.725749,0.104642\H,0,0.707459,-0.14
 4373,0.039253\\Version=ES64L-G09RevD.01\State=1-A\HF=-155.7001313\MP2=
 -155.926198\RMSD=5.554e-09\PG=C01 [X(C4H6)]\\@

 Normal termination of Gaussian 09 at Wed Aug 26 21:06:47 2020.
