 Gaussian 09, Revision D.01,
 Gaussian 09:  ES64L-G09RevD.01 24-Apr-2013

 --------------------
 #p B2PLYPD3/Def2QZVP
 --------------------

 ---------
 butadiene
 ---------
 Symbolic Z-matrix:
 Charge =  0 Multiplicity = 1

                         Standard orientation:
 ---------------------------------------------------------------------
 Center     Atomic      Atomic             Coordinates (Angstroms)
 Number     Number       Type             X           Y           Z
 ---------------------------------------------------------------------
      1          6           0       -1.848976    0.086438    0.014786
      2          6           0       -0.615718   -0.386393   -0.047946
      3          6           0        0.604082    0.429611   -0.028451
      4          6           0        1.849035   -0.127388    0.031065
      5          1           0       -2.724696   -0.541562    0.187994
      6          1           0       -2.049032    1.133351    0.038745
      7          1           0       -0.443058   -1.432055   -0.107816
      8          1           0        0.511228    1.539240   -0.066042
      9          1           0        2.070290   -1.166813    0.046770
     10          1           0        2.704730    0.454230    0.083619
 ---------------------------------------------------------------------

 SCF Done:  E(RB2PLYPD3) =  -155.694795944     A.U. after   11 cycles
 E2(B2PLYPD3) =    -0.2258129590D+00 E(B2PLYPD3) =    -0.15592060890346D+03

 The electronic state is 1-A.
 Alpha  occ. eigenvalues --  -10.63550 -10.62295 -10.61319 -10.61225  -0.92638
 Alpha  occ. eigenvalues --   -0.84834  -0.70733  -0.64371  -0.54886  -0.53861
 Alpha  occ. eigenvalues --   -0.46965  -0.45818  -0.41291  -0.37647  -0.27564
 Alpha virt. eigenvalues --    0.01531   0.07009   0.07497   0.08119   0.09370
 Alpha virt. eigenvalues --    0.11562   0.12620   0.14746   0.15899   0.16261
 Alpha virt. eigenvalues --    0.18988   0.20447   0.22027   0.23046   0.23301

 Mulliken charges:
               1
     1  C   -0.167957
     2  C   -0.029857
     3  C   -0.042277
     4  C   -0.175941
     5  H    0.081485
     6  H    0.063368
     7  H    0.064886
     8  H    0.057347
     9  H    0.065925
    10  H    0.083023
 Sum of Mulliken charges =   0.00000

 Dipole moment (field-independent basis, Debye):
    X=              0.0595    Y=             -0.0156    Z=              0.1172  Tot=              0.1324
 Quadrupole moment (field-independent basis, Debye-Ang):
   XX=            -23.2002   YY=            -23.1608   ZZ=            -29.2281
   XY=             -0.4079   XZ=             -0.2917   YZ=             -0.0517

 1\1\GINC-NODE22\SP\RB2PLYPD3-FC\def2QZVP\C4H6\BOITTIER\26-Aug-2020\0\\
 #p B2PLYPD3/Def2QZVP\\butadiene\\0,1\C,0,-3.853285,0.206564,0.040412\C
 ,0,-2.726851,-0.48438,-0.006194\C,0,-1.379045,0.09655,-0.015828\C,0,-0
 .255567,-0.675028,0.062686\H,0,-4.827294,-0.245501,0.235896\H,0,-3.859
 731,1.272594,0.027714\H,0,-2.747361,-1.545439,-0.029418\H,0,-1.269101,
 1.202615,-0.092282\H,0,-0.226647,-1.736186,0.114753\H,0,0.691856,-0.25
 7135,0.09446\\Version=ES64L-G09RevD.01\State=1-A\HF=-155.6947959\MP2=-
 155.9206089\RMSD=6.648e-09\PG=C01 [X(C4H6)]\\@

 Normal termination of Gaussian 09 at Wed Aug 26 11:01:32 2020.
