 Gaussian 09, Revision D.01,
 Gaussian 09:  ES64L-G09RevD.01 24-Apr-2013

 --------------------
 #p B2PLYPD3/Def2QZVP
 --------------------

 ---------
 butadiene
 ---------
 Symbolic Z-matrix:
 Charge =  0 Multiplicity = 1

                         Standard orientation:
 ---------------------------------------------------------------------
 Center     Atomic      Atomic             Coordinates (Angstroms)
 Number     Number       Type             X           Y           Z
 ---------------------------------------------------------------------
      1          6           0        1.842979   -0.117466   -0.013485
      2          6           0        0.612557    0.413779   -0.006463
      3          6           0       -0.599565   -0.384317    0.012568
      4          6           0       -1.855288    0.092642   -0.002381
      5          1           0        2.714690    0.500050   -0.009005
      6          1           0        1.989710   -1.196367    0.070301
      7          1           0        0.499650    1.484591    0.019489
      8          1           0       -0.424973   -1.442070   -0.010490
      9          1           0       -2.048124    1.175165    0.043464
     10          1           0       -2.735046   -0.549200   -0.055195
 ---------------------------------------------------------------------

 SCF Done:  E(RB2PLYPD3) =  -155.699951334     A.U. after   11 cycles
 E2(B2PLYPD3) =    -0.2260088854D+00 E(B2PLYPD3) =    -0.15592596021967D+03

 The electronic state is 1-A.
 Alpha  occ. eigenvalues --  -10.62567 -10.62507 -10.61969 -10.61633  -0.92916
 Alpha  occ. eigenvalues --   -0.84713  -0.70300  -0.64206  -0.54727  -0.53629
 Alpha  occ. eigenvalues --   -0.46883  -0.45540  -0.41199  -0.38019  -0.27580
 Alpha virt. eigenvalues --    0.01488   0.06991   0.07426   0.08110   0.09571
 Alpha virt. eigenvalues --    0.11650   0.12421   0.14678   0.15863   0.16154
 Alpha virt. eigenvalues --    0.18849   0.20547   0.21475   0.22915   0.23636

 Mulliken charges:
               1
     1  C   -0.174928
     2  C   -0.030430
     3  C   -0.031561
     4  C   -0.175981
     5  H    0.086775
     6  H    0.064221
     7  H    0.055837
     8  H    0.055639
     9  H    0.063303
    10  H    0.087124
 Sum of Mulliken charges =   0.00000

 Dipole moment (field-independent basis, Debye):
    X=              0.0406    Y=              0.0131    Z=              0.0621  Tot=              0.0754
 Quadrupole moment (field-independent basis, Debye-Ang):
   XX=            -23.3561   YY=            -23.1844   ZZ=            -29.3157
   XY=             -0.1319   XZ=              0.2318   YZ=              0.0443

 1\1\GINC-NODE18\SP\RB2PLYPD3-FC\def2QZVP\C4H6\BOITTIER\26-Aug-2020\0\\
 #p B2PLYPD3/Def2QZVP\\butadiene\\0,1\C,0,-3.843081,0.234399,0.008231\C
 ,0,-2.729236,-0.510554,0.032782\C,0,-1.3925,0.05482,0.025878\C,0,-0.24
 4066,-0.642068,0.026699\H,0,-4.812195,-0.214423,0.032776\H,0,-3.791447
 ,1.324153,0.056684\H,0,-2.812033,-1.582696,0.093739\H,0,-1.372715,1.12
 54,-0.031768\H,0,-0.250264,-1.739568,0.107932\H,0,0.737089,-0.172348,-
 0.046948\\Version=ES64L-G09RevD.01\State=1-A\HF=-155.6999513\MP2=-155.
 9259602\RMSD=4.119e-09\PG=C01 [X(C4H6)]\\@

 Normal termination of Gaussian 09 at Wed Aug 26 20:44:07 2020.
