 Gaussian 09, Revision D.01,
 Gaussian 09:  ES64L-G09RevD.01 24-Apr-2013

 --------------------
 #p B2PLYPD3/Def2QZVP
 --------------------

 ---------
 butadiene
 ---------
 Symbolic Z-matrix:
 Charge =  0 Multiplicity = 1

                         Standard orientation:
 ---------------------------------------------------------------------
 Center     Atomic      Atomic             Coordinates (Angstroms)
 Number     Number       Type             X           Y           Z
 ---------------------------------------------------------------------
      1          6           0       -1.847354   -0.094395   -0.001022
      2          6           0       -0.612343    0.384925   -0.015268
      3          6           0        0.605947   -0.417008   -0.004631
      4          6           0        1.845320    0.113630    0.004074
      5          1           0       -2.718845    0.540585    0.070656
      6          1           0       -2.021642   -1.167563    0.017957
      7          1           0       -0.447535    1.463046   -0.001637
      8          1           0        0.472758   -1.471924   -0.036779
      9          1           0        2.023676    1.209577   -0.013704
     10          1           0        2.742161   -0.496628    0.064584
 ---------------------------------------------------------------------

 SCF Done:  E(RB2PLYPD3) =  -155.699782435     A.U. after   11 cycles
 E2(B2PLYPD3) =    -0.2258562502D+00 E(B2PLYPD3) =    -0.15592563868559D+03

 The electronic state is 1-A.
 Alpha  occ. eigenvalues --  -10.62669 -10.62447 -10.62173 -10.61423  -0.92887
 Alpha  occ. eigenvalues --   -0.84802  -0.70136  -0.64143  -0.54729  -0.53573
 Alpha  occ. eigenvalues --   -0.47082  -0.45303  -0.40958  -0.38042  -0.27735
 Alpha virt. eigenvalues --    0.01651   0.06979   0.07395   0.08111   0.09581
 Alpha virt. eigenvalues --    0.11627   0.12438   0.14609   0.15842   0.16144
 Alpha virt. eigenvalues --    0.18864   0.20543   0.21612   0.22832   0.23555

 Mulliken charges:
               1
     1  C   -0.174396
     2  C   -0.022396
     3  C   -0.040688
     4  C   -0.171675
     5  H    0.087348
     6  H    0.061647
     7  H    0.052109
     8  H    0.060112
     9  H    0.063083
    10  H    0.084855
 Sum of Mulliken charges =   0.00000

 Dipole moment (field-independent basis, Debye):
    X=              0.0204    Y=             -0.0156    Z=              0.0798  Tot=              0.0839
 Quadrupole moment (field-independent basis, Debye-Ang):
   XX=            -23.3237   YY=            -23.2021   ZZ=            -29.3045
   XY=              0.1976   XZ=             -0.1113   YZ=              0.0174

 1\1\GINC-NODE10\SP\RB2PLYPD3-FC\def2QZVP\C4H6\BOITTIER\26-Aug-2020\0\\
 #p B2PLYPD3/Def2QZVP\\butadiene\\0,1\C,0,-3.8512,0.211249,0.01644\C,0,
 -2.723472,-0.483372,0.047\C,0,-1.380054,0.083918,0.017831\C,0,-0.25738
 9,-0.662567,0.026854\H,0,-4.823496,-0.257,-0.040285\H,0,-3.828164,1.29
 7312,-0.032154\H,0,-2.756804,-1.573474,0.063106\H,0,-1.31979,1.145981,
 0.02095\H,0,-0.280556,-1.771794,0.074878\H,0,0.735053,-0.226812,-0.047
 819\\Version=ES64L-G09RevD.01\State=1-A\HF=-155.6997824\MP2=-155.92563
 87\RMSD=5.490e-09\PG=C01 [X(C4H6)]\\@

 Normal termination of Gaussian 09 at Wed Aug 26 21:24:07 2020.
