 Gaussian 09, Revision D.01,
 Gaussian 09:  ES64L-G09RevD.01 24-Apr-2013

 --------------------
 #p B2PLYPD3/Def2QZVP
 --------------------

 ---------
 butadiene
 ---------
 Symbolic Z-matrix:
 Charge =  0 Multiplicity = 1

                         Standard orientation:
 ---------------------------------------------------------------------
 Center     Atomic      Atomic             Coordinates (Angstroms)
 Number     Number       Type             X           Y           Z
 ---------------------------------------------------------------------
      1          6           0        1.830403   -0.129893    0.021291
      2          6           0        0.618625    0.424815   -0.015235
      3          6           0       -0.615939   -0.392662   -0.041768
      4          6           0       -1.846488    0.097127    0.040943
      5          1           0        2.723003    0.486095    0.084509
      6          1           0        1.948401   -1.224699   -0.031125
      7          1           0        0.529995    1.498652   -0.071651
      8          1           0       -0.470694   -1.431314   -0.009464
      9          1           0       -1.949984    1.188533   -0.031771
     10          1           0       -2.700325   -0.513589    0.028119
 ---------------------------------------------------------------------

 SCF Done:  E(RB2PLYPD3) =  -155.697635372     A.U. after   11 cycles
 E2(B2PLYPD3) =    -0.2253929809D+00 E(B2PLYPD3) =    -0.15592302835253D+03

 The electronic state is 1-A.
 Alpha  occ. eigenvalues --  -10.62630 -10.62114 -10.61745 -10.61089  -0.92836
 Alpha  occ. eigenvalues --   -0.85161  -0.69685  -0.64396  -0.54806  -0.53887
 Alpha  occ. eigenvalues --   -0.46910  -0.45395  -0.41262  -0.37843  -0.27931
 Alpha virt. eigenvalues --    0.02059   0.07045   0.07437   0.08151   0.09364
 Alpha virt. eigenvalues --    0.11715   0.12499   0.14502   0.15645   0.16420
 Alpha virt. eigenvalues --    0.18736   0.19886   0.21647   0.23322   0.24126

 Mulliken charges:
               1
     1  C   -0.174417
     2  C   -0.035819
     3  C   -0.033483
     4  C   -0.172692
     5  H    0.085403
     6  H    0.065585
     7  H    0.057676
     8  H    0.058706
     9  H    0.060056
    10  H    0.088985
 Sum of Mulliken charges =   0.00000

 Dipole moment (field-independent basis, Debye):
    X=              0.0428    Y=             -0.0226    Z=             -0.0733  Tot=              0.0879
 Quadrupole moment (field-independent basis, Debye-Ang):
   XX=            -23.5922   YY=            -23.0417   ZZ=            -29.2306
   XY=              0.1324   XZ=              0.1210   YZ=             -0.0632

 1\1\GINC-NODE29\SP\RB2PLYPD3-FC\def2QZVP\C4H6\BOITTIER\26-Aug-2020\0\\
 #p B2PLYPD3/Def2QZVP\\butadiene\\0,1\C,0,-3.832712,0.23407,0.041396\C,
 0,-2.737063,-0.525158,0.017585\C,0,-1.3784,0.062445,-0.025746\C,0,-0.2
 52514,-0.633636,0.068268\H,0,-4.819271,-0.214387,0.117286\H,0,-3.75712
 3,1.331237,-0.034639\H,0,-2.838231,-1.598854,-0.015656\H,0,-1.339213,1
 .110923,-0.01589\H,0,-0.342178,-1.727579,0.01912\H,0,0.695117,-0.18249
 8,0.042849\\Version=ES64L-G09RevD.01\State=1-A\HF=-155.6976354\MP2=-15
 5.9230284\RMSD=3.996e-09\PG=C01 [X(C4H6)]\\@

 Normal termination of Gaussian 09 at Wed Aug 26 10:11:29 2020.
