 Gaussian 09, Revision D.01,
 Gaussian 09:  ES64L-G09RevD.01 24-Apr-2013

 --------------------
 #p B2PLYPD3/Def2QZVP
 --------------------

 ---------
 butadiene
 ---------
 Symbolic Z-matrix:
 Charge =  0 Multiplicity = 1

                         Standard orientation:
 ---------------------------------------------------------------------
 Center     Atomic      Atomic             Coordinates (Angstroms)
 Number     Number       Type             X           Y           Z
 ---------------------------------------------------------------------
      1          6           0       -1.830943    0.083374    0.022163
      2          6           0       -0.596576   -0.371015   -0.053072
      3          6           0        0.592335    0.425107   -0.011489
      4          6           0        1.824596   -0.119281    0.039605
      5          1           0       -2.697329   -0.584241    0.131755
      6          1           0       -2.060105    1.136966    0.002132
      7          1           0       -0.371371   -1.412353   -0.032059
      8          1           0        0.500418    1.482790   -0.089972
      9          1           0        1.976761   -1.179573   -0.054651
     10          1           0        2.715153    0.447301    0.059553
 ---------------------------------------------------------------------

 SCF Done:  E(RB2PLYPD3) =  -155.697314246     A.U. after   11 cycles
 E2(B2PLYPD3) =    -0.2254226718D+00 E(B2PLYPD3) =    -0.15592273691811D+03

 The electronic state is 1-A.
 Alpha  occ. eigenvalues --  -10.62286 -10.61850 -10.61413 -10.61328  -0.93529
 Alpha  occ. eigenvalues --   -0.84934  -0.70727  -0.64667  -0.55119  -0.53876
 Alpha  occ. eigenvalues --   -0.47120  -0.45634  -0.41322  -0.38255  -0.27538
 Alpha virt. eigenvalues --    0.01579   0.07023   0.07505   0.08191   0.09665
 Alpha virt. eigenvalues --    0.11699   0.12553   0.14876   0.15724   0.16374
 Alpha virt. eigenvalues --    0.18830   0.20319   0.21738   0.23221   0.23669

 Mulliken charges:
               1
     1  C   -0.173836
     2  C   -0.025746
     3  C   -0.030225
     4  C   -0.178173
     5  H    0.082059
     6  H    0.066690
     7  H    0.056924
     8  H    0.058671
     9  H    0.060478
    10  H    0.083157
 Sum of Mulliken charges =   0.00000

 Dipole moment (field-independent basis, Debye):
    X=              0.0438    Y=              0.0272    Z=             -0.0378  Tot=              0.0639
 Quadrupole moment (field-independent basis, Debye-Ang):
   XX=            -23.3067   YY=            -23.2552   ZZ=            -29.1029
   XY=             -0.3118   XZ=             -0.3958   YZ=             -0.0821

 1\1\GINC-NODE21\SP\RB2PLYPD3-FC\def2QZVP\C4H6\BOITTIER\26-Aug-2020\0\\
 #p B2PLYPD3/Def2QZVP\\butadiene\\0,1\C,0,-3.834599,0.20679,0.046021\C,
 0,-2.706933,-0.471985,-0.012512\C,0,-1.390418,0.089946,-0.004151\C,0,-
 0.280468,-0.67187,0.067137\H,0,-4.809031,-0.283118,0.1832\H,0,-3.86403
 6,1.283029,-0.015749\H,0,-2.679097,-1.535419,0.049755\H,0,-1.284751,1.
 142379,-0.124655\H,0,-0.328911,-1.74481,0.015071\H,0,0.700043,-0.28060
 3,0.063396\\Version=ES64L-G09RevD.01\State=1-A\HF=-155.6973142\MP2=-15
 5.9227369\RMSD=6.534e-09\PG=C01 [X(C4H6)]\\@

 Normal termination of Gaussian 09 at Wed Aug 26 09:41:57 2020.
