 Gaussian 09, Revision D.01,
 Gaussian 09:  ES64L-G09RevD.01 24-Apr-2013

 --------------------
 #p B2PLYPD3/Def2QZVP
 --------------------

 ---------
 butadiene
 ---------
 Symbolic Z-matrix:
 Charge =  0 Multiplicity = 1

                         Standard orientation:
 ---------------------------------------------------------------------
 Center     Atomic      Atomic             Coordinates (Angstroms)
 Number     Number       Type             X           Y           Z
 ---------------------------------------------------------------------
      1          6           0        1.827963   -0.122178    0.048868
      2          6           0        0.608700    0.402968   -0.050583
      3          6           0       -0.610319   -0.364033   -0.032007
      4          6           0       -1.854619    0.086397    0.032439
      5          1           0        2.730347    0.488008    0.103275
      6          1           0        2.041532   -1.207473   -0.060581
      7          1           0        0.575964    1.520990   -0.053608
      8          1           0       -0.432956   -1.404128   -0.078152
      9          1           0       -2.063519    1.149488   -0.014923
     10          1           0       -2.681716   -0.565810    0.111691
 ---------------------------------------------------------------------

 SCF Done:  E(RB2PLYPD3) =  -155.696151238     A.U. after   11 cycles
 E2(B2PLYPD3) =    -0.2255870928D+00 E(B2PLYPD3) =    -0.15592173833119D+03

 The electronic state is 1-A.
 Alpha  occ. eigenvalues --  -10.62790 -10.62044 -10.61942 -10.61163  -0.93251
 Alpha  occ. eigenvalues --   -0.85183  -0.70543  -0.63781  -0.55079  -0.53818
 Alpha  occ. eigenvalues --   -0.47125  -0.45150  -0.40962  -0.38118  -0.27816
 Alpha virt. eigenvalues --    0.01617   0.06992   0.07444   0.07992   0.09848
 Alpha virt. eigenvalues --    0.11586   0.12410   0.14744   0.15836   0.16338
 Alpha virt. eigenvalues --    0.18933   0.20194   0.21756   0.22713   0.23678

 Mulliken charges:
               1
     1  C   -0.166654
     2  C   -0.028714
     3  C   -0.029049
     4  C   -0.176251
     5  H    0.079819
     6  H    0.058943
     7  H    0.048339
     8  H    0.057078
     9  H    0.066962
    10  H    0.089527
 Sum of Mulliken charges =   0.00000

 Dipole moment (field-independent basis, Debye):
    X=              0.0498    Y=             -0.0186    Z=             -0.0570  Tot=              0.0779
 Quadrupole moment (field-independent basis, Debye-Ang):
   XX=            -23.1884   YY=            -23.3136   ZZ=            -29.1680
   XY=             -0.0856   XZ=             -0.1108   YZ=              0.0722

 1\1\GINC-NODE07\SP\RB2PLYPD3-FC\def2QZVP\C4H6\BOITTIER\26-Aug-2020\0\\
 #p B2PLYPD3/Def2QZVP\\butadiene\\0,1\C,0,-3.831227,0.235684,0.06425\C,
 0,-2.726526,-0.50301,-0.014723\C,0,-1.389432,0.032543,-0.017144\C,0,-0
 .246201,-0.631939,0.065375\H,0,-4.828446,-0.200273,0.135524\H,0,-3.846
 521,1.337616,-0.080557\H,0,-2.895324,-1.608215,0.018184\H,0,-1.377055,
 1.085555,-0.097124\H,0,-0.231957,-1.716227,0.052726\H,0,0.684894,-0.13
 6847,0.126122\\Version=ES64L-G09RevD.01\State=1-A\HF=-155.6961512\MP2=
 -155.9217383\RMSD=4.033e-09\PG=C01 [X(C4H6)]\\@

 Normal termination of Gaussian 09 at Wed Aug 26 08:52:11 2020.
