 Gaussian 09, Revision D.01,
 Gaussian 09:  ES64L-G09RevD.01 24-Apr-2013

 --------------------
 #p B2PLYPD3/Def2QZVP
 --------------------

 ---------
 butadiene
 ---------
 Symbolic Z-matrix:
 Charge =  0 Multiplicity = 1

                         Standard orientation:
 ---------------------------------------------------------------------
 Center     Atomic      Atomic             Coordinates (Angstroms)
 Number     Number       Type             X           Y           Z
 ---------------------------------------------------------------------
      1          6           0        1.836524   -0.117260   -0.016153
      2          6           0        0.613373    0.410087    0.013256
      3          6           0       -0.609422   -0.388969   -0.003267
      4          6           0       -1.844608    0.108087    0.000275
      5          1           0        2.761746    0.473213    0.009549
      6          1           0        1.984105   -1.181024   -0.033293
      7          1           0        0.507818    1.508104    0.061137
      8          1           0       -0.480303   -1.484618    0.075881
      9          1           0       -2.043986    1.167626   -0.068749
     10          1           0       -2.704583   -0.554971   -0.009196
 ---------------------------------------------------------------------

 SCF Done:  E(RB2PLYPD3) =  -155.700050195     A.U. after   11 cycles
 E2(B2PLYPD3) =    -0.2257967455D+00 E(B2PLYPD3) =    -0.15592584694091D+03

 The electronic state is 1-A.
 Alpha  occ. eigenvalues --  -10.62844 -10.62779 -10.61601 -10.61483  -0.92833
 Alpha  occ. eigenvalues --   -0.84984  -0.69960  -0.63746  -0.54457  -0.53925
 Alpha  occ. eigenvalues --   -0.46717  -0.45312  -0.40863  -0.38077  -0.27850
 Alpha virt. eigenvalues --    0.01820   0.07005   0.07367   0.07948   0.09568
 Alpha virt. eigenvalues --    0.11610   0.12450   0.14642   0.15788   0.16227
 Alpha virt. eigenvalues --    0.18809   0.20343   0.21768   0.22693   0.23687

 Mulliken charges:
               1
     1  C   -0.169197
     2  C   -0.032479
     3  C   -0.029388
     4  C   -0.175564
     5  H    0.083382
     6  H    0.063173
     7  H    0.054302
     8  H    0.053215
     9  H    0.068117
    10  H    0.084439
 Sum of Mulliken charges =   0.00000

 Dipole moment (field-independent basis, Debye):
    X=              0.0261    Y=             -0.0045    Z=              0.0317  Tot=              0.0413
 Quadrupole moment (field-independent basis, Debye-Ang):
   XX=            -23.3412   YY=            -23.1695   ZZ=            -29.2980
   XY=             -0.1742   XZ=              0.1253   YZ=             -0.0592

 1\1\GINC-NODE24\SP\RB2PLYPD3-FC\def2QZVP\C4H6\BOITTIER\26-Aug-2020\0\\
 #p B2PLYPD3/Def2QZVP\\butadiene\\0,1\C,0,-3.838975,0.22716,0.005676\C,
 0,-2.728724,-0.50804,0.049074\C,0,-1.383604,0.060598,0.013117\C,0,-0.2
 56235,-0.647582,0.0299\H,0,-4.854195,-0.188869,0.045722\H,0,-3.79549,1
 .299465,-0.03836\H,0,-2.819526,-1.605817,0.124681\H,0,-1.315915,1.1633
 93,0.064545\H,0,-0.248332,-1.727072,-0.012277\H,0,0.707719,-0.148158,0
 .004212\\Version=ES64L-G09RevD.01\State=1-A\HF=-155.7000502\MP2=-155.9
 258469\RMSD=2.215e-09\PG=C01 [X(C4H6)]\\@

 Normal termination of Gaussian 09 at Wed Aug 26 18:35:29 2020.
