 Gaussian 09, Revision D.01,
 Gaussian 09:  ES64L-G09RevD.01 24-Apr-2013

 --------------------
 #p B2PLYPD3/Def2QZVP
 --------------------

 ---------
 butadiene
 ---------
 Symbolic Z-matrix:
 Charge =  0 Multiplicity = 1

                         Standard orientation:
 ---------------------------------------------------------------------
 Center     Atomic      Atomic             Coordinates (Angstroms)
 Number     Number       Type             X           Y           Z
 ---------------------------------------------------------------------
      1          6           0        1.840631    0.098462   -0.001898
      2          6           0        0.603813   -0.379642   -0.016994
      3          6           0       -0.600434    0.409762    0.001599
      4          6           0       -1.845660   -0.112805    0.007555
      5          1           0        2.689825   -0.579474    0.030510
      6          1           0        2.055027    1.158033   -0.019731
      7          1           0        0.485200   -1.452158    0.075474
      8          1           0       -0.458343    1.489720    0.026582
      9          1           0       -2.018442   -1.198251   -0.059705
     10          1           0       -2.743367    0.487468    0.005295
 ---------------------------------------------------------------------

 SCF Done:  E(RB2PLYPD3) =  -155.699854818     A.U. after   11 cycles
 E2(B2PLYPD3) =    -0.2259674968D+00 E(B2PLYPD3) =    -0.15592582231498D+03

 The electronic state is 1-A.
 Alpha  occ. eigenvalues --  -10.62825 -10.62201 -10.62028 -10.61424  -0.93089
 Alpha  occ. eigenvalues --   -0.84784  -0.70373  -0.63979  -0.54675  -0.53834
 Alpha  occ. eigenvalues --   -0.46755  -0.45387  -0.41091  -0.38214  -0.27599
 Alpha virt. eigenvalues --    0.01496   0.06999   0.07418   0.08019   0.09682
 Alpha virt. eigenvalues --    0.11632   0.12412   0.14744   0.15748   0.16208
 Alpha virt. eigenvalues --    0.18841   0.20380   0.21712   0.22668   0.23739

 Mulliken charges:
               1
     1  C   -0.177784
     2  C   -0.019315
     3  C   -0.039470
     4  C   -0.171913
     5  H    0.083999
     6  H    0.065595
     7  H    0.054511
     8  H    0.055067
     9  H    0.063402
    10  H    0.085906
 Sum of Mulliken charges =   0.00000

 Dipole moment (field-independent basis, Debye):
    X=             -0.0035    Y=              0.0059    Z=              0.0367  Tot=              0.0374
 Quadrupole moment (field-independent basis, Debye-Ang):
   XX=            -23.3441   YY=            -23.1899   ZZ=            -29.2867
   XY=              0.1903   XZ=              0.1997   YZ=             -0.0348

 1\1\GINC-NODE36\SP\RB2PLYPD3-FC\def2QZVP\C4H6\BOITTIER\26-Aug-2020\0\\
 #p B2PLYPD3/Def2QZVP\\butadiene\\0,1\C,0,-3.844662,0.215178,0.016489\C
 ,0,-2.715432,-0.479342,0.04833\C,0,-1.387705,0.077084,0.013036\C,0,-0.
 258327,-0.663227,0.025031\H,0,-4.803058,-0.29761,-0.000934\H,0,-3.8627
 06,1.296164,0.005715\H,0,-2.794038,-1.557608,-0.015487\H,0,-1.331005,1
 .163826,-0.040832\H,0,-0.285785,-1.759826,0.121408\H,0,0.733601,-0.236
 402,0.014524\\Version=ES64L-G09RevD.01\State=1-A\HF=-155.6998548\MP2=-
 155.9258223\RMSD=5.234e-09\PG=C01 [X(C4H6)]\\@

 Normal termination of Gaussian 09 at Wed Aug 26 19:53:07 2020.
