 Gaussian 09, Revision D.01,
 Gaussian 09:  ES64L-G09RevD.01 24-Apr-2013

 --------------------
 #p B2PLYPD3/Def2QZVP
 --------------------

 ---------
 butadiene
 ---------
 Symbolic Z-matrix:
 Charge =  0 Multiplicity = 1

                         Standard orientation:
 ---------------------------------------------------------------------
 Center     Atomic      Atomic             Coordinates (Angstroms)
 Number     Number       Type             X           Y           Z
 ---------------------------------------------------------------------
      1          6           0        1.839284    0.092891    0.012851
      2          6           0        0.588709   -0.379734   -0.007605
      3          6           0       -0.601494    0.410456   -0.021088
      4          6           0       -1.828758   -0.121868    0.003729
      5          1           0        2.714423   -0.538571    0.041938
      6          1           0        2.029243    1.150303    0.013216
      7          1           0        0.448381   -1.462772   -0.067969
      8          1           0       -0.461810    1.499176   -0.027346
      9          1           0       -1.998482   -1.186611    0.046921
     10          1           0       -2.718206    0.528006    0.065918
 ---------------------------------------------------------------------

 SCF Done:  E(RB2PLYPD3) =  -155.699872623     A.U. after   11 cycles
 E2(B2PLYPD3) =    -0.2260067929D+00 E(B2PLYPD3) =    -0.15592587941549D+03

 The electronic state is 1-A.
 Alpha  occ. eigenvalues --  -10.62601 -10.62368 -10.61854 -10.61383  -0.93301
 Alpha  occ. eigenvalues --   -0.84770  -0.70423  -0.63971  -0.54601  -0.53967
 Alpha  occ. eigenvalues --   -0.46709  -0.45365  -0.41189  -0.38362  -0.27503
 Alpha virt. eigenvalues --    0.01495   0.06996   0.07377   0.07996   0.09736
 Alpha virt. eigenvalues --    0.11681   0.12447   0.14797   0.15816   0.16126
 Alpha virt. eigenvalues --    0.18751   0.20531   0.21747   0.22706   0.23640

 Mulliken charges:
               1
     1  C   -0.179575
     2  C   -0.021004
     3  C   -0.030432
     4  C   -0.173706
     5  H    0.086565
     6  H    0.061654
     7  H    0.050508
     8  H    0.053914
     9  H    0.069654
    10  H    0.082421
 Sum of Mulliken charges =   0.00000

 Dipole moment (field-independent basis, Debye):
    X=             -0.0163    Y=              0.0009    Z=              0.0500  Tot=              0.0526
 Quadrupole moment (field-independent basis, Debye-Ang):
   XX=            -23.4476   YY=            -23.1678   ZZ=            -29.2671
   XY=              0.2153   XZ=             -0.1756   YZ=              0.0241

 1\1\GINC-NODE31\SP\RB2PLYPD3-FC\def2QZVP\C4H6\BOITTIER\26-Aug-2020\0\\
 #p B2PLYPD3/Def2QZVP\\butadiene\\0,1\C,0,-3.843935,0.212411,0.006969\C
 ,0,-2.700824,-0.48023,0.042717\C,0,-1.386107,0.078854,0.032268\C,0,-0.
 277068,-0.669569,0.024606\H,0,-4.819954,-0.248833,-0.002946\H,0,-3.837
 265,1.286213,-0.026313\H,0,-2.760663,-1.568295,0.136739\H,0,-1.32425,1
 .174424,0.004659\H,0,-0.305198,-1.748206,0.01457\H,0,0.715914,-0.19564
 5,-0.057275\\Version=ES64L-G09RevD.01\State=1-A\HF=-155.6998726\MP2=-1
 55.9258794\RMSD=4.567e-09\PG=C01 [X(C4H6)]\\@

 Normal termination of Gaussian 09 at Wed Aug 26 19:25:03 2020.
