 Gaussian 09, Revision D.01,
 Gaussian 09:  ES64L-G09RevD.01 24-Apr-2013

 --------------------
 #p B2PLYPD3/Def2QZVP
 --------------------

 ---------
 butadiene
 ---------
 Symbolic Z-matrix:
 Charge =  0 Multiplicity = 1

                         Standard orientation:
 ---------------------------------------------------------------------
 Center     Atomic      Atomic             Coordinates (Angstroms)
 Number     Number       Type             X           Y           Z
 ---------------------------------------------------------------------
      1          6           0        1.842127    0.102189    0.020420
      2          6           0        0.623794   -0.363418   -0.050722
      3          6           0       -0.612750    0.393016   -0.057419
      4          6           0       -1.845183   -0.112731    0.033360
      5          1           0        2.603114   -0.624223    0.128338
      6          1           0        2.085349    1.178626    0.114235
      7          1           0        0.442735   -1.451147   -0.009523
      8          1           0       -0.500028    1.489997   -0.084347
      9          1           0       -1.942158   -1.200901   -0.002730
     10          1           0       -2.736936    0.493314    0.180194
 ---------------------------------------------------------------------

 SCF Done:  E(RB2PLYPD3) =  -155.695696245     A.U. after   11 cycles
 E2(B2PLYPD3) =    -0.2255579510D+00 E(B2PLYPD3) =    -0.15592125419632D+03

 The electronic state is 1-A.
 Alpha  occ. eigenvalues --  -10.62551 -10.62273 -10.61806 -10.61198  -0.93236
 Alpha  occ. eigenvalues --   -0.85455  -0.70255  -0.63283  -0.54744  -0.53900
 Alpha  occ. eigenvalues --   -0.47231  -0.45363  -0.40322  -0.38327  -0.28053
 Alpha virt. eigenvalues --    0.01815   0.06986   0.07331   0.08025   0.09944
 Alpha virt. eigenvalues --    0.11644   0.12321   0.14738   0.15709   0.16104
 Alpha virt. eigenvalues --    0.18820   0.20356   0.21363   0.22609   0.24011

 Mulliken charges:
               1
     1  C   -0.172833
     2  C   -0.021407
     3  C   -0.024799
     4  C   -0.177073
     5  H    0.086526
     6  H    0.070711
     7  H    0.041278
     8  H    0.044900
     9  H    0.059954
    10  H    0.092743
 Sum of Mulliken charges =   0.00000

 Dipole moment (field-independent basis, Debye):
    X=             -0.0102    Y=              0.0080    Z=              0.2306  Tot=              0.2310
 Quadrupole moment (field-independent basis, Debye-Ang):
   XX=            -23.5853   YY=            -23.2371   ZZ=            -29.1407
   XY=              0.0576   XZ=              0.0949   YZ=              0.0787

 1\1\GINC-NODE06\SP\RB2PLYPD3-FC\def2QZVP\C4H6\BOITTIER\26-Aug-2020\0\\
 #p B2PLYPD3/Def2QZVP\\butadiene\\0,1\C,0,-3.845559,0.212797,-0.009711\
 C,0,-2.730139,-0.461186,0.078444\C,0,-1.378099,0.061423,0.066349\C,0,-
 0.256406,-0.659316,-0.006129\H,0,-4.724613,-0.368433,-0.098359\H,0,-3.
 892297,1.31216,-0.135765\H,0,-2.746924,-1.564488,0.069702\H,0,-1.29246
 1,1.161165,0.060744\H,0,-0.355798,-1.745722,0.062165\H,0,0.729095,-0.2
 27359,-0.168226\\Version=ES64L-G09RevD.01\State=1-A\HF=-155.6956962\MP
 2=-155.9212542\RMSD=6.011e-09\PG=C01 [X(C4H6)]\\@

 Normal termination of Gaussian 09 at Wed Aug 26 10:42:50 2020.
