 Gaussian 09, Revision D.01,
 Gaussian 09:  ES64L-G09RevD.01 24-Apr-2013

 --------------------
 #p B2PLYPD3/Def2QZVP
 --------------------

 ---------
 butadiene
 ---------
 Symbolic Z-matrix:
 Charge =  0 Multiplicity = 1

                         Standard orientation:
 ---------------------------------------------------------------------
 Center     Atomic      Atomic             Coordinates (Angstroms)
 Number     Number       Type             X           Y           Z
 ---------------------------------------------------------------------
      1          6           0        1.853211    0.085999    0.010806
      2          6           0        0.610318   -0.375954   -0.044621
      3          6           0       -0.608488    0.423243   -0.045389
      4          6           0       -1.840695   -0.129604    0.030805
      5          1           0        2.687613   -0.559407    0.092395
      6          1           0        2.059675    1.175126    0.081849
      7          1           0        0.475131   -1.437606    0.061426
      8          1           0       -0.519728    1.473044   -0.023025
      9          1           0       -2.065799   -1.167450   -0.043506
     10          1           0       -2.722964    0.494189    0.121259
 ---------------------------------------------------------------------

 SCF Done:  E(RB2PLYPD3) =  -155.697104604     A.U. after   11 cycles
 E2(B2PLYPD3) =    -0.2256667005D+00 E(B2PLYPD3) =    -0.15592277130454D+03

 The electronic state is 1-A.
 Alpha  occ. eigenvalues --  -10.62666 -10.62273 -10.61710 -10.61371  -0.92866
 Alpha  occ. eigenvalues --   -0.84914  -0.70483  -0.64467  -0.54903  -0.53882
 Alpha  occ. eigenvalues --   -0.47148  -0.45394  -0.41217  -0.37925  -0.27620
 Alpha virt. eigenvalues --    0.01539   0.07012   0.07543   0.08130   0.09470
 Alpha virt. eigenvalues --    0.11617   0.12473   0.14745   0.15752   0.16403
 Alpha virt. eigenvalues --    0.18934   0.20223   0.21757   0.23015   0.23760

 Mulliken charges:
               1
     1  C   -0.173357
     2  C   -0.028203
     3  C   -0.044013
     4  C   -0.172223
     5  H    0.086846
     6  H    0.059055
     7  H    0.057218
     8  H    0.065649
     9  H    0.072389
    10  H    0.076640
 Sum of Mulliken charges =   0.00000

 Dipole moment (field-independent basis, Debye):
    X=             -0.0632    Y=             -0.0229    Z=              0.1956  Tot=              0.2069
 Quadrupole moment (field-independent basis, Debye-Ang):
   XX=            -23.3341   YY=            -23.1377   ZZ=            -29.2157
   XY=              0.2168   XZ=              0.2392   YZ=              0.0534

 1\1\GINC-NODE05\SP\RB2PLYPD3-FC\def2QZVP\C4H6\BOITTIER\26-Aug-2020\0\\
 #p B2PLYPD3/Def2QZVP\\butadiene\\0,1\C,0,-3.857936,0.203412,-0.001295\
 C,0,-2.718826,-0.473549,0.072252\C,0,-1.375729,0.09212,0.054554\C,0,-0
 .263737,-0.676112,-0.000873\H,0,-4.795293,-0.282826,-0.067362\H,0,-3.8
 64416,1.309374,-0.104636\H,0,-2.777747,-1.544795,-0.002491\H,0,-1.2734
 73,1.139586,0.001462\H,0,-0.229657,-1.734928,0.104321\H,0,0.716547,-0.
 224784,-0.105966\\Version=ES64L-G09RevD.01\State=1-A\HF=-155.6971046\M
 P2=-155.9227713\RMSD=5.812e-09\PG=C01 [X(C4H6)]\\@

 Normal termination of Gaussian 09 at Wed Aug 26 10:09:44 2020.
