 Gaussian 09, Revision D.01,
 Gaussian 09:  ES64L-G09RevD.01 24-Apr-2013

 --------------------
 #p B2PLYPD3/Def2QZVP
 --------------------

 ---------
 butadiene
 ---------
 Symbolic Z-matrix:
 Charge =  0 Multiplicity = 1

                         Standard orientation:
 ---------------------------------------------------------------------
 Center     Atomic      Atomic             Coordinates (Angstroms)
 Number     Number       Type             X           Y           Z
 ---------------------------------------------------------------------
      1          6           0        1.851184   -0.078841    0.008066
      2          6           0        0.587918    0.327266   -0.084310
      3          6           0       -0.590709   -0.409842   -0.050303
      4          6           0       -1.831088    0.116252    0.046924
      5          1           0        2.538064    0.617419    0.292288
      6          1           0        2.109340   -1.092839    0.128020
      7          1           0        0.539553    1.459728   -0.026385
      8          1           0       -0.456171   -1.456074   -0.082990
      9          1           0       -2.018281    1.157867   -0.025876
     10          1           0       -2.816336   -0.415107    0.192687
 ---------------------------------------------------------------------

 SCF Done:  E(RB2PLYPD3) =  -155.681082262     A.U. after   12 cycles
 E2(B2PLYPD3) =    -0.2264670994D+00 E(B2PLYPD3) =    -0.15590754936101D+03

 The electronic state is 1-A.
 Alpha  occ. eigenvalues --  -10.62513 -10.62411 -10.62345 -10.60274  -0.93941
 Alpha  occ. eigenvalues --   -0.85211  -0.71784  -0.64053  -0.55569  -0.54320
 Alpha  occ. eigenvalues --   -0.47727  -0.44611  -0.40927  -0.38661  -0.27318
 Alpha virt. eigenvalues --    0.00693   0.06922   0.07649   0.07886   0.09997
 Alpha virt. eigenvalues --    0.11532   0.12748   0.14887   0.15811   0.16477
 Alpha virt. eigenvalues --    0.18984   0.20352   0.21224   0.22600   0.24388

 Mulliken charges:
               1
     1  C   -0.165385
     2  C   -0.002191
     3  C   -0.044309
     4  C   -0.164912
     5  H    0.079687
     6  H    0.054385
     7  H    0.035110
     8  H    0.062860
     9  H    0.067647
    10  H    0.077108
 Sum of Mulliken charges =   0.00000

 Dipole moment (field-independent basis, Debye):
    X=             -0.1722    Y=              0.0031    Z=              0.3451  Tot=              0.3857
 Quadrupole moment (field-independent basis, Debye-Ang):
   XX=            -23.3503   YY=            -23.4989   ZZ=            -28.9485
   XY=             -0.2915   XZ=              0.6520   YZ=              0.0676

 1\1\GINC-NODE15\SP\RB2PLYPD3-FC\def2QZVP\C4H6\BOITTIER\26-Aug-2020\0\\
 #p B2PLYPD3/Def2QZVP\\butadiene\\0,1\C,0,-3.855772,0.200914,0.043398\C
 ,0,-2.690319,-0.435482,-0.034163\C,0,-1.395529,0.071628,-0.035957\C,0,
 -0.272689,-0.670163,0.081279\H,0,-4.656335,-0.343345,0.360014\H,0,-3.9
 20892,1.24938,0.118928\H,0,-2.851334,-1.553776,0.073812\H,0,-1.334854,
 1.122291,-0.11467\H,0,-0.2819,-1.730582,0.054268\H,0,0.795262,-0.32446
 3,0.200762\\Version=ES64L-G09RevD.01\State=1-A\HF=-155.6810823\MP2=-15
 5.9075494\RMSD=3.461e-09\PG=C01 [X(C4H6)]\\@

 Normal termination of Gaussian 09 at Wed Aug 26 14:08:52 2020.
