 Gaussian 09, Revision D.01,
 Gaussian 09:  ES64L-G09RevD.01 24-Apr-2013

 --------------------
 #p B2PLYPD3/Def2QZVP
 --------------------

 ---------
 butadiene
 ---------
 Symbolic Z-matrix:
 Charge =  0 Multiplicity = 1

                         Standard orientation:
 ---------------------------------------------------------------------
 Center     Atomic      Atomic             Coordinates (Angstroms)
 Number     Number       Type             X           Y           Z
 ---------------------------------------------------------------------
      1          6           0        1.819539   -0.124875    0.032987
      2          6           0        0.595638    0.439785   -0.011095
      3          6           0       -0.632474   -0.388566   -0.080810
      4          6           0       -1.835932    0.091334    0.000065
      5          1           0        2.736578    0.470642    0.208214
      6          1           0        1.975923   -1.290709   -0.096102
      7          1           0        0.601085    1.522621   -0.133931
      8          1           0       -0.329812   -1.438199    0.024481
      9          1           0       -1.949431    1.182487    0.044040
     10          1           0       -2.714975   -0.552907    0.306413
 ---------------------------------------------------------------------

 SCF Done:  E(RB2PLYPD3) =  -155.679796687     A.U. after   11 cycles
 E2(B2PLYPD3) =    -0.2271278285D+00 E(B2PLYPD3) =    -0.15590692451518D+03

 The electronic state is 1-A.
 Alpha  occ. eigenvalues --  -10.63064 -10.62949 -10.62580 -10.61751  -0.92973
 Alpha  occ. eigenvalues --   -0.84933  -0.68786  -0.63498  -0.54062  -0.53103
 Alpha  occ. eigenvalues --   -0.46815  -0.44255  -0.40676  -0.37685  -0.28030
 Alpha virt. eigenvalues --    0.01938   0.06899   0.07143   0.07904   0.08967
 Alpha virt. eigenvalues --    0.11661   0.12301   0.14093   0.15206   0.16262
 Alpha virt. eigenvalues --    0.18603   0.19765   0.21234   0.23088   0.23668

 Mulliken charges:
               1
     1  C   -0.177854
     2  C   -0.040495
     3  C   -0.025048
     4  C   -0.156563
     5  H    0.084263
     6  H    0.053044
     7  H    0.060517
     8  H    0.057552
     9  H    0.063724
    10  H    0.080859
 Sum of Mulliken charges =   0.00000

 Dipole moment (field-independent basis, Debye):
    X=              0.1008    Y=              0.0794    Z=              0.2462  Tot=              0.2776
 Quadrupole moment (field-independent basis, Debye-Ang):
   XX=            -23.9835   YY=            -23.2978   ZZ=            -29.2487
   XY=             -0.0484   XZ=             -0.6948   YZ=             -0.1337

 1\1\GINC-NODE16\SP\RB2PLYPD3-FC\def2QZVP\C4H6\BOITTIER\26-Aug-2020\0\\
 #p B2PLYPD3/Def2QZVP\\butadiene\\0,1\C,0,-3.825798,0.235726,0.049257\C
 ,0,-2.722371,-0.539166,0.022633\C,0,-1.365658,0.055186,-0.050585\C,0,-
 0.267754,-0.630653,0.046303\H,0,-4.835302,-0.183449,0.226735\H,0,-3.77
 0665,1.408504,-0.098528\H,0,-2.920756,-1.605443,-0.083905\H,0,-1.47627
 2,1.143566,0.03666\H,0,-0.351347,-1.723673,0.107547\H,0,0.710914,-0.14
 8986,0.34932\\Version=ES64L-G09RevD.01\State=1-A\HF=-155.6797967\MP2=-
 155.9069245\RMSD=8.528e-09\PG=C01 [X(C4H6)]\\@

 Normal termination of Gaussian 09 at Wed Aug 26 11:38:33 2020.
