 Gaussian 09, Revision D.01,
 Gaussian 09:  ES64L-G09RevD.01 24-Apr-2013

 --------------------
 #p B2PLYPD3/Def2QZVP
 --------------------

 ---------
 butadiene
 ---------
 Symbolic Z-matrix:
 Charge =  0 Multiplicity = 1

                         Standard orientation:
 ---------------------------------------------------------------------
 Center     Atomic      Atomic             Coordinates (Angstroms)
 Number     Number       Type             X           Y           Z
 ---------------------------------------------------------------------
      1          6           0        1.860137   -0.157091    0.023478
      2          6           0        0.639457    0.442708   -0.047392
      3          6           0       -0.609559   -0.368504   -0.068548
      4          6           0       -1.874006    0.068670    0.046900
      5          1           0        2.744225    0.492060   -0.058670
      6          1           0        1.971664   -1.275286    0.328257
      7          1           0        0.628263    1.584623    0.009887
      8          1           0       -0.542842   -1.410078   -0.182247
      9          1           0       -2.107317    1.198653    0.141410
     10          1           0       -2.790166   -0.504676    0.034734
 ---------------------------------------------------------------------

 SCF Done:  E(RB2PLYPD3) =  -155.678512917     A.U. after   11 cycles
 E2(B2PLYPD3) =    -0.2280174758D+00 E(B2PLYPD3) =    -0.15590653039310D+03

 The electronic state is 1-A.
 Alpha  occ. eigenvalues --  -10.64233 -10.63139 -10.62877 -10.62409  -0.91981
 Alpha  occ. eigenvalues --   -0.84427  -0.69196  -0.63209  -0.54248  -0.53092
 Alpha  occ. eigenvalues --   -0.46258  -0.44394  -0.40809  -0.37193  -0.27608
 Alpha virt. eigenvalues --    0.01208   0.06906   0.07186   0.07712   0.09033
 Alpha virt. eigenvalues --    0.11395   0.12152   0.13982   0.15855   0.16406
 Alpha virt. eigenvalues --    0.19069   0.19910   0.21305   0.21945   0.23394

 Mulliken charges:
               1
     1  C   -0.170649
     2  C   -0.046220
     3  C   -0.041115
     4  C   -0.163066
     5  H    0.084858
     6  H    0.073856
     7  H    0.061654
     8  H    0.067353
     9  H    0.045414
    10  H    0.087914
 Sum of Mulliken charges =   0.00000

 Dipole moment (field-independent basis, Debye):
    X=              0.0130    Y=             -0.0094    Z=              0.1686  Tot=              0.1693
 Quadrupole moment (field-independent basis, Debye-Ang):
   XX=            -23.3983   YY=            -23.2941   ZZ=            -29.5316
   XY=              0.3371   XZ=              0.2118   YZ=             -0.0979

 1\1\GINC-NODE04\SP\RB2PLYPD3-FC\def2QZVP\C4H6\BOITTIER\26-Aug-2020\0\\
 #p B2PLYPD3/Def2QZVP\\butadiene\\0,1\C,0,-3.856248,0.254811,0.049589\C
 ,0,-2.755773,-0.545263,-0.011058\C,0,-1.386878,0.040837,-0.045222\C,0,
 -0.2151,-0.603437,0.077758\H,0,-4.838204,-0.235473,-0.022103\H,0,-3.77
 4882,1.380468,0.335885\H,0,-2.939128,-1.671304,0.065019\H,0,-1.27547,1
 .076559,-0.176074\H,0,-0.177459,-1.754959,0.190925\H,0,0.785307,-0.194
 838,0.056406\\Version=ES64L-G09RevD.01\State=1-A\HF=-155.6785129\MP2=-
 155.9065304\RMSD=8.342e-09\PG=C01 [X(C4H6)]\\@

 Normal termination of Gaussian 09 at Wed Aug 26 11:44:45 2020.
