 Gaussian 09, Revision D.01,
 Gaussian 09:  ES64L-G09RevD.01 24-Apr-2013

 --------------------
 #p B2PLYPD3/Def2QZVP
 --------------------

 ---------
 butadiene
 ---------
 Symbolic Z-matrix:
 Charge =  0 Multiplicity = 1

                         Standard orientation:
 ---------------------------------------------------------------------
 Center     Atomic      Atomic             Coordinates (Angstroms)
 Number     Number       Type             X           Y           Z
 ---------------------------------------------------------------------
      1          6           0       -1.815316    0.123877    0.086559
      2          6           0       -0.590719   -0.425673   -0.085425
      3          6           0        0.571240    0.377836   -0.078066
      4          6           0        1.802630   -0.094586    0.051514
      5          1           0       -2.701498   -0.515764    0.201781
      6          1           0       -1.882187    1.246496   -0.146983
      7          1           0       -0.487529   -1.509244   -0.128850
      8          1           0        0.555959    1.556253    0.004314
      9          1           0        2.056052   -1.153997    0.060035
     10          1           0        2.652192    0.487529    0.162216
 ---------------------------------------------------------------------

 SCF Done:  E(RB2PLYPD3) =  -155.680177242     A.U. after   12 cycles
 E2(B2PLYPD3) =    -0.2274675771D+00 E(B2PLYPD3) =    -0.15590764481926D+03

 The electronic state is 1-A.
 Alpha  occ. eigenvalues --  -10.63058 -10.62788 -10.62561 -10.60752  -0.93550
 Alpha  occ. eigenvalues --   -0.84729  -0.70207  -0.63111  -0.55204  -0.53302
 Alpha  occ. eigenvalues --   -0.45947  -0.44582  -0.41217  -0.38401  -0.27214
 Alpha virt. eigenvalues --    0.01375   0.06880   0.07167   0.07828   0.09310
 Alpha virt. eigenvalues --    0.11609   0.12477   0.14515   0.15792   0.16401
 Alpha virt. eigenvalues --    0.18578   0.19509   0.21819   0.22841   0.24436

 Mulliken charges:
               1
     1  C   -0.173345
     2  C   -0.038911
     3  C   -0.011474
     4  C   -0.169660
     5  H    0.084541
     6  H    0.070767
     7  H    0.062542
     8  H    0.041463
     9  H    0.051453
    10  H    0.082624
 Sum of Mulliken charges =   0.00000

 Dipole moment (field-independent basis, Debye):
    X=              0.0840    Y=             -0.1252    Z=              0.0160  Tot=              0.1516
 Quadrupole moment (field-independent basis, Debye-Ang):
   XX=            -23.7259   YY=            -23.1941   ZZ=            -29.2629
   XY=              0.2578   XZ=              0.3462   YZ=             -0.1250

 1\1\GINC-NODE20\SP\RB2PLYPD3-FC\def2QZVP\C4H6\BOITTIER\26-Aug-2020\0\\
 #p B2PLYPD3/Def2QZVP\\butadiene\\0,1\C,0,-3.810363,0.240199,0.101087\C
 ,0,-2.705983,-0.527475,-0.048057\C,0,-1.417446,0.051645,-0.059035\C,0,
 -0.292233,-0.632237,0.090954\H,0,-4.797895,-0.224159,0.231047\H,0,-3.6
 72412,1.348641,-0.166516\H,0,-2.801267,-1.612591,-0.058284\H,0,-1.2184
 74,1.215222,-0.012284\H,0,-0.235369,-1.719285,0.132681\H,0,0.648954,-0
 .210874,0.188362\\Version=ES64L-G09RevD.01\State=1-A\HF=-155.6801772\M
 P2=-155.9076448\RMSD=4.129e-09\PG=C01 [X(C4H6)]\\@

 Normal termination of Gaussian 09 at Wed Aug 26 13:06:21 2020.
