 Gaussian 09, Revision D.01,
 Gaussian 09:  ES64L-G09RevD.01 24-Apr-2013

 --------------------
 #p B2PLYPD3/Def2QZVP
 --------------------

 ---------
 butadiene
 ---------
 Symbolic Z-matrix:
 Charge =  0 Multiplicity = 1

                         Standard orientation:
 ---------------------------------------------------------------------
 Center     Atomic      Atomic             Coordinates (Angstroms)
 Number     Number       Type             X           Y           Z
 ---------------------------------------------------------------------
      1          6           0        1.828731    0.090154   -0.024514
      2          6           0        0.593766   -0.386406    0.052287
      3          6           0       -0.592416    0.426094    0.021918
      4          6           0       -1.828552   -0.108677   -0.049125
      5          1           0        2.690566   -0.572474   -0.107159
      6          1           0        2.058100    1.134938   -0.051526
      7          1           0        0.414822   -1.402329    0.058747
      8          1           0       -0.461972    1.504784    0.105638
      9          1           0       -1.936979   -1.201771    0.018183
     10          1           0       -2.773712    0.409856   -0.027276
 ---------------------------------------------------------------------

 SCF Done:  E(RB2PLYPD3) =  -155.696435486     A.U. after   11 cycles
 E2(B2PLYPD3) =    -0.2257320771D+00 E(B2PLYPD3) =    -0.15592216756321D+03

 The electronic state is 1-A.
 Alpha  occ. eigenvalues --  -10.62715 -10.61869 -10.61735 -10.61332  -0.93405
 Alpha  occ. eigenvalues --   -0.84709  -0.70467  -0.64831  -0.55053  -0.53699
 Alpha  occ. eigenvalues --   -0.47266  -0.45171  -0.41368  -0.38188  -0.27522
 Alpha virt. eigenvalues --    0.01567   0.07016   0.07465   0.08177   0.09534
 Alpha virt. eigenvalues --    0.11641   0.12659   0.14672   0.15844   0.16350
 Alpha virt. eigenvalues --    0.18841   0.20382   0.21799   0.22791   0.23868

 Mulliken charges:
               1
     1  C   -0.172936
     2  C   -0.029524
     3  C   -0.031203
     4  C   -0.171205
     5  H    0.079534
     6  H    0.067450
     7  H    0.064356
     8  H    0.056782
     9  H    0.052501
    10  H    0.084244
 Sum of Mulliken charges =   0.00000

 Dipole moment (field-independent basis, Debye):
    X=             -0.0022    Y=              0.0017    Z=              0.0525  Tot=              0.0526
 Quadrupole moment (field-independent basis, Debye-Ang):
   XX=            -23.2686   YY=            -23.2785   ZZ=            -29.1830
   XY=              0.2876   XZ=             -0.4351   YZ=              0.0420

 1\1\GINC-NODE13\SP\RB2PLYPD3-FC\def2QZVP\C4H6\BOITTIER\26-Aug-2020\0\\
 #p B2PLYPD3/Def2QZVP\\butadiene\\0,1\C,0,-3.832356,0.211945,0.048578\C
 ,0,-2.707874,-0.488009,-0.012667\C,0,-1.391377,0.090732,-0.013838\C,0,
 -0.275313,-0.661336,0.074787\H,0,-4.801411,-0.27581,0.15671\H,0,-3.863
 755,1.281436,0.037752\H,0,-2.720501,-1.519067,0.01772\H,0,-1.320202,1.
 17121,-0.136714\H,0,-0.372048,-1.75725,0.047296\H,0,0.7494,-0.328381,0
 .032546\\Version=ES64L-G09RevD.01\State=1-A\HF=-155.6964355\MP2=-155.9
 221676\RMSD=5.038e-09\PG=C01 [X(C4H6)]\\@

 Normal termination of Gaussian 09 at Wed Aug 26 11:14:55 2020.
