 Gaussian 09, Revision D.01,
 Gaussian 09:  ES64L-G09RevD.01 24-Apr-2013

 --------------------
 #p B2PLYPD3/Def2QZVP
 --------------------

 ---------
 butadiene
 ---------
 Symbolic Z-matrix:
 Charge =  0 Multiplicity = 1

                         Standard orientation:
 ---------------------------------------------------------------------
 Center     Atomic      Atomic             Coordinates (Angstroms)
 Number     Number       Type             X           Y           Z
 ---------------------------------------------------------------------
      1          6           0        1.828254   -0.108873   -0.025522
      2          6           0        0.598068    0.395649    0.012821
      3          6           0       -0.604442   -0.398330    0.020123
      4          6           0       -1.825426    0.111681   -0.012421
      5          1           0        2.738921    0.516934    0.054696
      6          1           0        1.952916   -1.188925   -0.065081
      7          1           0        0.465974    1.485039    0.046136
      8          1           0       -0.450323   -1.447162    0.068560
      9          1           0       -1.999632    1.189362   -0.061282
     10          1           0       -2.686581   -0.556011   -0.013034
 ---------------------------------------------------------------------

 SCF Done:  E(RB2PLYPD3) =  -155.699795349     A.U. after   11 cycles
 E2(B2PLYPD3) =    -0.2255642772D+00 E(B2PLYPD3) =    -0.15592535962610D+03

 The electronic state is 1-A.
 Alpha  occ. eigenvalues --  -10.62332 -10.61975 -10.61704 -10.61548  -0.93400
 Alpha  occ. eigenvalues --   -0.84995  -0.69913  -0.64150  -0.54406  -0.53950
 Alpha  occ. eigenvalues --   -0.46798  -0.45378  -0.41005  -0.38390  -0.27776
 Alpha virt. eigenvalues --    0.01863   0.06996   0.07376   0.08019   0.09755
 Alpha virt. eigenvalues --    0.11751   0.12361   0.14720   0.15799   0.16060
 Alpha virt. eigenvalues --    0.18687   0.20402   0.21497   0.22749   0.23952

 Mulliken charges:
               1
     1  C   -0.176906
     2  C   -0.022515
     3  C   -0.031236
     4  C   -0.175236
     5  H    0.086291
     6  H    0.060799
     7  H    0.049532
     8  H    0.056343
     9  H    0.068720
    10  H    0.084209
 Sum of Mulliken charges =   0.00000

 Dipole moment (field-independent basis, Debye):
    X=             -0.0226    Y=             -0.0170    Z=              0.0478  Tot=              0.0555
 Quadrupole moment (field-independent basis, Debye-Ang):
   XX=            -23.6454   YY=            -23.1088   ZZ=            -29.2152
   XY=             -0.0886   XZ=              0.2086   YZ=              0.0215

 1\1\GINC-NODE30\SP\RB2PLYPD3-FC\def2QZVP\C4H6\BOITTIER\26-Aug-2020\0\\
 #p B2PLYPD3/Def2QZVP\\butadiene\\0,1\C,0,-3.831258,0.22176,-0.003367\C
 ,0,-2.712304,-0.495471,0.050429\C,0,-1.386097,0.067902,0.033966\C,0,-0
 .277559,-0.65517,0.017072\H,0,-4.83958,-0.226442,0.095549\H,0,-3.75891
 ,1.30489,-0.075559\H,0,-2.779062,-1.589311,0.116663\H,0,-1.347898,1.12
 8284,0.050668\H,0,-0.301217,-1.747556,0.000822\H,0,0.690056,-0.154473,
 -0.00355\\Version=ES64L-G09RevD.01\State=1-A\HF=-155.6997953\MP2=-155.
 9253596\RMSD=3.321e-09\PG=C01 [X(C4H6)]\\@

 Normal termination of Gaussian 09 at Wed Aug 26 18:57:24 2020.
