 Gaussian 09, Revision D.01,
 Gaussian 09:  ES64L-G09RevD.01 24-Apr-2013

 --------------------
 #p B2PLYPD3/Def2QZVP
 --------------------

 ---------
 butadiene
 ---------
 Symbolic Z-matrix:
 Charge =  0 Multiplicity = 1

                         Standard orientation:
 ---------------------------------------------------------------------
 Center     Atomic      Atomic             Coordinates (Angstroms)
 Number     Number       Type             X           Y           Z
 ---------------------------------------------------------------------
      1          6           0       -1.800502   -0.108653    0.032385
      2          6           0       -0.588350    0.384473   -0.073151
      3          6           0        0.607391   -0.435813   -0.063601
      4          6           0        1.817914    0.125538    0.023768
      5          1           0       -2.733369    0.483341    0.162904
      6          1           0       -2.003130   -1.103543    0.107193
      7          1           0       -0.584342    1.479918   -0.115851
      8          1           0        0.472711   -1.437248    0.021788
      9          1           0        1.872377    1.249104    0.228089
     10          1           0        2.757034   -0.464847    0.079468
 ---------------------------------------------------------------------

 SCF Done:  E(RB2PLYPD3) =  -155.684000565     A.U. after   11 cycles
 E2(B2PLYPD3) =    -0.2256302829D+00 E(B2PLYPD3) =    -0.15590963084800D+03

 The electronic state is 1-A.
 Alpha  occ. eigenvalues --  -10.62480 -10.62148 -10.62023 -10.60478  -0.93555
 Alpha  occ. eigenvalues --   -0.85112  -0.69668  -0.65178  -0.55266  -0.53606
 Alpha  occ. eigenvalues --   -0.46588  -0.44802  -0.41298  -0.38270  -0.27729
 Alpha virt. eigenvalues --    0.01948   0.06934   0.07526   0.07948   0.09382
 Alpha virt. eigenvalues --    0.11677   0.12611   0.14496   0.15719   0.16587
 Alpha virt. eigenvalues --    0.18782   0.20097   0.21492   0.23228   0.23783

 Mulliken charges:
               1
     1  C   -0.168752
     2  C   -0.012403
     3  C   -0.058642
     4  C   -0.160231
     5  H    0.068455
     6  H    0.057898
     7  H    0.056717
     8  H    0.074107
     9  H    0.062014
    10  H    0.080837
 Sum of Mulliken charges =   0.00000

 Dipole moment (field-independent basis, Debye):
    X=             -0.0502    Y=             -0.1184    Z=              0.3406  Tot=              0.3641
 Quadrupole moment (field-independent basis, Debye-Ang):
   XX=            -23.6220   YY=            -23.1990   ZZ=            -29.0582
   XY=             -0.0659   XZ=              0.0414   YZ=              0.0559

 1\1\GINC-NODE20\SP\RB2PLYPD3-FC\def2QZVP\C4H6\BOITTIER\26-Aug-2020\0\\
 #p B2PLYPD3/Def2QZVP\\butadiene\\0,1\C,0,-3.810806,0.204612,-0.021209\
 C,0,-2.703947,-0.491415,0.097253\C,0,-1.382645,0.105409,0.070399\C,0,-
 0.289915,-0.661893,-0.002423\H,0,-4.833577,-0.216965,-0.139296\H,0,-3.
 835568,1.217653,-0.119171\H,0,-2.892477,-1.569229,0.165168\H,0,-1.3393
 97,1.112701,-0.038201\H,0,-0.434399,-1.78191,-0.18075\H,0,0.738217,-0.
 247263,-0.070461\\Version=ES64L-G09RevD.01\State=1-A\HF=-155.6840006\M
 P2=-155.9096308\RMSD=9.316e-09\PG=C01 [X(C4H6)]\\@

 Normal termination of Gaussian 09 at Wed Aug 26 13:00:00 2020.
