 Gaussian 09, Revision D.01,
 Gaussian 09:  ES64L-G09RevD.01 24-Apr-2013

 --------------------
 #p B2PLYPD3/Def2QZVP
 --------------------

 ---------
 butadiene
 ---------
 Symbolic Z-matrix:
 Charge =  0 Multiplicity = 1

                         Standard orientation:
 ---------------------------------------------------------------------
 Center     Atomic      Atomic             Coordinates (Angstroms)
 Number     Number       Type             X           Y           Z
 ---------------------------------------------------------------------
      1          6           0       -1.800717   -0.146060   -0.035661
      2          6           0       -0.575337    0.421105    0.058943
      3          6           0        0.579362   -0.343459   -0.012434
      4          6           0        1.826859    0.074611   -0.009391
      5          1           0       -2.734685    0.438690   -0.046623
      6          1           0       -1.981076   -1.180409   -0.160643
      7          1           0       -0.549133    1.524215    0.168863
      8          1           0        0.452794   -1.365909    0.286579
      9          1           0        1.915721    1.144077   -0.224066
     10          1           0        2.715373   -0.597845   -0.032847
 ---------------------------------------------------------------------

 SCF Done:  E(RB2PLYPD3) =  -155.684633122     A.U. after   11 cycles
 E2(B2PLYPD3) =    -0.2267354846D+00 E(B2PLYPD3) =    -0.15591136860708D+03

 The electronic state is 1-A.
 Alpha  occ. eigenvalues --  -10.62690 -10.61822 -10.61558 -10.61280  -0.94247
 Alpha  occ. eigenvalues --   -0.84888  -0.70629  -0.63990  -0.55114  -0.53815
 Alpha  occ. eigenvalues --   -0.46743  -0.44543  -0.41599  -0.38184  -0.27446
 Alpha virt. eigenvalues --    0.01196   0.07130   0.07445   0.07738   0.09552
 Alpha virt. eigenvalues --    0.11682   0.12475   0.14775   0.15046   0.16520
 Alpha virt. eigenvalues --    0.18555   0.19502   0.21440   0.23096   0.23650

 Mulliken charges:
               1
     1  C   -0.172063
     2  C   -0.036986
     3  C   -0.015567
     4  C   -0.182022
     5  H    0.075459
     6  H    0.069321
     7  H    0.055259
     8  H    0.061747
     9  H    0.056377
    10  H    0.088476
 Sum of Mulliken charges =   0.00000

 Dipole moment (field-independent basis, Debye):
    X=             -0.1196    Y=             -0.0559    Z=              0.0091  Tot=              0.1324
 Quadrupole moment (field-independent basis, Debye-Ang):
   XX=            -23.5013   YY=            -23.4716   ZZ=            -28.9944
   XY=             -0.1712   XZ=              0.0626   YZ=             -0.1864

 1\1\GINC-NODE32\SP\RB2PLYPD3-FC\def2QZVP\C4H6\BOITTIER\26-Aug-2020\0\\
 #p B2PLYPD3/Def2QZVP\\butadiene\\0,1\C,0,-3.799773,0.25549,0.049551\C,
 0,-2.697395,-0.526932,-0.019455\C,0,-1.423308,0.018834,0.023268\C,0,-0
 .271785,-0.617375,0.039751\H,0,-4.823869,-0.150104,0.082269\H,0,-3.789
 827,1.309581,0.13214\H,0,-2.871293,-1.620159,-0.084527\H,0,-1.364843,1
 .034461,-0.317196\H,0,-0.376267,-1.675793,0.297773\H,0,0.723615,-0.115
 998,0.037774\\Version=ES64L-G09RevD.01\State=1-A\HF=-155.6846331\MP2=-
 155.9113686\RMSD=8.090e-09\PG=C01 [X(C4H6)]\\@

 Normal termination of Gaussian 09 at Wed Aug 26 14:19:09 2020.
