 Gaussian 09, Revision D.01,
 Gaussian 09:  ES64L-G09RevD.01 24-Apr-2013

 --------------------
 #p B2PLYPD3/Def2QZVP
 --------------------

 ---------
 butadiene
 ---------
 Symbolic Z-matrix:
 Charge =  0 Multiplicity = 1

                         Standard orientation:
 ---------------------------------------------------------------------
 Center     Atomic      Atomic             Coordinates (Angstroms)
 Number     Number       Type             X           Y           Z
 ---------------------------------------------------------------------
      1          6           0        1.844386   -0.122719   -0.023645
      2          6           0        0.612927    0.410473    0.035416
      3          6           0       -0.620866   -0.395713    0.024520
      4          6           0       -1.849005    0.108023   -0.021417
      5          1           0        2.735789    0.530824   -0.054316
      6          1           0        2.003046   -1.189965    0.017681
      7          1           0        0.521788    1.484630    0.001005
      8          1           0       -0.448362   -1.472005   -0.016095
      9          1           0       -2.018926    1.181109   -0.016268
     10          1           0       -2.717986   -0.534976   -0.021248
 ---------------------------------------------------------------------

 SCF Done:  E(RB2PLYPD3) =  -155.700061448     A.U. after   11 cycles
 E2(B2PLYPD3) =    -0.2258308554D+00 E(B2PLYPD3) =    -0.15592589230376D+03

 The electronic state is 1-A.
 Alpha  occ. eigenvalues --  -10.62724 -10.62671 -10.61863 -10.61500  -0.92658
 Alpha  occ. eigenvalues --   -0.84900  -0.69792  -0.64070  -0.54256  -0.53901
 Alpha  occ. eigenvalues --   -0.46657  -0.45691  -0.40917  -0.37895  -0.27830
 Alpha virt. eigenvalues --    0.01827   0.06979   0.07421   0.08031   0.09447
 Alpha virt. eigenvalues --    0.11685   0.12360   0.14636   0.15849   0.16013
 Alpha virt. eigenvalues --    0.18843   0.20364   0.21462   0.23032   0.23800

 Mulliken charges:
               1
     1  C   -0.176086
     2  C   -0.033730
     3  C   -0.033373
     4  C   -0.173470
     5  H    0.082585
     6  H    0.067797
     7  H    0.057286
     8  H    0.054814
     9  H    0.067279
    10  H    0.086898
 Sum of Mulliken charges =   0.00000

 Dipole moment (field-independent basis, Debye):
    X=              0.0004    Y=              0.0060    Z=             -0.0347  Tot=              0.0352
 Quadrupole moment (field-independent basis, Debye-Ang):
   XX=            -23.5166   YY=            -23.0586   ZZ=            -29.3407
   XY=             -0.1434   XZ=             -0.0310   YZ=             -0.0488

 1\1\GINC-NODE22\SP\RB2PLYPD3-FC\def2QZVP\C4H6\BOITTIER\26-Aug-2020\0\\
 #p B2PLYPD3/Def2QZVP\\butadiene\\0,1\C,0,-3.847251,0.231136,-0.007408\
 C,0,-2.729258,-0.509545,0.068462\C,0,-1.37243,0.065248,0.037938\C,0,-0
 .252809,-0.648714,0.008041\H,0,-4.840224,-0.255127,-0.021948\H,0,-3.81
 4646,1.310344,0.004545\H,0,-2.829521,-1.583429,0.063483\H,0,-1.352095,
 1.153579,-0.032291\H,0,-0.275225,-1.734397,0.042726\H,0,0.71614,-0.169
 689,-0.007664\\Version=ES64L-G09RevD.01\State=1-A\HF=-155.7000614\MP2=
 -155.9258923\RMSD=5.227e-09\PG=C01 [X(C4H6)]\\@

 Normal termination of Gaussian 09 at Wed Aug 26 18:35:13 2020.
