 Gaussian 09, Revision D.01,
 Gaussian 09:  ES64L-G09RevD.01 24-Apr-2013

 --------------------
 #p B2PLYPD3/Def2QZVP
 --------------------

 ---------
 butadiene
 ---------
 Symbolic Z-matrix:
 Charge =  0 Multiplicity = 1

                         Standard orientation:
 ---------------------------------------------------------------------
 Center     Atomic      Atomic             Coordinates (Angstroms)
 Number     Number       Type             X           Y           Z
 ---------------------------------------------------------------------
      1          6           0       -1.850644   -0.127414    0.036213
      2          6           0       -0.619042    0.378436   -0.112625
      3          6           0        0.609673   -0.394578   -0.040717
      4          6           0        1.833290    0.111842    0.049585
      5          1           0       -2.514514    0.640353    0.138731
      6          1           0       -2.081099   -1.208639    0.229285
      7          1           0       -0.547504    1.544530   -0.057798
      8          1           0        0.562107   -1.483120   -0.127700
      9          1           0        1.979286    1.210368    0.206673
     10          1           0        2.762061   -0.513206    0.016071
 ---------------------------------------------------------------------

 SCF Done:  E(RB2PLYPD3) =  -155.681658920     A.U. after   11 cycles
 E2(B2PLYPD3) =    -0.2269551399D+00 E(B2PLYPD3) =    -0.15590861406000D+03

 The electronic state is 1-A.
 Alpha  occ. eigenvalues --  -10.63482 -10.62494 -10.62113 -10.61390  -0.92853
 Alpha  occ. eigenvalues --   -0.85289  -0.69754  -0.62591  -0.54610  -0.53594
 Alpha  occ. eigenvalues --   -0.45904  -0.45055  -0.40640  -0.38103  -0.27798
 Alpha virt. eigenvalues --    0.01583   0.06908   0.07152   0.07770   0.09579
 Alpha virt. eigenvalues --    0.11431   0.12203   0.14615   0.15651   0.16239
 Alpha virt. eigenvalues --    0.18805   0.20172   0.21186   0.21968   0.23910

 Mulliken charges:
               1
     1  C   -0.168795
     2  C   -0.028630
     3  C   -0.031917
     4  C   -0.168887
     5  H    0.085490
     6  H    0.077284
     7  H    0.037590
     8  H    0.055699
     9  H    0.059223
    10  H    0.082941
 Sum of Mulliken charges =   0.00000

 Dipole moment (field-independent basis, Debye):
    X=              0.0100    Y=             -0.0391    Z=              0.2892  Tot=              0.2920
 Quadrupole moment (field-independent basis, Debye-Ang):
   XX=            -24.0614   YY=            -22.9576   ZZ=            -29.3076
   XY=             -0.0929   XZ=             -0.5856   YZ=              0.1960

 1\1\GINC-NODE36\SP\RB2PLYPD3-FC\def2QZVP\C4H6\BOITTIER\26-Aug-2020\0\\
 #p B2PLYPD3/Def2QZVP\\butadiene\\0,1\C,0,-3.849249,0.229773,-0.029991\
 C,0,-2.72559,-0.481498,0.132377\C,0,-1.380371,0.063551,0.056408\C,0,-0
 .26399,-0.650348,-0.020373\H,0,-4.636923,-0.411438,-0.125481\H,0,-3.88
 6408,1.331727,-0.239155\H,0,-2.859038,-1.642797,0.093987\H,0,-1.236983
 ,1.144775,0.128146\H,0,-0.312014,-1.759634,-0.161544\H,0,0.759722,-0.1
 96976,0.009501\\Version=ES64L-G09RevD.01\State=1-A\HF=-155.6816589\MP2
 =-155.9086141\RMSD=9.980e-09\PG=C01 [X(C4H6)]\\@

 Normal termination of Gaussian 09 at Wed Aug 26 13:09:39 2020.
