 Gaussian 09, Revision D.01,
 Gaussian 09:  ES64L-G09RevD.01 24-Apr-2013

 --------------------
 #p B2PLYPD3/Def2QZVP
 --------------------

 ---------
 butadiene
 ---------
 Symbolic Z-matrix:
 Charge =  0 Multiplicity = 1

                         Standard orientation:
 ---------------------------------------------------------------------
 Center     Atomic      Atomic             Coordinates (Angstroms)
 Number     Number       Type             X           Y           Z
 ---------------------------------------------------------------------
      1          6           0        1.827642   -0.147950   -0.053958
      2          6           0        0.603363    0.477295    0.059214
      3          6           0       -0.612326   -0.369587    0.014444
      4          6           0       -1.820123    0.076025   -0.015940
      5          1           0        2.774419    0.359811   -0.077155
      6          1           0        1.793552   -1.271711   -0.026775
      7          1           0        0.474359    1.576464    0.107933
      8          1           0       -0.472752   -1.503565    0.215670
      9          1           0       -1.943361    1.223727   -0.096288
     10          1           0       -2.617556   -0.599428   -0.145954
 ---------------------------------------------------------------------

 SCF Done:  E(RB2PLYPD3) =  -155.680092034     A.U. after   11 cycles
 E2(B2PLYPD3) =    -0.2273552799D+00 E(B2PLYPD3) =    -0.15590744731390D+03

 The electronic state is 1-A.
 Alpha  occ. eigenvalues --  -10.63836 -10.62666 -10.62602 -10.61015  -0.92795
 Alpha  occ. eigenvalues --   -0.84799  -0.69188  -0.62640  -0.54735  -0.53068
 Alpha  occ. eigenvalues --   -0.46408  -0.44482  -0.41009  -0.37587  -0.27880
 Alpha virt. eigenvalues --    0.01970   0.06731   0.07165   0.07942   0.09095
 Alpha virt. eigenvalues --    0.11572   0.12418   0.14114   0.15186   0.16453
 Alpha virt. eigenvalues --    0.18516   0.19396   0.21473   0.22478   0.24669

 Mulliken charges:
               1
     1  C   -0.166042
     2  C   -0.057132
     3  C   -0.000465
     4  C   -0.177033
     5  H    0.091132
     6  H    0.061996
     7  H    0.058769
     8  H    0.043222
     9  H    0.053056
    10  H    0.092497
 Sum of Mulliken charges =   0.00000

 Dipole moment (field-independent basis, Debye):
    X=              0.0615    Y=              0.0142    Z=              0.0157  Tot=              0.0651
 Quadrupole moment (field-independent basis, Debye-Ang):
   XX=            -23.9887   YY=            -23.0606   ZZ=            -29.4125
   XY=              0.2943   XZ=              0.2345   YZ=             -0.1297

 1\1\GINC-NODE38\SP\RB2PLYPD3-FC\def2QZVP\C4H6\BOITTIER\26-Aug-2020\0\\
 #p B2PLYPD3/Def2QZVP\\butadiene\\0,1\C,0,-3.824419,0.255489,-0.031419\
 C,0,-2.729439,-0.573657,0.0956\C,0,-1.383409,0.043674,0.030642\C,0,-0.
 273554,-0.609061,0.009993\H,0,-4.846139,-0.077248,-0.042393\H,0,-3.592
 095,1.355836,-0.030277\H,0,-2.796544,-1.676923,0.16969\H,0,-1.319411,1
 .188734,0.205629\H,0,-0.355504,-1.761993,-0.043823\H,0,0.630117,-0.088
 388,-0.136013\\Version=ES64L-G09RevD.01\State=1-A\HF=-155.680092\MP2=-
 155.9074473\RMSD=9.498e-09\PG=C01 [X(C4H6)]\\@

 Normal termination of Gaussian 09 at Wed Aug 26 14:29:12 2020.
