 Gaussian 09, Revision D.01,
 Gaussian 09:  ES64L-G09RevD.01 24-Apr-2013

 --------------------
 #p B2PLYPD3/Def2QZVP
 --------------------

 ---------
 butadiene
 ---------
 Symbolic Z-matrix:
 Charge =  0 Multiplicity = 1

                         Standard orientation:
 ---------------------------------------------------------------------
 Center     Atomic      Atomic             Coordinates (Angstroms)
 Number     Number       Type             X           Y           Z
 ---------------------------------------------------------------------
      1          6           0        1.857284    0.140774    0.005629
      2          6           0        0.634206   -0.428576    0.031090
      3          6           0       -0.606398    0.344461   -0.041448
      4          6           0       -1.850783   -0.114270   -0.030071
      5          1           0        2.666134   -0.481298   -0.096175
      6          1           0        1.848296    1.208017    0.084440
      7          1           0        0.537079   -1.510915   -0.050466
      8          1           0       -0.429126    1.463924    0.048473
      9          1           0       -2.264087   -1.066553    0.176908
     10          1           0       -2.564148    0.732492    0.045622
 ---------------------------------------------------------------------

 SCF Done:  E(RB2PLYPD3) =  -155.683493811     A.U. after   11 cycles
 E2(B2PLYPD3) =    -0.2265368826D+00 E(B2PLYPD3) =    -0.15591003069364D+03

 The electronic state is 1-A.
 Alpha  occ. eigenvalues --  -10.63162 -10.62538 -10.61436 -10.61137  -0.92788
 Alpha  occ. eigenvalues --   -0.85343  -0.70452  -0.63500  -0.55969  -0.52806
 Alpha  occ. eigenvalues --   -0.47664  -0.45191  -0.40211  -0.37855  -0.27780
 Alpha virt. eigenvalues --    0.01407   0.06810   0.07433   0.08059   0.09366
 Alpha virt. eigenvalues --    0.11552   0.12458   0.15153   0.15479   0.16138
 Alpha virt. eigenvalues --    0.18685   0.20062   0.21604   0.22577   0.24479

 Mulliken charges:
               1
     1  C   -0.182429
     2  C   -0.035002
     3  C   -0.015329
     4  C   -0.173280
     5  H    0.097766
     6  H    0.071268
     7  H    0.052670
     8  H    0.038999
     9  H    0.080317
    10  H    0.065020
 Sum of Mulliken charges =   0.00000

 Dipole moment (field-independent basis, Debye):
    X=              0.0581    Y=             -0.0798    Z=              0.1988  Tot=              0.2219
 Quadrupole moment (field-independent basis, Debye-Ang):
   XX=            -23.9513   YY=            -23.0322   ZZ=            -29.2298
   XY=              0.2308   XZ=             -0.8643   YZ=              0.1785

 1\1\GINC-NODE33\SP\RB2PLYPD3-FC\def2QZVP\C4H6\BOITTIER\26-Aug-2020\0\\
 #p B2PLYPD3/Def2QZVP\\butadiene\\0,1\C,0,-3.849878,0.258183,0.017226\C
 ,0,-2.747574,-0.520037,0.011926\C,0,-1.388733,0.022622,0.043815\C,0,-0
 .245667,-0.650019,0.047492\H,0,-4.75489,-0.205187,0.150711\H,0,-3.6527
 5,1.302365,-0.109748\H,0,-2.842921,-1.5978,0.14184\H,0,-1.365775,1.150
 761,-0.095766\H,0,-0.010419,-1.668707,-0.118149\H,0,0.605555,0.052356,
 -0.069623\\Version=ES64L-G09RevD.01\State=1-A\HF=-155.6834938\MP2=-155
 .9100307\RMSD=8.672e-09\PG=C01 [X(C4H6)]\\@

 Normal termination of Gaussian 09 at Wed Aug 26 14:04:46 2020.
