 Gaussian 09, Revision D.01,
 Gaussian 09:  ES64L-G09RevD.01 24-Apr-2013

 --------------------
 #p B2PLYPD3/Def2QZVP
 --------------------

 ---------
 butadiene
 ---------
 Symbolic Z-matrix:
 Charge =  0 Multiplicity = 1

                         Standard orientation:
 ---------------------------------------------------------------------
 Center     Atomic      Atomic             Coordinates (Angstroms)
 Number     Number       Type             X           Y           Z
 ---------------------------------------------------------------------
      1          6           0       -1.844682   -0.119439    0.010582
      2          6           0       -0.611248    0.392265   -0.009126
      3          6           0        0.611202   -0.394657   -0.034515
      4          6           0        1.839391    0.108206    0.003282
      5          1           0       -2.694931    0.538269    0.048895
      6          1           0       -2.023631   -1.157086    0.012319
      7          1           0       -0.506856    1.490962   -0.026808
      8          1           0        0.516169   -1.467805    0.021995
      9          1           0        2.002179    1.171514    0.039506
     10          1           0        2.739091   -0.494104    0.082754
 ---------------------------------------------------------------------

 SCF Done:  E(RB2PLYPD3) =  -155.700211297     A.U. after   11 cycles
 E2(B2PLYPD3) =    -0.2253746355D+00 E(B2PLYPD3) =    -0.15592558593289D+03

 The electronic state is 1-A.
 Alpha  occ. eigenvalues --  -10.62745 -10.62371 -10.61374 -10.61141  -0.92993
 Alpha  occ. eigenvalues --   -0.85175  -0.70294  -0.64104  -0.54606  -0.54379
 Alpha  occ. eigenvalues --   -0.46716  -0.45628  -0.41059  -0.38172  -0.27793
 Alpha virt. eigenvalues --    0.01762   0.07000   0.07512   0.08004   0.09698
 Alpha virt. eigenvalues --    0.11657   0.12509   0.14739   0.15794   0.16328
 Alpha virt. eigenvalues --    0.18851   0.20412   0.21831   0.22755   0.23792

 Mulliken charges:
               1
     1  C   -0.177892
     2  C   -0.030236
     3  C   -0.030242
     4  C   -0.169420
     5  H    0.085531
     6  H    0.070625
     7  H    0.051522
     8  H    0.055502
     9  H    0.061100
    10  H    0.083508
 Sum of Mulliken charges =   0.00000

 Dipole moment (field-independent basis, Debye):
    X=              0.0084    Y=             -0.0148    Z=              0.1337  Tot=              0.1348
 Quadrupole moment (field-independent basis, Debye-Ang):
   XX=            -23.3193   YY=            -23.1516   ZZ=            -29.2028
   XY=              0.0978   XZ=              0.2125   YZ=             -0.0592

 1\1\GINC-NODE31\SP\RB2PLYPD3-FC\def2QZVP\C4H6\BOITTIER\26-Aug-2020\0\\
 #p B2PLYPD3/Def2QZVP\\butadiene\\0,1\C,0,-3.846419,0.226361,0.006507\C
 ,0,-2.722631,-0.494261,0.04381\C,0,-1.380307,0.064702,0.04258\C,0,-0.2
 60457,-0.648225,0.02211\H,0,-4.799656,-0.271688,-0.009522\H,0,-3.83933
 4,1.27865,-0.030581\H,0,-2.813787,-1.592897,0.098901\H,0,-1.284678,1.1
 3525,-0.050445\H,0,-0.288203,-1.724174,0.022129\H,0,0.73098,-0.217357,
 -0.077685\\Version=ES64L-G09RevD.01\State=1-A\HF=-155.7002113\MP2=-155
 .9255859\RMSD=4.977e-09\PG=C01 [X(C4H6)]\\@

 Normal termination of Gaussian 09 at Wed Aug 26 21:08:10 2020.
