 Gaussian 09, Revision D.01,
 Gaussian 09:  ES64L-G09RevD.01 24-Apr-2013

 --------------------
 #p B2PLYPD3/Def2QZVP
 --------------------

 ---------
 butadiene
 ---------
 Symbolic Z-matrix:
 Charge =  0 Multiplicity = 1

                         Standard orientation:
 ---------------------------------------------------------------------
 Center     Atomic      Atomic             Coordinates (Angstroms)
 Number     Number       Type             X           Y           Z
 ---------------------------------------------------------------------
      1          6           0       -1.832211   -0.122739    0.015215
      2          6           0       -0.602832    0.411869   -0.020210
      3          6           0        0.607245   -0.385217   -0.034023
      4          6           0        1.834164    0.105763    0.013777
      5          1           0       -2.709139    0.491590    0.105978
      6          1           0       -1.990235   -1.174003    0.002355
      7          1           0       -0.522930    1.503055   -0.067044
      8          1           0        0.451415   -1.460912   -0.023136
      9          1           0        2.038659    1.140967    0.038762
     10          1           0        2.694029   -0.558754    0.094529
 ---------------------------------------------------------------------

 SCF Done:  E(RB2PLYPD3) =  -155.700221244     A.U. after   11 cycles
 E2(B2PLYPD3) =    -0.2253521231D+00 E(B2PLYPD3) =    -0.15592557336687D+03

 The electronic state is 1-A.
 Alpha  occ. eigenvalues --  -10.62622 -10.62319 -10.61264 -10.61082  -0.93115
 Alpha  occ. eigenvalues --   -0.85093  -0.70342  -0.64206  -0.54624  -0.54320
 Alpha  occ. eigenvalues --   -0.46641  -0.45799  -0.41219  -0.38160  -0.27687
 Alpha virt. eigenvalues --    0.01797   0.07009   0.07478   0.08042   0.09649
 Alpha virt. eigenvalues --    0.11699   0.12493   0.14838   0.15809   0.16233
 Alpha virt. eigenvalues --    0.18800   0.20457   0.21802   0.22932   0.23780

 Mulliken charges:
               1
     1  C   -0.177712
     2  C   -0.031351
     3  C   -0.027948
     4  C   -0.174342
     5  H    0.084096
     6  H    0.065725
     7  H    0.055055
     8  H    0.054966
     9  H    0.069807
    10  H    0.081703
 Sum of Mulliken charges =   0.00000

 Dipole moment (field-independent basis, Debye):
    X=             -0.0180    Y=              0.0089    Z=              0.1006  Tot=              0.1026
 Quadrupole moment (field-independent basis, Debye-Ang):
   XX=            -23.4765   YY=            -23.0712   ZZ=            -29.1752
   XY=              0.2174   XZ=              0.0730   YZ=             -0.0172

 1\1\GINC-NODE25\SP\RB2PLYPD3-FC\def2QZVP\C4H6\BOITTIER\26-Aug-2020\0\\
 #p B2PLYPD3/Def2QZVP\\butadiene\\0,1\C,0,-3.833147,0.234879,0.000583\C
 ,0,-2.719507,-0.510269,0.055299\C,0,-1.38598,0.056649,0.043836\C,0,-0.
 267336,-0.647919,0.013912\H,0,-4.806516,-0.214709,-0.07059\H,0,-3.7998
 85,1.297272,-0.021922\H,0,-2.836496,-1.595912,0.13871\H,0,-1.346291,1.
 141883,-0.003217\H,0,-0.252059,-1.703266,0.023815\H,0,0.697418,-0.1516
 05,-0.088033\\Version=ES64L-G09RevD.01\State=1-A\HF=-155.7002212\MP2=-
 155.9255734\RMSD=5.037e-09\PG=C01 [X(C4H6)]\\@

 Normal termination of Gaussian 09 at Wed Aug 26 09:43:04 2020.
