 Gaussian 09, Revision D.01,
 Gaussian 09:  ES64L-G09RevD.01 24-Apr-2013

 --------------------
 #p B2PLYPD3/Def2QZVP
 --------------------

 ---------
 butadiene
 ---------
 Symbolic Z-matrix:
 Charge =  0 Multiplicity = 1

                         Standard orientation:
 ---------------------------------------------------------------------
 Center     Atomic      Atomic             Coordinates (Angstroms)
 Number     Number       Type             X           Y           Z
 ---------------------------------------------------------------------
      1          6           0        1.860671    0.092353   -0.003283
      2          6           0        0.613633   -0.399024   -0.017951
      3          6           0       -0.602940    0.416404   -0.012778
      4          6           0       -1.853384   -0.120645    0.003963
      5          1           0        2.716829   -0.516335   -0.017951
      6          1           0        2.033942    1.180042    0.146570
      7          1           0        0.489627   -1.476806    0.017178
      8          1           0       -0.487917    1.536544   -0.049201
      9          1           0       -2.120014   -1.168327    0.077642
     10          1           0       -2.740349    0.510350    0.006050
 ---------------------------------------------------------------------

 SCF Done:  E(RB2PLYPD3) =  -155.694854830     A.U. after   11 cycles
 E2(B2PLYPD3) =    -0.2267479010D+00 E(B2PLYPD3) =    -0.15592160273130D+03

 The electronic state is 1-A.
 Alpha  occ. eigenvalues --  -10.63743 -10.62814 -10.62132 -10.61570  -0.92380
 Alpha  occ. eigenvalues --   -0.84502  -0.70347  -0.63680  -0.54946  -0.53190
 Alpha  occ. eigenvalues --   -0.46806  -0.45079  -0.41120  -0.37707  -0.27474
 Alpha virt. eigenvalues --    0.01323   0.06986   0.07318   0.07995   0.09296
 Alpha virt. eigenvalues --    0.11472   0.12437   0.14648   0.15855   0.16342
 Alpha virt. eigenvalues --    0.18882   0.20455   0.21864   0.22747   0.23209

 Mulliken charges:
               1
     1  C   -0.171506
     2  C   -0.032049
     3  C   -0.037955
     4  C   -0.170624
     5  H    0.088852
     6  H    0.060054
     7  H    0.058683
     8  H    0.057523
     9  H    0.068853
    10  H    0.078169
 Sum of Mulliken charges =   0.00000

 Dipole moment (field-independent basis, Debye):
    X=             -0.0314    Y=             -0.0620    Z=              0.1507  Tot=              0.1659
 Quadrupole moment (field-independent basis, Debye-Ang):
   XX=            -23.2141   YY=            -23.1750   ZZ=            -29.4362
   XY=              0.2722   XZ=              0.0908   YZ=              0.0071

 1\1\GINC-NODE09\SP\RB2PLYPD3-FC\def2QZVP\C4H6\BOITTIER\26-Aug-2020\0\\
 #p B2PLYPD3/Def2QZVP\\butadiene\\0,1\C,0,-3.86313,0.213763,0.017267\C,
 0,-2.725636,-0.494662,0.049079\C,0,-1.381548,0.086552,0.024239\C,0,-0.
 249051,-0.668273,0.025948\H,0,-4.815306,-0.229198,0.046751\H,0,-3.8369
 73,1.310194,-0.163567\H,0,-2.798905,-1.577639,0.044595\H,0,-1.291772,1
 .209579,0.02885\H,0,-0.176699,-1.748565,-0.017536\H,0,0.737492,-0.2086
 06,0.008495\\Version=ES64L-G09RevD.01\State=1-A\HF=-155.6948548\MP2=-1
 55.9216027\RMSD=5.884e-09\PG=C01 [X(C4H6)]\\@

 Normal termination of Gaussian 09 at Wed Aug 26 09:01:06 2020.
