 Gaussian 09, Revision D.01,
 Gaussian 09:  ES64L-G09RevD.01 24-Apr-2013

 --------------------
 #p B2PLYPD3/Def2QZVP
 --------------------

 ---------
 butadiene
 ---------
 Symbolic Z-matrix:
 Charge =  0 Multiplicity = 1

                         Standard orientation:
 ---------------------------------------------------------------------
 Center     Atomic      Atomic             Coordinates (Angstroms)
 Number     Number       Type             X           Y           Z
 ---------------------------------------------------------------------
      1          6           0        1.851661    0.087169   -0.034588
      2          6           0        0.608846   -0.377813    0.035495
      3          6           0       -0.612083    0.440420    0.037255
      4          6           0       -1.836114   -0.131595   -0.023970
      5          1           0        2.741130   -0.597061    0.012412
      6          1           0        1.968019    1.175960   -0.019360
      7          1           0        0.388393   -1.433776   -0.016626
      8          1           0       -0.436228    1.487399   -0.008646
      9          1           0       -1.982229   -1.212036   -0.015024
     10          1           0       -2.752946    0.470428   -0.037901
 ---------------------------------------------------------------------

 SCF Done:  E(RB2PLYPD3) =  -155.695534932     A.U. after   11 cycles
 E2(B2PLYPD3) =    -0.2264377521D+00 E(B2PLYPD3) =    -0.15592197268396D+03

 The electronic state is 1-A.
 Alpha  occ. eigenvalues --  -10.62844 -10.62314 -10.62269 -10.61945  -0.92808
 Alpha  occ. eigenvalues --   -0.84570  -0.69806  -0.64338  -0.54186  -0.53326
 Alpha  occ. eigenvalues --   -0.47165  -0.45413  -0.40787  -0.37863  -0.27728
 Alpha virt. eigenvalues --    0.01640   0.06948   0.07338   0.08116   0.09327
 Alpha virt. eigenvalues --    0.11738   0.12381   0.14536   0.15678   0.15895
 Alpha virt. eigenvalues --    0.18705   0.20252   0.21423   0.23342   0.23669

 Mulliken charges:
               1
     1  C   -0.180219
     2  C   -0.017885
     3  C   -0.043849
     4  C   -0.172369
     5  H    0.089513
     6  H    0.061513
     7  H    0.052104
     8  H    0.059748
     9  H    0.068646
    10  H    0.082799
 Sum of Mulliken charges =   0.00000

 Dipole moment (field-independent basis, Debye):
    X=             -0.0956    Y=             -0.0119    Z=             -0.0211  Tot=              0.0986
 Quadrupole moment (field-independent basis, Debye-Ang):
   XX=            -23.6107   YY=            -23.1490   ZZ=            -29.3978
   XY=              0.2190   XZ=              0.1562   YZ=             -0.0259

 1\1\GINC-NODE29\SP\RB2PLYPD3-FC\def2QZVP\C4H6\BOITTIER\26-Aug-2020\0\\
 #p B2PLYPD3/Def2QZVP\\butadiene\\0,1\C,0,-3.856497,0.205122,0.052839\C
 ,0,-2.718539,-0.479036,0.001011\C,0,-1.369711,0.104297,-0.022738\C,0,-
 0.269233,-0.677564,0.05997\H,0,-4.855224,-0.307991,0.024639\H,0,-3.773
 954,1.295975,0.003211\H,0,-2.692664,-1.555301,0.086794\H,0,-1.35308,1.
 166729,-0.010135\H,0,-0.321067,-1.766351,0.085262\H,0,0.741438,-0.2512
 46,0.057769\\Version=ES64L-G09RevD.01\State=1-A\HF=-155.6955349\MP2=-1
 55.9219727\RMSD=6.138e-09\PG=C01 [X(C4H6)]\\@

 Normal termination of Gaussian 09 at Wed Aug 26 09:05:46 2020.
