 Gaussian 09, Revision D.01,
 Gaussian 09:  ES64L-G09RevD.01 24-Apr-2013

 --------------------
 #p B2PLYPD3/Def2QZVP
 --------------------

 ---------
 butadiene
 ---------
 Symbolic Z-matrix:
 Charge =  0 Multiplicity = 1

                         Standard orientation:
 ---------------------------------------------------------------------
 Center     Atomic      Atomic             Coordinates (Angstroms)
 Number     Number       Type             X           Y           Z
 ---------------------------------------------------------------------
      1          6           0       -1.842157    0.100954    0.034397
      2          6           0       -0.606761   -0.387887   -0.025745
      3          6           0        0.606995    0.413650   -0.030475
      4          6           0        1.840592   -0.127720    0.006209
      5          1           0       -2.771443   -0.491916    0.016839
      6          1           0       -1.898285    1.151977    0.090154
      7          1           0       -0.480228   -1.435421   -0.129024
      8          1           0        0.492010    1.491708   -0.120709
      9          1           0        1.952683   -1.229584    0.127988
     10          1           0        2.713248    0.519260    0.108429
 ---------------------------------------------------------------------

 SCF Done:  E(RB2PLYPD3) =  -155.696137232     A.U. after   11 cycles
 E2(B2PLYPD3) =    -0.2261198360D+00 E(B2PLYPD3) =    -0.15592225706766D+03

 The electronic state is 1-A.
 Alpha  occ. eigenvalues --  -10.62851 -10.62170 -10.62088 -10.61288  -0.93068
 Alpha  occ. eigenvalues --   -0.84856  -0.69835  -0.64339  -0.54281  -0.54028
 Alpha  occ. eigenvalues --   -0.46619  -0.45379  -0.41472  -0.37930  -0.27687
 Alpha virt. eigenvalues --    0.01638   0.07021   0.07471   0.07980   0.09449
 Alpha virt. eigenvalues --    0.11686   0.12557   0.14510   0.15744   0.16076
 Alpha virt. eigenvalues --    0.18707   0.20235   0.21432   0.22926   0.23836

 Mulliken charges:
               1
     1  C   -0.178304
     2  C   -0.022066
     3  C   -0.041091
     4  C   -0.173485
     5  H    0.090068
     6  H    0.060868
     7  H    0.056426
     8  H    0.056085
     9  H    0.065536
    10  H    0.085963
 Sum of Mulliken charges =   0.00000

 Dipole moment (field-independent basis, Debye):
    X=             -0.0244    Y=              0.0184    Z=              0.0539  Tot=              0.0620
 Quadrupole moment (field-independent basis, Debye-Ang):
   XX=            -23.5851   YY=            -23.1909   ZZ=            -29.2589
   XY=              0.1769   XZ=              0.3868   YZ=              0.0056

 1\1\GINC-NODE27\SP\RB2PLYPD3-FC\def2QZVP\C4H6\BOITTIER\26-Aug-2020\0\\
 #p B2PLYPD3/Def2QZVP\\butadiene\\0,1\C,0,-3.848068,0.208716,0.048296\C
 ,0,-2.717614,-0.490836,0.009721\C,0,-1.382102,0.084906,-0.015084\C,0,-
 0.262534,-0.662872,0.044797\H,0,-4.866946,-0.2123,0.04545\H,0,-3.71894
 ,1.254549,0.069949\H,0,-2.776865,-1.547123,-0.05921\H,0,-1.306325,1.16
 2915,-0.140492\H,0,-0.345303,-1.762773,0.202485\H,0,0.710167,-0.175933
 ,0.130253\\Version=ES64L-G09RevD.01\State=1-A\HF=-155.6961372\MP2=-155
 .9222571\RMSD=6.086e-09\PG=C01 [X(C4H6)]\\@

 Normal termination of Gaussian 09 at Wed Aug 26 09:12:39 2020.
