 Gaussian 09, Revision D.01,
 Gaussian 09:  ES64L-G09RevD.01 24-Apr-2013

 --------------------
 #p B2PLYPD3/Def2QZVP
 --------------------

 ---------
 butadiene
 ---------
 Symbolic Z-matrix:
 Charge =  0 Multiplicity = 1

                         Standard orientation:
 ---------------------------------------------------------------------
 Center     Atomic      Atomic             Coordinates (Angstroms)
 Number     Number       Type             X           Y           Z
 ---------------------------------------------------------------------
      1          6           0       -1.842975   -0.109632    0.000820
      2          6           0       -0.611950    0.400401   -0.002568
      3          6           0        0.613434   -0.389884   -0.025834
      4          6           0        1.849442    0.104980    0.017446
      5          1           0       -2.740160    0.488092   -0.006124
      6          1           0       -1.988129   -1.182665    0.104433
      7          1           0       -0.487280    1.494623   -0.056216
      8          1           0        0.463636   -1.471974   -0.028553
      9          1           0        2.023876    1.190901    0.074481
     10          1           0        2.680351   -0.554170   -0.027205
 ---------------------------------------------------------------------

 SCF Done:  E(RB2PLYPD3) =  -155.700056698     A.U. after   11 cycles
 E2(B2PLYPD3) =    -0.2257201782D+00 E(B2PLYPD3) =    -0.15592577687666D+03

 The electronic state is 1-A.
 Alpha  occ. eigenvalues --  -10.62716 -10.62589 -10.61551 -10.61519  -0.92886
 Alpha  occ. eigenvalues --   -0.85062  -0.70199  -0.63655  -0.54828  -0.53722
 Alpha  occ. eigenvalues --   -0.46965  -0.45447  -0.40827  -0.38096  -0.27839
 Alpha virt. eigenvalues --    0.01727   0.07030   0.07353   0.08054   0.09662
 Alpha virt. eigenvalues --    0.11647   0.12393   0.14672   0.15780   0.16204
 Alpha virt. eigenvalues --    0.18832   0.20296   0.21688   0.22703   0.23743

 Mulliken charges:
               1
     1  C   -0.173039
     2  C   -0.026903
     3  C   -0.030520
     4  C   -0.176619
     5  H    0.087140
     6  H    0.061174
     7  H    0.050211
     8  H    0.050812
     9  H    0.067108
    10  H    0.090637
 Sum of Mulliken charges =   0.00000

 Dipole moment (field-independent basis, Debye):
    X=             -0.0147    Y=             -0.0121    Z=              0.0422  Tot=              0.0463
 Quadrupole moment (field-independent basis, Debye-Ang):
   XX=            -23.3718   YY=            -23.1921   ZZ=            -29.2680
   XY=              0.0816   XZ=             -0.0915   YZ=             -0.0652

 1\1\GINC-NODE05\SP\RB2PLYPD3-FC\def2QZVP\C4H6\BOITTIER\26-Aug-2020\0\\
 #p B2PLYPD3/Def2QZVP\\butadiene\\0,1\C,0,-3.846541,0.223407,0.014331\C
 ,0,-2.726744,-0.498407,0.038966\C,0,-1.379571,0.059967,0.037701\C,0,-0
 .252327,-0.649463,0.015177\H,0,-4.836229,-0.203357,0.039893\H,0,-3.797
 575,1.30078,-0.127362\H,0,-2.79984,-1.594697,0.131415\H,0,-1.333163,1.
 150808,0.001943\H,0,-0.275383,-1.750389,-0.003146\H,0,0.683345,-0.1486
 24,0.038838\\Version=ES64L-G09RevD.01\State=1-A\HF=-155.7000567\MP2=-1
 55.9257769\RMSD=2.548e-09\PG=C01 [X(C4H6)]\\@

 Normal termination of Gaussian 09 at Wed Aug 26 17:37:11 2020.
