 Gaussian 09, Revision D.01,
 Gaussian 09:  ES64L-G09RevD.01 24-Apr-2013

 --------------------
 #p B2PLYPD3/Def2QZVP
 --------------------

 ---------
 butadiene
 ---------
 Symbolic Z-matrix:
 Charge =  0 Multiplicity = 1

                         Standard orientation:
 ---------------------------------------------------------------------
 Center     Atomic      Atomic             Coordinates (Angstroms)
 Number     Number       Type             X           Y           Z
 ---------------------------------------------------------------------
      1          6           0       -1.838327    0.099858    0.010269
      2          6           0       -0.607307   -0.389160   -0.027390
      3          6           0        0.605996    0.418323   -0.020242
      4          6           0        1.830452   -0.122054    0.020457
      5          1           0       -2.703117   -0.539526    0.116090
      6          1           0       -2.011488    1.182027   -0.003794
      7          1           0       -0.471600   -1.472683   -0.051034
      8          1           0        0.509856    1.492908   -0.018216
      9          1           0        1.991613   -1.198416    0.008273
     10          1           0        2.739852    0.493891    0.050114
 ---------------------------------------------------------------------

 SCF Done:  E(RB2PLYPD3) =  -155.700504189     A.U. after   11 cycles
 E2(B2PLYPD3) =    -0.2257227559D+00 E(B2PLYPD3) =    -0.15592622694496D+03

 The electronic state is 1-A.
 Alpha  occ. eigenvalues --  -10.62628 -10.62461 -10.61820 -10.61425  -0.92973
 Alpha  occ. eigenvalues --   -0.84916  -0.69823  -0.64047  -0.54494  -0.53877
 Alpha  occ. eigenvalues --   -0.46713  -0.45241  -0.41154  -0.38101  -0.27747
 Alpha virt. eigenvalues --    0.01861   0.07001   0.07381   0.08014   0.09555
 Alpha virt. eigenvalues --    0.11654   0.12422   0.14608   0.15865   0.16200
 Alpha virt. eigenvalues --    0.18795   0.20400   0.21604   0.22805   0.23785

 Mulliken charges:
               1
     1  C   -0.174604
     2  C   -0.026796
     3  C   -0.036460
     4  C   -0.171516
     5  H    0.086550
     6  H    0.062870
     7  H    0.054103
     8  H    0.058895
     9  H    0.065327
    10  H    0.081632
 Sum of Mulliken charges =   0.00000

 Dipole moment (field-independent basis, Debye):
    X=              0.0275    Y=             -0.0026    Z=              0.0589  Tot=              0.0650
 Quadrupole moment (field-independent basis, Debye-Ang):
   XX=            -23.5139   YY=            -23.0841   ZZ=            -29.2801
   XY=             -0.1045   XZ=             -0.1702   YZ=             -0.0278

 1\1\GINC-NODE37\SP\RB2PLYPD3-FC\def2QZVP\C4H6\BOITTIER\26-Aug-2020\0\\
 #p B2PLYPD3/Def2QZVP\\butadiene\\0,1\C,0,-3.842047,0.21176,0.032848\C,
 0,-2.718541,-0.490537,0.010924\C,0,-1.380361,0.08667,-0.006148\C,0,-0.
 272108,-0.662577,0.051828\H,0,-4.80671,-0.259061,0.157845\H,0,-3.81893
 6,1.306513,-0.014626\H,0,-2.778932,-1.581066,0.020731\H,0,-1.282748,1.
 160673,-0.037266\H,0,-0.306118,-1.75027,0.072882\H,0,0.732928,-0.21866
 9,0.06299\\Version=ES64L-G09RevD.01\State=1-A\HF=-155.7005042\MP2=-155
 .9262269\RMSD=5.237e-09\PG=C01 [X(C4H6)]\\@

 Normal termination of Gaussian 09 at Wed Aug 26 18:45:46 2020.
