 Gaussian 09, Revision D.01,
 Gaussian 09:  ES64L-G09RevD.01 24-Apr-2013

 --------------------
 #p B2PLYPD3/Def2QZVP
 --------------------

 ---------
 butadiene
 ---------
 Symbolic Z-matrix:
 Charge =  0 Multiplicity = 1

                         Standard orientation:
 ---------------------------------------------------------------------
 Center     Atomic      Atomic             Coordinates (Angstroms)
 Number     Number       Type             X           Y           Z
 ---------------------------------------------------------------------
      1          6           0        1.884630    0.056940    0.008469
      2          6           0        0.612195   -0.345995    0.000902
      3          6           0       -0.608594    0.430965   -0.061137
      4          6           0       -1.865682   -0.144431    0.062790
      5          1           0        2.745660   -0.600172   -0.116147
      6          1           0        2.132267    1.132871    0.250208
      7          1           0        0.336745   -1.392810   -0.127060
      8          1           0       -0.511518    1.618428   -0.049786
      9          1           0       -1.999826   -1.188047    0.139437
     10          1           0       -2.838624    0.444853   -0.162795
 ---------------------------------------------------------------------

 SCF Done:  E(RB2PLYPD3) =  -155.675979728     A.U. after   12 cycles
 E2(B2PLYPD3) =    -0.2288822308D+00 E(B2PLYPD3) =    -0.15590486195884D+03

 The electronic state is 1-A.
 Alpha  occ. eigenvalues --  -10.64729 -10.63235 -10.62902 -10.62495  -0.92472
 Alpha  occ. eigenvalues --   -0.84064  -0.70453  -0.62907  -0.54400  -0.52698
 Alpha  occ. eigenvalues --   -0.46626  -0.44984  -0.40183  -0.37642  -0.27393
 Alpha virt. eigenvalues --    0.00376   0.06893   0.07199   0.07732   0.09290
 Alpha virt. eigenvalues --    0.11419   0.12204   0.14460   0.15418   0.16239
 Alpha virt. eigenvalues --    0.18949   0.19537   0.21306   0.22658   0.22950

 Mulliken charges:
               1
     1  C   -0.176898
     2  C   -0.019788
     3  C   -0.037519
     4  C   -0.168629
     5  H    0.091985
     6  H    0.064164
     7  H    0.051015
     8  H    0.047454
     9  H    0.068428
    10  H    0.079788
 Sum of Mulliken charges =   0.00000

 Dipole moment (field-independent basis, Debye):
    X=             -0.0074    Y=             -0.1083    Z=             -0.0815  Tot=              0.1358
 Quadrupole moment (field-independent basis, Debye-Ang):
   XX=            -23.1362   YY=            -23.6647   ZZ=            -29.5268
   XY=              0.4229   XZ=              0.3245   YZ=              0.2249

 1\1\GINC-NODE18\SP\RB2PLYPD3-FC\def2QZVP\C4H6\BOITTIER\26-Aug-2020\0\\
 #p B2PLYPD3/Def2QZVP\\butadiene\\0,1\C,0,-3.892757,0.182932,0.005039\C
 ,0,-2.714455,-0.443233,0.037047\C,0,-1.372913,0.10155,0.073347\C,0,-0.
 241223,-0.696881,-0.018825\H,0,-4.858417,-0.301346,0.152264\H,0,-3.941
 677,1.274637,-0.283366\H,0,-2.633122,-1.516217,0.210711\H,0,-1.253104,
 1.285364,0.011291\H,0,-0.298666,-1.749828,-0.050545\H,0,0.822866,-0.28
 4611,0.187351\\Version=ES64L-G09RevD.01\State=1-A\HF=-155.6759797\MP2=
 -155.904862\RMSD=4.467e-09\PG=C01 [X(C4H6)]\\@

 Normal termination of Gaussian 09 at Wed Aug 26 12:43:31 2020.
