 Gaussian 09, Revision D.01,
 Gaussian 09:  ES64L-G09RevD.01 24-Apr-2013

 --------------------
 #p B2PLYPD3/Def2QZVP
 --------------------

 ---------
 butadiene
 ---------
 Symbolic Z-matrix:
 Charge =  0 Multiplicity = 1

                         Standard orientation:
 ---------------------------------------------------------------------
 Center     Atomic      Atomic             Coordinates (Angstroms)
 Number     Number       Type             X           Y           Z
 ---------------------------------------------------------------------
      1          6           0       -1.846989    0.097768    0.018226
      2          6           0       -0.606287   -0.379899   -0.023404
      3          6           0        0.610107    0.412792   -0.008553
      4          6           0        1.840776   -0.116528    0.003280
      5          1           0       -2.694603   -0.560918    0.025625
      6          1           0       -1.984911    1.178874    0.045342
      7          1           0       -0.471822   -1.460006   -0.067307
      8          1           0        0.471857    1.507295   -0.062984
      9          1           0        1.951582   -1.217508    0.083098
     10          1           0        2.742257    0.467462    0.038932
 ---------------------------------------------------------------------

 SCF Done:  E(RB2PLYPD3) =  -155.699682069     A.U. after   11 cycles
 E2(B2PLYPD3) =    -0.2259867519D+00 E(B2PLYPD3) =    -0.15592566882052D+03

 The electronic state is 1-A.
 Alpha  occ. eigenvalues --  -10.62896 -10.62384 -10.61919 -10.61422  -0.92981
 Alpha  occ. eigenvalues --   -0.84946  -0.70094  -0.63664  -0.54781  -0.53678
 Alpha  occ. eigenvalues --   -0.46903  -0.45225  -0.41022  -0.38134  -0.27760
 Alpha virt. eigenvalues --    0.01674   0.07032   0.07316   0.08033   0.09654
 Alpha virt. eigenvalues --    0.11662   0.12447   0.14552   0.15844   0.16091
 Alpha virt. eigenvalues --    0.18764   0.20473   0.21409   0.22712   0.23852

 Mulliken charges:
               1
     1  C   -0.180516
     2  C   -0.019679
     3  C   -0.033144
     4  C   -0.171374
     5  H    0.092012
     6  H    0.063769
     7  H    0.048373
     8  H    0.050151
     9  H    0.060872
    10  H    0.089536
 Sum of Mulliken charges =   0.00000

 Dipole moment (field-independent basis, Debye):
    X=              0.0273    Y=             -0.0052    Z=              0.0408  Tot=              0.0494
 Quadrupole moment (field-independent basis, Debye-Ang):
   XX=            -23.4453   YY=            -23.2022   ZZ=            -29.3042
   XY=              0.0574   XZ=              0.1106   YZ=             -0.0505

 1\1\GINC-NODE10\SP\RB2PLYPD3-FC\def2QZVP\C4H6\BOITTIER\26-Aug-2020\0\\
 #p B2PLYPD3/Def2QZVP\\butadiene\\0,1\C,0,-3.851958,0.210355,0.035325\C
 ,0,-2.716665,-0.482378,0.013619\C,0,-1.37821,0.080338,0.004593\C,0,-0.
 261833,-0.659558,0.038067\H,0,-4.803556,-0.285696,0.063009\H,0,-3.7944
 82,1.298994,0.024851\H,0,-2.777421,-1.569994,0.007272\H,0,-1.318941,1.
 179409,-0.087841\H,0,-0.349174,-1.759224,0.156019\H,0,0.729571,-0.2451
 ,0.056129\\Version=ES64L-G09RevD.01\State=1-A\HF=-155.6996821\MP2=-155
 .9256688\RMSD=4.305e-09\PG=C01 [X(C4H6)]\\@

 Normal termination of Gaussian 09 at Wed Aug 26 14:35:10 2020.
