 Gaussian 09, Revision D.01,
 Gaussian 09:  ES64L-G09RevD.01 24-Apr-2013

 --------------------
 #p B2PLYPD3/Def2QZVP
 --------------------

 ---------
 butadiene
 ---------
 Symbolic Z-matrix:
 Charge =  0 Multiplicity = 1

                         Standard orientation:
 ---------------------------------------------------------------------
 Center     Atomic      Atomic             Coordinates (Angstroms)
 Number     Number       Type             X           Y           Z
 ---------------------------------------------------------------------
      1          6           0        1.821758   -0.143430    0.058850
      2          6           0        0.598556    0.430893   -0.067183
      3          6           0       -0.591335   -0.400148   -0.043373
      4          6           0       -1.827793    0.099560    0.016077
      5          1           0        2.714642    0.479604   -0.011328
      6          1           0        1.848519   -1.162961    0.198687
      7          1           0        0.605718    1.553783   -0.210744
      8          1           0       -0.432505   -1.510933   -0.108067
      9          1           0       -1.978669    1.188321    0.406182
     10          1           0       -2.764825   -0.469059   -0.060957
 ---------------------------------------------------------------------

 SCF Done:  E(RB2PLYPD3) =  -155.682176113     A.U. after   12 cycles
 E2(B2PLYPD3) =    -0.2275895248D+00 E(B2PLYPD3) =    -0.15590976563755D+03

 The electronic state is 1-A.
 Alpha  occ. eigenvalues --  -10.63303 -10.63208 -10.62451 -10.61247  -0.92874
 Alpha  occ. eigenvalues --   -0.84528  -0.69424  -0.63405  -0.54403  -0.53543
 Alpha  occ. eigenvalues --   -0.45819  -0.45090  -0.41407  -0.37558  -0.27303
 Alpha virt. eigenvalues --    0.01341   0.07078   0.07164   0.07586   0.09062
 Alpha virt. eigenvalues --    0.11648   0.12297   0.14627   0.15823   0.16238
 Alpha virt. eigenvalues --    0.18590   0.20050   0.21227   0.22495   0.23415

 Mulliken charges:
               1
     1  C   -0.180927
     2  C   -0.028128
     3  C   -0.036556
     4  C   -0.172909
     5  H    0.088176
     6  H    0.069689
     7  H    0.060449
     8  H    0.056875
     9  H    0.060264
    10  H    0.083067
 Sum of Mulliken charges =   0.00000

 Dipole moment (field-independent basis, Debye):
    X=              0.0730    Y=             -0.0653    Z=              0.1145  Tot=              0.1507
 Quadrupole moment (field-independent basis, Debye-Ang):
   XX=            -23.7980   YY=            -23.2719   ZZ=            -29.2612
   XY=              0.3040   XZ=             -0.3033   YZ=              0.1090

 1\1\GINC-NODE19\SP\RB2PLYPD3-FC\def2QZVP\C4H6\BOITTIER\26-Aug-2020\0\\
 #p B2PLYPD3/Def2QZVP\\butadiene\\0,1\C,0,-3.820796,0.244767,0.071184\C
 ,0,-2.716815,-0.538309,-0.028678\C,0,-1.399992,0.072434,-0.025683\C,0,
 -0.269888,-0.633277,0.057428\H,0,-4.808837,-0.214731,0.016637\H,0,-3.6
 68939,1.257425,0.176902\H,0,-2.920137,-1.646878,-0.134877\H,0,-1.36225
 7,1.191061,-0.12817\H,0,-0.311551,-1.717868,0.484362\H,0,0.752087,-0.2
 40003,-0.033092\\Version=ES64L-G09RevD.01\State=1-A\HF=-155.6821761\MP
 2=-155.9097656\RMSD=4.340e-09\PG=C01 [X(C4H6)]\\@

 Normal termination of Gaussian 09 at Wed Aug 26 13:02:49 2020.
