 Gaussian 09, Revision D.01,
 Gaussian 09:  ES64L-G09RevD.01 24-Apr-2013

 --------------------
 #p B2PLYPD3/Def2QZVP
 --------------------

 ---------
 butadiene
 ---------
 Symbolic Z-matrix:
 Charge =  0 Multiplicity = 1

                         Standard orientation:
 ---------------------------------------------------------------------
 Center     Atomic      Atomic             Coordinates (Angstroms)
 Number     Number       Type             X           Y           Z
 ---------------------------------------------------------------------
      1          6           0       -1.823976    0.124537   -0.047599
      2          6           0       -0.605808   -0.420904    0.067198
      3          6           0        0.599060    0.367374    0.027796
      4          6           0        1.828004   -0.101556   -0.035623
      5          1           0       -2.738446   -0.484529   -0.023023
      6          1           0       -1.919239    1.217277   -0.033619
      7          1           0       -0.432776   -1.460415   -0.004369
      8          1           0        0.473043    1.425188    0.058828
      9          1           0        2.015425   -1.121224   -0.059823
     10          1           0        2.618310    0.606998   -0.008623
 ---------------------------------------------------------------------

 SCF Done:  E(RB2PLYPD3) =  -155.696138805     A.U. after   11 cycles
 E2(B2PLYPD3) =    -0.2251634170D+00 E(B2PLYPD3) =    -0.15592130222218D+03

 The electronic state is 1-A.
 Alpha  occ. eigenvalues --  -10.62138 -10.62003 -10.61537 -10.60315  -0.93547
 Alpha  occ. eigenvalues --   -0.85229  -0.70355  -0.64730  -0.54594  -0.54443
 Alpha  occ. eigenvalues --   -0.46773  -0.46048  -0.41264  -0.38317  -0.27732
 Alpha virt. eigenvalues --    0.01773   0.07010   0.07553   0.08149   0.09745
 Alpha virt. eigenvalues --    0.11852   0.12434   0.14900   0.15551   0.16219
 Alpha virt. eigenvalues --    0.18669   0.20033   0.21804   0.22840   0.24583

 Mulliken charges:
               1
     1  C   -0.169801
     2  C   -0.044671
     3  C   -0.006933
     4  C   -0.189971
     5  H    0.084631
     6  H    0.065300
     7  H    0.059806
     8  H    0.047731
     9  H    0.068099
    10  H    0.085809
 Sum of Mulliken charges =   0.00000

 Dipole moment (field-independent basis, Debye):
    X=             -0.0267    Y=             -0.0127    Z=              0.0025  Tot=              0.0296
 Quadrupole moment (field-independent basis, Debye-Ang):
   XX=            -23.7164   YY=            -23.0304   ZZ=            -29.0955
   XY=             -0.1028   XZ=              0.0490   YZ=              0.1312

 1\1\GINC-NODE32\SP\RB2PLYPD3-FC\def2QZVP\C4H6\BOITTIER\26-Aug-2020\0\\
 #p B2PLYPD3/Def2QZVP\\butadiene\\0,1\C,0,-3.82244,0.239387,-0.030188\C
 ,0,-2.722864,-0.514742,0.099583\C,0,-1.395299,0.04123,0.043833\C,0,-0.
 271718,-0.643802,-0.00634\H,0,-4.831999,-0.193306,0.00705\H,0,-3.71826
 6,1.331339,-0.042061\H,0,-2.741061,-1.569788,0.052774\H,0,-1.327652,1.
 104809,0.049773\H,0,-0.272053,-1.680834,-0.006236\H,0,0.633869,-0.0896
 04,0.005422\\Version=ES64L-G09RevD.01\State=1-A\HF=-155.6961388\MP2=-1
 55.9213022\RMSD=8.314e-09\PG=C01 [X(C4H6)]\\@

 Normal termination of Gaussian 09 at Wed Aug 26 09:46:48 2020.
