 Gaussian 09, Revision D.01,
 Gaussian 09:  ES64L-G09RevD.01 24-Apr-2013

 --------------------
 #p B2PLYPD3/Def2QZVP
 --------------------

 ---------
 butadiene
 ---------
 Symbolic Z-matrix:
 Charge =  0 Multiplicity = 1

                         Standard orientation:
 ---------------------------------------------------------------------
 Center     Atomic      Atomic             Coordinates (Angstroms)
 Number     Number       Type             X           Y           Z
 ---------------------------------------------------------------------
      1          6           0        1.847683    0.093698   -0.089866
      2          6           0        0.582156   -0.372047    0.124172
      3          6           0       -0.623647    0.445299    0.038456
      4          6           0       -1.828893   -0.133605   -0.054080
      5          1           0        2.631384   -0.567239   -0.152203
      6          1           0        2.048689    1.126483   -0.024583
      7          1           0        0.460934   -1.410860    0.111353
      8          1           0       -0.494660    1.545426    0.188941
      9          1           0       -1.703381   -1.312694   -0.050098
     10          1           0       -2.806756    0.418806   -0.185500
 ---------------------------------------------------------------------

 SCF Done:  E(RB2PLYPD3) =  -155.678436509     A.U. after   12 cycles
 E2(B2PLYPD3) =    -0.2277141077D+00 E(B2PLYPD3) =    -0.15590615061665D+03

 The electronic state is 1-A.
 Alpha  occ. eigenvalues --  -10.63299 -10.63111 -10.62517 -10.60965  -0.92873
 Alpha  occ. eigenvalues --   -0.84534  -0.69850  -0.63989  -0.54376  -0.53568
 Alpha  occ. eigenvalues --   -0.46312  -0.45090  -0.41551  -0.37581  -0.27391
 Alpha virt. eigenvalues --    0.01418   0.06901   0.07288   0.07896   0.09047
 Alpha virt. eigenvalues --    0.11524   0.12609   0.14225   0.15426   0.16317
 Alpha virt. eigenvalues --    0.18393   0.19513   0.21602   0.22654   0.24516

 Mulliken charges:
               1
     1  C   -0.175643
     2  C   -0.041842
     3  C   -0.025066
     4  C   -0.169381
     5  H    0.083250
     6  H    0.069467
     7  H    0.057596
     8  H    0.055202
     9  H    0.050540
    10  H    0.095877
 Sum of Mulliken charges =   0.00000

 Dipole moment (field-independent basis, Debye):
    X=              0.0188    Y=              0.0720    Z=              0.0016  Tot=              0.0744
 Quadrupole moment (field-independent basis, Debye-Ang):
   XX=            -23.7043   YY=            -23.2316   ZZ=            -29.3952
   XY=             -0.4178   XZ=              0.0707   YZ=              0.1735

 1\1\GINC-NODE27\SP\RB2PLYPD3-FC\def2QZVP\C4H6\BOITTIER\26-Aug-2020\0\\
 #p B2PLYPD3/Def2QZVP\\butadiene\\0,1\C,0,-3.857537,0.203591,0.106467\C
 ,0,-2.694946,-0.488272,-0.077919\C,0,-1.36389,0.108275,-0.035677\C,0,-
 0.278159,-0.667049,0.092272\H,0,-4.744492,-0.305004,0.204201\H,0,-3.87
 4823,1.250315,-0.017546\H,0,-2.757661,-1.52986,-0.006133\H,0,-1.299114
 ,1.203774,-0.248392\H,0,-0.608503,-1.804153,0.154627\H,0,0.782386,-0.2
 88338,0.194577\\Version=ES64L-G09RevD.01\State=1-A\HF=-155.6784365\MP2
 =-155.9061506\RMSD=3.835e-09\PG=C01 [X(C4H6)]\\@

 Normal termination of Gaussian 09 at Wed Aug 26 12:36:04 2020.
