 Gaussian 09, Revision D.01,
 Gaussian 09:  ES64L-G09RevD.01 24-Apr-2013

 --------------------
 #p B2PLYPD3/Def2QZVP
 --------------------

 ---------
 butadiene
 ---------
 Symbolic Z-matrix:
 Charge =  0 Multiplicity = 1

                         Standard orientation:
 ---------------------------------------------------------------------
 Center     Atomic      Atomic             Coordinates (Angstroms)
 Number     Number       Type             X           Y           Z
 ---------------------------------------------------------------------
      1          6           0        1.841457    0.094666    0.011397
      2          6           0        0.605751   -0.399065   -0.028652
      3          6           0       -0.601937    0.428103   -0.012206
      4          6           0       -1.839112   -0.124274    0.014264
      5          1           0        2.703863   -0.529717    0.000393
      6          1           0        1.988741    1.190541    0.095678
      7          1           0        0.440250   -1.483274   -0.016042
      8          1           0       -0.463605    1.506849   -0.051405
      9          1           0       -1.993330   -1.183980    0.073855
     10          1           0       -2.712876    0.502999   -0.011295
 ---------------------------------------------------------------------

 SCF Done:  E(RB2PLYPD3) =  -155.699351066     A.U. after   11 cycles
 E2(B2PLYPD3) =    -0.2261487864D+00 E(B2PLYPD3) =    -0.15592549985192D+03

 The electronic state is 1-A.
 Alpha  occ. eigenvalues --  -10.62981 -10.62602 -10.61675 -10.61497  -0.92707
 Alpha  occ. eigenvalues --   -0.84668  -0.70067  -0.63965  -0.54622  -0.53665
 Alpha  occ. eigenvalues --   -0.46699  -0.45610  -0.41251  -0.37873  -0.27543
 Alpha virt. eigenvalues --    0.01677   0.07049   0.07300   0.08111   0.09340
 Alpha virt. eigenvalues --    0.11685   0.12412   0.14668   0.15809   0.16157
 Alpha virt. eigenvalues --    0.18747   0.20480   0.21536   0.23047   0.23725

 Mulliken charges:
               1
     1  C   -0.176086
     2  C   -0.026092
     3  C   -0.036633
     4  C   -0.178799
     5  H    0.089980
     6  H    0.060895
     7  H    0.052624
     8  H    0.058442
     9  H    0.070592
    10  H    0.085077
 Sum of Mulliken charges =   0.00000

 Dipole moment (field-independent basis, Debye):
    X=             -0.0204    Y=             -0.0189    Z=              0.0587  Tot=              0.0650
 Quadrupole moment (field-independent basis, Debye-Ang):
   XX=            -23.5909   YY=            -23.0144   ZZ=            -29.3582
   XY=              0.1683   XZ=              0.1048   YZ=             -0.0411

 1\1\GINC-NODE19\SP\RB2PLYPD3-FC\def2QZVP\C4H6\BOITTIER\26-Aug-2020\0\\
 #p B2PLYPD3/Def2QZVP\\butadiene\\0,1\C,0,-3.845137,0.212446,0.004703\C
 ,0,-2.719618,-0.496379,0.060521\C,0,-1.381785,0.096933,0.02628\C,0,-0.
 26561,-0.671502,0.017092\H,0,-4.806604,-0.244388,0.029269\H,0,-3.79104
 3,1.31434,-0.107739\H,0,-2.753874,-1.592578,0.075855\H,0,-1.321751,1.1
 83501,0.037736\H,0,-0.306605,-1.742758,-0.01519\H,0,0.707624,-0.212961
 ,0.029034\\Version=ES64L-G09RevD.01\State=1-A\HF=-155.6993511\MP2=-155
 .9254999\RMSD=6.028e-09\PG=C01 [X(C4H6)]\\@

 Normal termination of Gaussian 09 at Wed Aug 26 19:00:56 2020.
