 Gaussian 09, Revision D.01,
 Gaussian 09:  ES64L-G09RevD.01 24-Apr-2013

 --------------------
 #p B2PLYPD3/Def2QZVP
 --------------------

 ---------
 butadiene
 ---------
 Symbolic Z-matrix:
 Charge =  0 Multiplicity = 1

                         Standard orientation:
 ---------------------------------------------------------------------
 Center     Atomic      Atomic             Coordinates (Angstroms)
 Number     Number       Type             X           Y           Z
 ---------------------------------------------------------------------
      1          6           0       -1.842771    0.133181    0.017633
      2          6           0       -0.596816   -0.415932   -0.088782
      3          6           0        0.588578    0.358022   -0.082344
      4          6           0        1.823689   -0.101922    0.074744
      5          1           0       -2.723012   -0.565375    0.428169
      6          1           0       -1.922150    1.207210    0.048296
      7          1           0       -0.378490   -1.488019   -0.159989
      8          1           0        0.504718    1.519578   -0.079448
      9          1           0        2.060234   -1.122864    0.052020
     10          1           0        2.622614    0.609371    0.183443
 ---------------------------------------------------------------------

 SCF Done:  E(RB2PLYPD3) =  -155.677589696     A.U. after   12 cycles
 E2(B2PLYPD3) =    -0.2279740723D+00 E(B2PLYPD3) =    -0.15590556376803D+03

 The electronic state is 1-A.
 Alpha  occ. eigenvalues --  -10.63264 -10.63140 -10.62817 -10.61007  -0.93468
 Alpha  occ. eigenvalues --   -0.84578  -0.70319  -0.63423  -0.54185  -0.53471
 Alpha  occ. eigenvalues --   -0.46635  -0.44710  -0.41267  -0.38053  -0.27226
 Alpha virt. eigenvalues --    0.00873   0.06819   0.07132   0.07717   0.09569
 Alpha virt. eigenvalues --    0.11721   0.12211   0.14787   0.15341   0.16025
 Alpha virt. eigenvalues --    0.18720   0.19601   0.21671   0.22915   0.23581

 Mulliken charges:
               1
     1  C   -0.168890
     2  C   -0.036091
     3  C   -0.004174
     4  C   -0.183733
     5  H    0.078075
     6  H    0.074424
     7  H    0.059018
     8  H    0.030295
     9  H    0.066133
    10  H    0.084944
 Sum of Mulliken charges =   0.00000

 Dipole moment (field-independent basis, Debye):
    X=              0.1934    Y=             -0.0425    Z=              0.3013  Tot=              0.3606
 Quadrupole moment (field-independent basis, Debye-Ang):
   XX=            -24.4281   YY=            -23.1436   ZZ=            -29.2082
   XY=             -0.2208   XZ=             -0.7210   YZ=             -0.0423

 1\1\GINC-NODE20\SP\RB2PLYPD3-FC\def2QZVP\C4H6\BOITTIER\26-Aug-2020\0\\
 #p B2PLYPD3/Def2QZVP\\butadiene\\0,1\C,0,-3.835648,0.254285,0.056121\C
 ,0,-2.711458,-0.51493,-0.042659\C,0,-1.404975,0.030044,-0.060289\C,0,-
 0.272881,-0.643505,0.102251\H,0,-4.82467,-0.262615,0.487394\H,0,-3.717
 92,1.325216,0.061203\H,0,-2.692573,-1.610196,-0.08895\H,0,-1.275966,1.
 187194,-0.085059\H,0,-0.226342,-1.690704,0.10311\H,0,0.643105,-0.08737
 2,0.190118\\Version=ES64L-G09RevD.01\State=1-A\HF=-155.6775897\MP2=-15
 5.9055638\RMSD=5.223e-09\PG=C01 [X(C4H6)]\\@

 Normal termination of Gaussian 09 at Wed Aug 26 12:34:08 2020.
