 Gaussian 09, Revision D.01,
 Gaussian 09:  ES64L-G09RevD.01 24-Apr-2013

 --------------------
 #p B2PLYPD3/Def2QZVP
 --------------------

 ---------
 butadiene
 ---------
 Symbolic Z-matrix:
 Charge =  0 Multiplicity = 1

                         Standard orientation:
 ---------------------------------------------------------------------
 Center     Atomic      Atomic             Coordinates (Angstroms)
 Number     Number       Type             X           Y           Z
 ---------------------------------------------------------------------
      1          6           0        1.838083   -0.150021    0.040788
      2          6           0        0.629867    0.427105   -0.067747
      3          6           0       -0.635329   -0.363788   -0.058961
      4          6           0       -1.882621    0.104334    0.096449
      5          1           0        2.688288    0.475135    0.251163
      6          1           0        1.999466   -1.281569   -0.035919
      7          1           0        0.704186    1.544108   -0.155100
      8          1           0       -0.492923   -1.383991   -0.063931
      9          1           0       -1.965346    1.154207   -0.016715
     10          1           0       -2.633675   -0.613669   -0.042669
 ---------------------------------------------------------------------

 SCF Done:  E(RB2PLYPD3) =  -155.680574747     A.U. after   11 cycles
 E2(B2PLYPD3) =    -0.2266989049D+00 E(B2PLYPD3) =    -0.15590727365168D+03

 The electronic state is 1-A.
 Alpha  occ. eigenvalues --  -10.63411 -10.62405 -10.62376 -10.60736  -0.92520
 Alpha  occ. eigenvalues --   -0.85359  -0.69727  -0.63823  -0.55102  -0.53439
 Alpha  occ. eigenvalues --   -0.45928  -0.45750  -0.41650  -0.37227  -0.27832
 Alpha virt. eigenvalues --    0.01509   0.06971   0.07409   0.07943   0.09204
 Alpha virt. eigenvalues --    0.11710   0.12320   0.14373   0.15576   0.16603
 Alpha virt. eigenvalues --    0.18586   0.19187   0.21257   0.23154   0.24429

 Mulliken charges:
               1
     1  C   -0.174241
     2  C   -0.041000
     3  C   -0.033343
     4  C   -0.172021
     5  H    0.084980
     6  H    0.064431
     7  H    0.052666
     8  H    0.063183
     9  H    0.070644
    10  H    0.084699
 Sum of Mulliken charges =   0.00000

 Dipole moment (field-independent basis, Debye):
    X=              0.2138    Y=             -0.0480    Z=             -0.1746  Tot=              0.2802
 Quadrupole moment (field-independent basis, Debye-Ang):
   XX=            -24.1237   YY=            -22.9231   ZZ=            -29.2808
   XY=              0.4189   XZ=              0.8157   YZ=              0.0926

 1\1\GINC-NODE26\SP\RB2PLYPD3-FC\def2QZVP\C4H6\BOITTIER\26-Aug-2020\0\\
 #p B2PLYPD3/Def2QZVP\\butadiene\\0,1\C,0,-3.844087,0.243,0.067256\C,0,
 -2.75008,-0.530176,-0.032681\C,0,-1.370521,0.038104,-0.046325\C,0,-0.2
 17835,-0.628464,0.115018\H,0,-4.785198,-0.226554,0.294756\H,0,-3.81475
 4,1.383681,-0.034306\H,0,-3.010576,-1.620661,-0.094602\H,0,-1.340548,1
 .067409,-0.073732\H,0,-0.312475,-1.679587,0.025208\H,0,0.641554,-0.049
 28,-0.04297\\Version=ES64L-G09RevD.01\State=1-A\HF=-155.6805747\MP2=-1
 55.9072737\RMSD=7.120e-09\PG=C01 [X(C4H6)]\\@

 Normal termination of Gaussian 09 at Wed Aug 26 14:31:07 2020.
