 Gaussian 09, Revision D.01,
 Gaussian 09:  ES64L-G09RevD.01 24-Apr-2013

 --------------------
 #p B2PLYPD3/Def2QZVP
 --------------------

 ---------
 butadiene
 ---------
 Symbolic Z-matrix:
 Charge =  0 Multiplicity = 1

                         Standard orientation:
 ---------------------------------------------------------------------
 Center     Atomic      Atomic             Coordinates (Angstroms)
 Number     Number       Type             X           Y           Z
 ---------------------------------------------------------------------
      1          6           0       -1.863213    0.098443   -0.017499
      2          6           0       -0.608840   -0.384872    0.038634
      3          6           0        0.599585    0.403275    0.119264
      4          6           0        1.836266   -0.141623   -0.058144
      5          1           0       -2.685392   -0.579263   -0.142168
      6          1           0       -2.074674    1.162071   -0.155644
      7          1           0       -0.518544   -1.439290    0.056285
      8          1           0        0.529377    1.533379   -0.057812
      9          1           0        2.250834   -1.153053   -0.084973
     10          1           0        2.715606    0.624818   -0.109213
 ---------------------------------------------------------------------

 SCF Done:  E(RB2PLYPD3) =  -155.681040246     A.U. after   11 cycles
 E2(B2PLYPD3) =    -0.2279485882D+00 E(B2PLYPD3) =    -0.15590898883461D+03

 The electronic state is 1-A.
 Alpha  occ. eigenvalues --  -10.63929 -10.63343 -10.62404 -10.61526  -0.92653
 Alpha  occ. eigenvalues --   -0.84332  -0.70132  -0.63717  -0.54870  -0.52919
 Alpha  occ. eigenvalues --   -0.46363  -0.44524  -0.40491  -0.37992  -0.27423
 Alpha virt. eigenvalues --    0.00974   0.06726   0.07332   0.07767   0.09166
 Alpha virt. eigenvalues --    0.11213   0.12374   0.14926   0.15368   0.16471
 Alpha virt. eigenvalues --    0.18805   0.19367   0.21874   0.22924   0.23247

 Mulliken charges:
               1
     1  C   -0.168942
     2  C   -0.037438
     3  C   -0.032699
     4  C   -0.164961
     5  H    0.079566
     6  H    0.062544
     7  H    0.062026
     8  H    0.062235
     9  H    0.082029
    10  H    0.055641
 Sum of Mulliken charges =   0.00000

 Dipole moment (field-independent basis, Debye):
    X=              0.1228    Y=             -0.1275    Z=             -0.3315  Tot=              0.3758
 Quadrupole moment (field-independent basis, Debye-Ang):
   XX=            -23.6202   YY=            -23.1204   ZZ=            -29.4575
   XY=             -0.4976   XZ=              0.1502   YZ=             -0.2425

 1\1\GINC-NODE40\SP\RB2PLYPD3-FC\def2QZVP\C4H6\BOITTIER\26-Aug-2020\0\\
 #p B2PLYPD3/Def2QZVP\\butadiene\\0,1\C,0,-3.862795,0.218868,-0.01251\C
 ,0,-2.715842,-0.479631,0.069922\C,0,-1.384704,0.080519,0.117591\C,0,-0
 .267501,-0.686101,-0.030458\H,0,-4.794345,-0.304472,-0.108102\H,0,-3.8
 79748,1.295641,-0.200594\H,0,-2.817048,-1.531078,0.136838\H,0,-1.25094
 3,1.195329,-0.112032\H,0,-0.04224,-1.755854,-0.008963\H,0,0.735334,-0.
 094019,-0.114359\\Version=ES64L-G09RevD.01\State=1-A\HF=-155.6810402\M
 P2=-155.9089888\RMSD=7.265e-09\PG=C01 [X(C4H6)]\\@

 Normal termination of Gaussian 09 at Wed Aug 26 11:42:16 2020.
