 Gaussian 09, Revision D.01,
 Gaussian 09:  ES64L-G09RevD.01 24-Apr-2013

 --------------------
 #p B2PLYPD3/Def2QZVP
 --------------------

 ---------
 butadiene
 ---------
 Symbolic Z-matrix:
 Charge =  0 Multiplicity = 1

                         Standard orientation:
 ---------------------------------------------------------------------
 Center     Atomic      Atomic             Coordinates (Angstroms)
 Number     Number       Type             X           Y           Z
 ---------------------------------------------------------------------
      1          6           0        1.831606   -0.117686    0.009993
      2          6           0        0.607664    0.421188   -0.021218
      3          6           0       -0.604612   -0.397274   -0.016748
      4          6           0       -1.836970    0.107585    0.009893
      5          1           0        2.726598    0.467813    0.013037
      6          1           0        1.926118   -1.192425    0.090151
      7          1           0        0.490663    1.493450   -0.063713
      8          1           0       -0.446356   -1.471936   -0.029000
      9          1           0       -2.001426    1.171498    0.129015
     10          1           0       -2.681725   -0.551276   -0.031010
 ---------------------------------------------------------------------

 SCF Done:  E(RB2PLYPD3) =  -155.700783845     A.U. after   11 cycles
 E2(B2PLYPD3) =    -0.2255684905D+00 E(B2PLYPD3) =    -0.15592635233552D+03

 The electronic state is 1-A.
 Alpha  occ. eigenvalues --  -10.62517 -10.62461 -10.61363 -10.61294  -0.92939
 Alpha  occ. eigenvalues --   -0.84964  -0.69991  -0.64202  -0.54613  -0.54039
 Alpha  occ. eigenvalues --   -0.46646  -0.45777  -0.41341  -0.37977  -0.27679
 Alpha virt. eigenvalues --    0.01868   0.07058   0.07398   0.08122   0.09437
 Alpha virt. eigenvalues --    0.11735   0.12470   0.14707   0.15872   0.16146
 Alpha virt. eigenvalues --    0.18735   0.20462   0.21506   0.23027   0.23936

 Mulliken charges:
               1
     1  C   -0.175454
     2  C   -0.031838
     3  C   -0.029878
     4  C   -0.180121
     5  H    0.087685
     6  H    0.062301
     7  H    0.056612
     8  H    0.054315
     9  H    0.069455
    10  H    0.086923
 Sum of Mulliken charges =   0.00000

 Dipole moment (field-independent basis, Debye):
    X=              0.0262    Y=              0.0091    Z=              0.0803  Tot=              0.0850
 Quadrupole moment (field-independent basis, Debye-Ang):
   XX=            -23.6098   YY=            -23.0332   ZZ=            -29.2353
   XY=             -0.0552   XZ=              0.0241   YZ=              0.0376

 1\1\GINC-NODE26\SP\RB2PLYPD3-FC\def2QZVP\C4H6\BOITTIER\26-Aug-2020\0\\
 #p B2PLYPD3/Def2QZVP\\butadiene\\0,1\C,0,-3.832856,0.230909,0.029735\C
 ,0,-2.725515,-0.519434,0.016509\C,0,-1.386105,0.068094,-0.000981\C,0,-
 0.264178,-0.648618,0.042634\H,0,-4.818322,-0.184224,0.048437\H,0,-3.73
 2811,1.307047,0.078093\H,0,-2.802857,-1.596069,0.005763\H,0,-1.349113,
 1.152888,-0.045101\H,0,-0.292762,-1.72083,0.193273\H,0,0.684888,-0.153
 441,-0.016155\\Version=ES64L-G09RevD.01\State=1-A\HF=-155.7007838\MP2=
 -155.9263523\RMSD=3.477e-09\PG=C01 [X(C4H6)]\\@

 Normal termination of Gaussian 09 at Wed Aug 26 19:25:13 2020.
