 Gaussian 09, Revision D.01,
 Gaussian 09:  ES64L-G09RevD.01 24-Apr-2013

 --------------------
 #p B2PLYPD3/Def2QZVP
 --------------------

 ---------
 butadiene
 ---------
 Symbolic Z-matrix:
 Charge =  0 Multiplicity = 1

                         Standard orientation:
 ---------------------------------------------------------------------
 Center     Atomic      Atomic             Coordinates (Angstroms)
 Number     Number       Type             X           Y           Z
 ---------------------------------------------------------------------
      1          6           0       -1.850921   -0.127012    0.021812
      2          6           0       -0.610660    0.412714   -0.020010
      3          6           0        0.602042   -0.376601   -0.056734
      4          6           0        1.862888    0.092335    0.046387
      5          1           0       -2.699654    0.552564    0.011426
      6          1           0       -2.009307   -1.187832    0.108813
      7          1           0       -0.500467    1.460979   -0.060186
      8          1           0        0.392118   -1.421199   -0.054484
      9          1           0        2.049207    1.129526    0.042166
     10          1           0        2.748007   -0.542655    0.003528
 ---------------------------------------------------------------------

 SCF Done:  E(RB2PLYPD3) =  -155.697097388     A.U. after   11 cycles
 E2(B2PLYPD3) =    -0.2261523378D+00 E(B2PLYPD3) =    -0.15592324972551D+03

 The electronic state is 1-A.
 Alpha  occ. eigenvalues --  -10.62486 -10.62384 -10.61898 -10.61597  -0.92912
 Alpha  occ. eigenvalues --   -0.84607  -0.70721  -0.64744  -0.54556  -0.53887
 Alpha  occ. eigenvalues --   -0.46733  -0.46306  -0.41314  -0.37881  -0.27410
 Alpha virt. eigenvalues --    0.01186   0.06955   0.07594   0.08142   0.09564
 Alpha virt. eigenvalues --    0.11707   0.12432   0.14840   0.15754   0.16155
 Alpha virt. eigenvalues --    0.18888   0.20273   0.21813   0.22746   0.23722

 Mulliken charges:
               1
     1  C   -0.183141
     2  C   -0.031079
     3  C   -0.034010
     4  C   -0.174648
     5  H    0.085535
     6  H    0.072060
     7  H    0.058772
     8  H    0.056038
     9  H    0.066154
    10  H    0.084319
 Sum of Mulliken charges =   0.00000

 Dipole moment (field-independent basis, Debye):
    X=             -0.0263    Y=              0.0370    Z=             -0.0029  Tot=              0.0455
 Quadrupole moment (field-independent basis, Debye-Ang):
   XX=            -23.4081   YY=            -23.1492   ZZ=            -29.2992
   XY=              0.2538   XZ=             -0.1372   YZ=             -0.1148

 1\1\GINC-NODE36\SP\RB2PLYPD3-FC\def2QZVP\C4H6\BOITTIER\26-Aug-2020\0\\
 #p B2PLYPD3/Def2QZVP\\butadiene\\0,1\C,0,-3.849636,0.244169,-0.008297\
 C,0,-2.727464,-0.509148,0.059105\C,0,-1.391715,0.048271,0.067442\C,0,-
 0.237114,-0.645075,-0.012788\H,0,-4.807358,-0.269442,0.027082\H,0,-3.8
 13658,1.311733,-0.138714\H,0,-2.80877,-1.557538,0.142083\H,0,-1.408987
 ,1.112655,0.022208\H,0,-0.241705,-1.697825,0.034044\H,0,0.748551,-0.17
 9713,0.006952\\Version=ES64L-G09RevD.01\State=1-A\HF=-155.6970974\MP2=
 -155.9232497\RMSD=5.192e-09\PG=C01 [X(C4H6)]\\@

 Normal termination of Gaussian 09 at Wed Aug 26 09:03:11 2020.
