 Gaussian 09, Revision D.01,
 Gaussian 09:  ES64L-G09RevD.01 24-Apr-2013

 --------------------
 #p B2PLYPD3/Def2QZVP
 --------------------

 ---------
 butadiene
 ---------
 Symbolic Z-matrix:
 Charge =  0 Multiplicity = 1

                         Standard orientation:
 ---------------------------------------------------------------------
 Center     Atomic      Atomic             Coordinates (Angstroms)
 Number     Number       Type             X           Y           Z
 ---------------------------------------------------------------------
      1          6           0       -1.847610    0.104744    0.031215
      2          6           0       -0.615001   -0.388020   -0.056725
      3          6           0        0.595027    0.376371   -0.027541
      4          6           0        1.838166   -0.110430    0.012871
      5          1           0       -2.689883   -0.492597    0.161318
      6          1           0       -1.988291    1.163776    0.013769
      7          1           0       -0.466971   -1.444264   -0.069215
      8          1           0        0.572197    1.506148   -0.092105
      9          1           0        2.052637   -1.168413    0.059353
     10          1           0        2.696819    0.539364    0.167959
 ---------------------------------------------------------------------

 SCF Done:  E(RB2PLYPD3) =  -155.695404557     A.U. after   11 cycles
 E2(B2PLYPD3) =    -0.2256747087D+00 E(B2PLYPD3) =    -0.15592107926556D+03

 The electronic state is 1-A.
 Alpha  occ. eigenvalues --  -10.62815 -10.62251 -10.61507 -10.61008  -0.93301
 Alpha  occ. eigenvalues --   -0.85229  -0.70867  -0.63777  -0.55256  -0.54118
 Alpha  occ. eigenvalues --   -0.46879  -0.45500  -0.41128  -0.38174  -0.27656
 Alpha virt. eigenvalues --    0.01457   0.07002   0.07500   0.07968   0.09866
 Alpha virt. eigenvalues --    0.11620   0.12550   0.14737   0.15787   0.16299
 Alpha virt. eigenvalues --    0.18880   0.20370   0.21630   0.22585   0.23886

 Mulliken charges:
               1
     1  C   -0.171412
     2  C   -0.036386
     3  C   -0.018725
     4  C   -0.173586
     5  H    0.090292
     6  H    0.067399
     7  H    0.056714
     8  H    0.044560
     9  H    0.059512
    10  H    0.081633
 Sum of Mulliken charges =   0.00000

 Dipole moment (field-independent basis, Debye):
    X=             -0.0390    Y=             -0.0372    Z=              0.1684  Tot=              0.1768
 Quadrupole moment (field-independent basis, Debye-Ang):
   XX=            -23.2955   YY=            -23.2860   ZZ=            -29.1130
   XY=             -0.0091   XZ=              0.0598   YZ=             -0.0899

 1\1\GINC-NODE25\SP\RB2PLYPD3-FC\def2QZVP\C4H6\BOITTIER\26-Aug-2020\0\\
 #p B2PLYPD3/Def2QZVP\\butadiene\\0,1\C,0,-3.847551,0.220234,0.051442\C
 ,0,-2.722929,-0.487354,-0.015034\C,0,-1.395879,0.049521,-0.010788\C,0,
 -0.259325,-0.649373,0.050809\H,0,-4.782324,-0.21213,0.201202\H,0,-3.79
 7192,1.286013,-0.005337\H,0,-2.765677,-1.5528,0.011746\H,0,-1.21713,1.
 162115,-0.116943\H,0,-0.236775,-1.726216,0.136761\H,0,0.702046,-0.1578
 93,0.184159\\Version=ES64L-G09RevD.01\State=1-A\HF=-155.6954046\MP2=-1
 55.9210793\RMSD=5.152e-09\PG=C01 [X(C4H6)]\\@

 Normal termination of Gaussian 09 at Wed Aug 26 09:12:24 2020.
