 Gaussian 09, Revision D.01,
 Gaussian 09:  ES64L-G09RevD.01 24-Apr-2013

 --------------------
 #p B2PLYPD3/Def2QZVP
 --------------------

 ---------
 butadiene
 ---------
 Symbolic Z-matrix:
 Charge =  0 Multiplicity = 1

                         Standard orientation:
 ---------------------------------------------------------------------
 Center     Atomic      Atomic             Coordinates (Angstroms)
 Number     Number       Type             X           Y           Z
 ---------------------------------------------------------------------
      1          6           0       -1.837267   -0.113126   -0.042461
      2          6           0       -0.583622    0.443309    0.006152
      3          6           0        0.591229   -0.389896    0.025703
      4          6           0        1.834385    0.082041   -0.017937
      5          1           0       -2.820220    0.417517    0.080620
      6          1           0       -1.931619   -1.212710   -0.021762
      7          1           0       -0.415818    1.506298    0.111059
      8          1           0        0.447457   -1.448435    0.073564
      9          1           0        2.036200    1.142007   -0.080868
     10          1           0        2.655653   -0.538649    0.008648
 ---------------------------------------------------------------------

 SCF Done:  E(RB2PLYPD3) =  -155.693381508     A.U. after   12 cycles
 E2(B2PLYPD3) =    -0.2266296327D+00 E(B2PLYPD3) =    -0.15592001114048D+03

 The electronic state is 1-A.
 Alpha  occ. eigenvalues --  -10.63180 -10.62801 -10.62151 -10.60776  -0.93108
 Alpha  occ. eigenvalues --   -0.84357  -0.70370  -0.64526  -0.54989  -0.53463
 Alpha  occ. eigenvalues --   -0.46841  -0.45142  -0.41648  -0.37997  -0.27281
 Alpha virt. eigenvalues --    0.01262   0.07039   0.07383   0.08113   0.09339
 Alpha virt. eigenvalues --    0.11595   0.12671   0.14561   0.15884   0.16314
 Alpha virt. eigenvalues --    0.18798   0.20340   0.21788   0.22611   0.23971

 Mulliken charges:
               1
     1  C   -0.167589
     2  C   -0.040610
     3  C   -0.019350
     4  C   -0.179030
     5  H    0.080460
     6  H    0.058277
     7  H    0.063241
     8  H    0.056044
     9  H    0.060935
    10  H    0.087622
 Sum of Mulliken charges =   0.00000

 Dipole moment (field-independent basis, Debye):
    X=              0.0487    Y=             -0.0257    Z=              0.1835  Tot=              0.1916
 Quadrupole moment (field-independent basis, Debye-Ang):
   XX=            -23.3685   YY=            -23.2154   ZZ=            -29.3278
   XY=              0.2674   XZ=             -0.3964   YZ=              0.0262

 1\1\GINC-NODE18\SP\RB2PLYPD3-FC\def2QZVP\C4H6\BOITTIER\26-Aug-2020\0\\
 #p B2PLYPD3/Def2QZVP\\butadiene\\0,1\C,0,-3.836017,0.241781,0.050926\C
 ,0,-2.708206,-0.53981,0.023245\C,0,-1.398516,0.058822,-0.011986\C,0,-0
 .265259,-0.635378,0.050298\H,0,-4.900699,-0.099286,-0.063323\H,0,-3.72
 3537,1.338723,0.001109\H,0,-2.741674,-1.617847,-0.053077\H,0,-1.342242
 ,1.123951,-0.088139\H,0,-0.264778,-1.712335,0.141851\H,0,0.657405,-0.1
 79692,0.011761\\Version=ES64L-G09RevD.01\State=1-A\HF=-155.6933815\MP2
 =-155.9200111\RMSD=3.441e-09\PG=C01 [X(C4H6)]\\@

 Normal termination of Gaussian 09 at Wed Aug 26 09:19:00 2020.
