 Gaussian 09, Revision D.01,
 Gaussian 09:  ES64L-G09RevD.01 24-Apr-2013

 --------------------
 #p B2PLYPD3/Def2QZVP
 --------------------

 ---------
 butadiene
 ---------
 Symbolic Z-matrix:
 Charge =  0 Multiplicity = 1

                         Standard orientation:
 ---------------------------------------------------------------------
 Center     Atomic      Atomic             Coordinates (Angstroms)
 Number     Number       Type             X           Y           Z
 ---------------------------------------------------------------------
      1          6           0        1.833560    0.104812    0.014060
      2          6           0        0.615949   -0.423294   -0.025956
      3          6           0       -0.593957    0.398953   -0.051725
      4          6           0       -1.846603   -0.103074    0.035192
      5          1           0        2.763880   -0.456169    0.158980
      6          1           0        1.900858    1.230567    0.065708
      7          1           0        0.443648   -1.472661   -0.132495
      8          1           0       -0.405643    1.421264   -0.081362
      9          1           0       -2.047463   -1.131699    0.062025
     10          1           0       -2.708970    0.544317    0.097718
 ---------------------------------------------------------------------

 SCF Done:  E(RB2PLYPD3) =  -155.694747566     A.U. after   11 cycles
 E2(B2PLYPD3) =    -0.2259174142D+00 E(B2PLYPD3) =    -0.15592066498059D+03

 The electronic state is 1-A.
 Alpha  occ. eigenvalues --  -10.62397 -10.62340 -10.62101 -10.61418  -0.93022
 Alpha  occ. eigenvalues --   -0.84685  -0.70255  -0.64835  -0.54813  -0.53475
 Alpha  occ. eigenvalues --   -0.47312  -0.45577  -0.41206  -0.37798  -0.27643
 Alpha virt. eigenvalues --    0.01661   0.06996   0.07447   0.08214   0.09302
 Alpha virt. eigenvalues --    0.11674   0.12618   0.14553   0.15584   0.16266
 Alpha virt. eigenvalues --    0.18691   0.20214   0.21936   0.23048   0.23674

 Mulliken charges:
               1
     1  C   -0.168267
     2  C   -0.029970
     3  C   -0.037026
     4  C   -0.180247
     5  H    0.087449
     6  H    0.051695
     7  H    0.060982
     8  H    0.062663
     9  H    0.070209
    10  H    0.082512
 Sum of Mulliken charges =   0.00000

 Dipole moment (field-independent basis, Debye):
    X=             -0.0049    Y=             -0.0446    Z=              0.1068  Tot=              0.1159
 Quadrupole moment (field-independent basis, Debye-Ang):
   XX=            -23.4447   YY=            -23.2378   ZZ=            -29.2213
   XY=              0.2197   XZ=              0.1515   YZ=              0.0478

 1\1\GINC-NODE39\SP\RB2PLYPD3-FC\def2QZVP\C4H6\BOITTIER\26-Aug-2020\0\\
 #p B2PLYPD3/Def2QZVP\\butadiene\\0,1\C,0,-3.834162,0.224432,-0.001851\
 C,0,-2.733344,-0.515287,0.062092\C,0,-1.393518,0.072497,0.060245\C,0,-
 0.253986,-0.652835,-0.003537\H,0,-4.851853,-0.162282,-0.128164\H,0,-3.
 694913,1.340742,-0.09663\H,0,-2.755191,-1.573639,0.209136\H,0,-1.39182
 5,1.112381,0.05026\H,0,-0.244487,-1.701107,0.00953\H,0,0.711868,-0.176
 717,-0.088028\\Version=ES64L-G09RevD.01\State=1-A\HF=-155.6947476\MP2=
 -155.920665\RMSD=7.014e-09\PG=C01 [X(C4H6)]\\@

 Normal termination of Gaussian 09 at Wed Aug 26 22:20:00 2020.
