 Gaussian 09, Revision D.01,
 Gaussian 09:  ES64L-G09RevD.01 24-Apr-2013

 --------------------
 #p B2PLYPD3/Def2QZVP
 --------------------

 ---------
 butadiene
 ---------
 Symbolic Z-matrix:
 Charge =  0 Multiplicity = 1

                         Standard orientation:
 ---------------------------------------------------------------------
 Center     Atomic      Atomic             Coordinates (Angstroms)
 Number     Number       Type             X           Y           Z
 ---------------------------------------------------------------------
      1          6           0       -1.830953   -0.116966    0.086270
      2          6           0       -0.618689    0.441087   -0.085761
      3          6           0        0.590318   -0.363110   -0.056723
      4          6           0        1.829320    0.081749    0.042595
      5          1           0       -2.769955    0.320804    0.061877
      6          1           0       -1.773079   -1.227364   -0.030085
      7          1           0       -0.581745    1.509026   -0.113035
      8          1           0        0.417340   -1.442157   -0.035540
      9          1           0        2.140721    1.102793    0.190289
     10          1           0        2.746739   -0.519664    0.008209
 ---------------------------------------------------------------------

 SCF Done:  E(RB2PLYPD3) =  -155.687948673     A.U. after   11 cycles
 E2(B2PLYPD3) =    -0.2262159442D+00 E(B2PLYPD3) =    -0.15591416461680D+03

 The electronic state is 1-A.
 Alpha  occ. eigenvalues --  -10.62764 -10.62663 -10.61564 -10.61472  -0.93214
 Alpha  occ. eigenvalues --   -0.85049  -0.70417  -0.64451  -0.56186  -0.52966
 Alpha  occ. eigenvalues --   -0.47868  -0.43964  -0.40943  -0.38059  -0.27792
 Alpha virt. eigenvalues --    0.01485   0.06992   0.07530   0.08108   0.09424
 Alpha virt. eigenvalues --    0.11498   0.12927   0.14431   0.15844   0.16582
 Alpha virt. eigenvalues --    0.18992   0.19796   0.21782   0.22257   0.24108

 Mulliken charges:
               1
     1  C   -0.159711
     2  C   -0.034484
     3  C   -0.027810
     4  C   -0.166098
     5  H    0.088364
     6  H    0.044162
     7  H    0.061367
     8  H    0.057570
     9  H    0.061169
    10  H    0.075471
 Sum of Mulliken charges =   0.00000

 Dipole moment (field-independent basis, Debye):
    X=             -0.0085    Y=              0.1114    Z=             -0.0253  Tot=              0.1146
 Quadrupole moment (field-independent basis, Debye-Ang):
   XX=            -22.8233   YY=            -23.6391   ZZ=            -29.1599
   XY=             -0.0070   XZ=              0.3274   YZ=              0.2045

 1\1\GINC-NODE10\SP\RB2PLYPD3-FC\def2QZVP\C4H6\BOITTIER\26-Aug-2020\0\\
 #p B2PLYPD3/Def2QZVP\\butadiene\\0,1\C,0,-3.828937,0.228657,-0.062063\
 C,0,-2.734703,-0.532327,0.122752\C,0,-1.401711,0.041725,0.069156\C,0,-
 0.262827,-0.619943,-0.02044\H,0,-4.830847,-0.033394,-0.023729\H,0,-3.5
 72827,1.313524,0.023625\H,0,-2.888942,-1.588555,0.179278\H,0,-1.379288
 ,1.133359,0.018691\H,0,-0.139866,-1.683776,-0.140666\H,0,0.747487,-0.1
 91519,-0.004468\\Version=ES64L-G09RevD.01\State=1-A\HF=-155.6879487\MP
 2=-155.9141646\RMSD=8.996e-09\PG=C01 [X(C4H6)]\\@

 Normal termination of Gaussian 09 at Wed Aug 26 14:57:15 2020.
