 Gaussian 09, Revision D.01,
 Gaussian 09:  ES64L-G09RevD.01 24-Apr-2013

 --------------------
 #p B2PLYPD3/Def2QZVP
 --------------------

 ---------
 butadiene
 ---------
 Symbolic Z-matrix:
 Charge =  0 Multiplicity = 1

                         Standard orientation:
 ---------------------------------------------------------------------
 Center     Atomic      Atomic             Coordinates (Angstroms)
 Number     Number       Type             X           Y           Z
 ---------------------------------------------------------------------
      1          6           0       -1.829644   -0.100011    0.006890
      2          6           0       -0.589604    0.390690   -0.016096
      3          6           0        0.596942   -0.409496   -0.034850
      4          6           0        1.833459    0.114140    0.019669
      5          1           0       -2.704920    0.526319    0.020614
      6          1           0       -2.044055   -1.152572    0.105790
      7          1           0       -0.465387    1.485318   -0.038819
      8          1           0        0.434955   -1.479150   -0.030545
      9          1           0        1.989095    1.181498    0.066448
     10          1           0        2.723395   -0.533348    0.022832
 ---------------------------------------------------------------------

 SCF Done:  E(RB2PLYPD3) =  -155.699756271     A.U. after   11 cycles
 E2(B2PLYPD3) =    -0.2260231355D+00 E(B2PLYPD3) =    -0.15592577940640D+03

 The electronic state is 1-A.
 Alpha  occ. eigenvalues --  -10.62518 -10.62445 -10.61885 -10.61328  -0.93265
 Alpha  occ. eigenvalues --   -0.84703  -0.70402  -0.64079  -0.54654  -0.53880
 Alpha  occ. eigenvalues --   -0.46581  -0.45489  -0.41228  -0.38346  -0.27460
 Alpha virt. eigenvalues --    0.01505   0.07005   0.07377   0.08023   0.09655
 Alpha virt. eigenvalues --    0.11683   0.12436   0.14829   0.15883   0.16126
 Alpha virt. eigenvalues --    0.18751   0.20512   0.21777   0.22688   0.23655

 Mulliken charges:
               1
     1  C   -0.176578
     2  C   -0.020967
     3  C   -0.033068
     4  C   -0.175512
     5  H    0.082241
     6  H    0.061563
     7  H    0.050492
     8  H    0.057814
     9  H    0.069541
    10  H    0.084475
 Sum of Mulliken charges =   0.00000

 Dipole moment (field-independent basis, Debye):
    X=             -0.0084    Y=             -0.0086    Z=              0.1043  Tot=              0.1050
 Quadrupole moment (field-independent basis, Debye-Ang):
   XX=            -23.4676   YY=            -23.1411   ZZ=            -29.2689
   XY=              0.2483   XZ=             -0.0648   YZ=             -0.0611

 1\1\GINC-NODE23\SP\RB2PLYPD3-FC\def2QZVP\C4H6\BOITTIER\26-Aug-2020\0\\
 #p B2PLYPD3/Def2QZVP\\butadiene\\0,1\C,0,-3.833676,0.219262,0.007322\C
 ,0,-2.704984,-0.490145,0.049859\C,0,-1.391435,0.07828,0.045032\C,0,-0.
 27254,-0.665408,0.011195\H,0,-4.809271,-0.235466,0.012193\H,0,-3.85116
 8,1.289427,-0.127137\H,0,-2.784157,-1.587573,0.10935\H,0,-1.353915,1.1
 58734,0.004683\H,0,-0.316063,-1.744136,0.000396\H,0,0.721296,-0.193153
 ,-0.01122\\Version=ES64L-G09RevD.01\State=1-A\HF=-155.6997563\MP2=-155
 .9257794\RMSD=5.712e-09\PG=C01 [X(C4H6)]\\@

 Normal termination of Gaussian 09 at Wed Aug 26 13:00:48 2020.
