 Gaussian 09, Revision D.01,
 Gaussian 09:  ES64L-G09RevD.01 24-Apr-2013

 --------------------
 #p B2PLYPD3/Def2QZVP
 --------------------

 ---------
 butadiene
 ---------
 Symbolic Z-matrix:
 Charge =  0 Multiplicity = 1

                         Standard orientation:
 ---------------------------------------------------------------------
 Center     Atomic      Atomic             Coordinates (Angstroms)
 Number     Number       Type             X           Y           Z
 ---------------------------------------------------------------------
      1          6           0        1.850477   -0.093648   -0.008459
      2          6           0        0.596660    0.379177    0.019547
      3          6           0       -0.607729   -0.411724    0.011590
      4          6           0       -1.840329    0.115635   -0.026105
      5          1           0        2.713003    0.552039   -0.000739
      6          1           0        2.052553   -1.158966   -0.057837
      7          1           0        0.453330    1.466329    0.042729
      8          1           0       -0.474511   -1.470495    0.008359
      9          1           0       -2.034737    1.195628   -0.061071
     10          1           0       -2.704113   -0.521174    0.089121
 ---------------------------------------------------------------------

 SCF Done:  E(RB2PLYPD3) =  -155.699814311     A.U. after   11 cycles
 E2(B2PLYPD3) =    -0.2259885280D+00 E(B2PLYPD3) =    -0.15592580283913D+03

 The electronic state is 1-A.
 Alpha  occ. eigenvalues --  -10.62564 -10.62441 -10.61851 -10.61577  -0.93035
 Alpha  occ. eigenvalues --   -0.84752  -0.70469  -0.64079  -0.54694  -0.53802
 Alpha  occ. eigenvalues --   -0.46885  -0.45479  -0.41164  -0.38121  -0.27531
 Alpha virt. eigenvalues --    0.01408   0.06984   0.07430   0.08068   0.09702
 Alpha virt. eigenvalues --    0.11648   0.12396   0.14788   0.15849   0.16143
 Alpha virt. eigenvalues --    0.18887   0.20380   0.21729   0.22632   0.23648

 Mulliken charges:
               1
     1  C   -0.178823
     2  C   -0.023275
     3  C   -0.037022
     4  C   -0.171454
     5  H    0.087437
     6  H    0.062461
     7  H    0.050358
     8  H    0.059941
     9  H    0.066758
    10  H    0.083620
 Sum of Mulliken charges =   0.00000

 Dipole moment (field-independent basis, Debye):
    X=             -0.0224    Y=             -0.0142    Z=              0.0374  Tot=              0.0459
 Quadrupole moment (field-independent basis, Debye-Ang):
   XX=            -23.3964   YY=            -23.1554   ZZ=            -29.2859
   XY=             -0.2306   XZ=             -0.2641   YZ=             -0.0305

 1\1\GINC-NODE18\SP\RB2PLYPD3-FC\def2QZVP\C4H6\BOITTIER\26-Aug-2020\0\\
 #p B2PLYPD3/Def2QZVP\\butadiene\\0,1\C,0,-3.854843,0.214,0.007164\C,0,
 -2.70855,-0.479021,0.053425\C,0,-1.379889,0.077882,0.027782\C,0,-0.264
 513,-0.666729,0.009829\H,0,-4.820857,-0.262683,0.029793\H,0,-3.858837,
 1.296456,-0.07313\H,0,-2.766339,-1.572946,0.107923\H,0,-1.31732,1.1426
 37,-0.005931\H,0,-0.270854,-1.764613,0.006199\H,0,0.70128,-0.195492,0.
 110352\\Version=ES64L-G09RevD.01\State=1-A\HF=-155.6998143\MP2=-155.92
 58028\RMSD=4.937e-09\PG=C01 [X(C4H6)]\\@

 Normal termination of Gaussian 09 at Wed Aug 26 09:30:00 2020.
