 Gaussian 09, Revision D.01,
 Gaussian 09:  ES64L-G09RevD.01 24-Apr-2013

 --------------------
 #p B2PLYPD3/Def2QZVP
 --------------------

 ---------
 butadiene
 ---------
 Symbolic Z-matrix:
 Charge =  0 Multiplicity = 1

                         Standard orientation:
 ---------------------------------------------------------------------
 Center     Atomic      Atomic             Coordinates (Angstroms)
 Number     Number       Type             X           Y           Z
 ---------------------------------------------------------------------
      1          6           0       -1.845669    0.112995    0.006021
      2          6           0       -0.623695   -0.407754   -0.027508
      3          6           0        0.613290    0.390712   -0.001838
      4          6           0        1.847265   -0.110569   -0.005611
      5          1           0       -2.734253   -0.493666    0.046255
      6          1           0       -1.948335    1.229747   -0.002097
      7          1           0       -0.508375   -1.502054    0.048951
      8          1           0        0.493618    1.473874    0.012267
      9          1           0        2.054754   -1.154916    0.015637
     10          1           0        2.695444    0.534715    0.052601
 ---------------------------------------------------------------------

 SCF Done:  E(RB2PLYPD3) =  -155.699180974     A.U. after   11 cycles
 E2(B2PLYPD3) =    -0.2256176303D+00 E(B2PLYPD3) =    -0.15592479860475D+03

 The electronic state is 1-A.
 Alpha  occ. eigenvalues --  -10.62773 -10.62705 -10.61840 -10.61117  -0.92718
 Alpha  occ. eigenvalues --   -0.85146  -0.69950  -0.63704  -0.54763  -0.53772
 Alpha  occ. eigenvalues --   -0.46949  -0.45308  -0.40827  -0.37980  -0.27961
 Alpha virt. eigenvalues --    0.01912   0.07017   0.07362   0.08033   0.09563
 Alpha virt. eigenvalues --    0.11636   0.12419   0.14584   0.15727   0.16270
 Alpha virt. eigenvalues --    0.18821   0.20256   0.21629   0.22814   0.23918

 Mulliken charges:
               1
     1  C   -0.171616
     2  C   -0.031113
     3  C   -0.031370
     4  C   -0.173560
     5  H    0.091314
     6  H    0.059912
     7  H    0.052571
     8  H    0.052565
     9  H    0.067436
    10  H    0.083862
 Sum of Mulliken charges =   0.00000

 Dipole moment (field-independent basis, Debye):
    X=              0.0035    Y=             -0.0304    Z=              0.1395  Tot=              0.1428
 Quadrupole moment (field-independent basis, Debye-Ang):
   XX=            -23.3825   YY=            -23.1397   ZZ=            -29.2871
   XY=             -0.0301   XZ=              0.0136   YZ=             -0.0760

 1\1\GINC-NODE03\SP\RB2PLYPD3-FC\def2QZVP\C4H6\BOITTIER\26-Aug-2020\0\\
 #p B2PLYPD3/Def2QZVP\\butadiene\\0,1\C,0,-3.847609,0.222942,0.02645\C,
 0,-2.736609,-0.505783,0.013621\C,0,-1.37823,0.062676,0.014052\C,0,-0.2
 51867,-0.64798,0.030308\H,0,-4.828983,-0.215925,0.08593\H,0,-3.752002,
 1.339352,-0.020761\H,0,-2.815526,-1.599968,0.128376\H,0,-1.305189,1.14
 9808,-0.009815\H,0,-0.231484,-1.711174,0.088338\H,0,0.69694,-0.16059,0
 .067785\\Version=ES64L-G09RevD.01\State=1-A\HF=-155.699181\MP2=-155.92
 47986\RMSD=5.281e-09\PG=C01 [X(C4H6)]\\@

 Normal termination of Gaussian 09 at Wed Aug 26 21:20:09 2020.
