 Gaussian 09, Revision D.01,
 Gaussian 09:  ES64L-G09RevD.01 24-Apr-2013

 --------------------
 #p B2PLYPD3/Def2QZVP
 --------------------

 ---------
 butadiene
 ---------
 Symbolic Z-matrix:
 Charge =  0 Multiplicity = 1

                         Standard orientation:
 ---------------------------------------------------------------------
 Center     Atomic      Atomic             Coordinates (Angstroms)
 Number     Number       Type             X           Y           Z
 ---------------------------------------------------------------------
      1          6           0        1.846732   -0.097295   -0.036772
      2          6           0        0.586976    0.386119    0.046129
      3          6           0       -0.623621   -0.429296    0.094507
      4          6           0       -1.829252    0.115248   -0.089645
      5          1           0        2.616225    0.646595   -0.084522
      6          1           0        2.208524   -1.165820   -0.075509
      7          1           0        0.380248    1.468040    0.048386
      8          1           0       -0.441920   -1.498506    0.006382
      9          1           0       -1.938841    1.218512    0.053318
     10          1           0       -2.709253   -0.517476   -0.033368
 ---------------------------------------------------------------------

 SCF Done:  E(RB2PLYPD3) =  -155.689444928     A.U. after   11 cycles
 E2(B2PLYPD3) =    -0.2272048080D+00 E(B2PLYPD3) =    -0.15591664973565D+03

 The electronic state is 1-A.
 Alpha  occ. eigenvalues --  -10.63054 -10.62592 -10.62170 -10.62002  -0.92809
 Alpha  occ. eigenvalues --   -0.84539  -0.69984  -0.63575  -0.54447  -0.52911
 Alpha  occ. eigenvalues --   -0.46543  -0.45459  -0.40552  -0.37981  -0.27674
 Alpha virt. eigenvalues --    0.01375   0.06996   0.07185   0.08107   0.09096
 Alpha virt. eigenvalues --    0.11512   0.12357   0.14870   0.15390   0.16164
 Alpha virt. eigenvalues --    0.18823   0.19570   0.21700   0.22378   0.24450

 Mulliken charges:
               1
     1  C   -0.181877
     2  C   -0.031297
     3  C   -0.033072
     4  C   -0.162795
     5  H    0.080698
     6  H    0.073253
     7  H    0.051713
     8  H    0.061734
     9  H    0.060700
    10  H    0.080945
 Sum of Mulliken charges =   0.00000

 Dipole moment (field-independent basis, Debye):
    X=              0.0083    Y=             -0.0489    Z=              0.0306  Tot=              0.0582
 Quadrupole moment (field-independent basis, Debye-Ang):
   XX=            -23.8312   YY=            -23.0359   ZZ=            -29.4240
   XY=             -0.4415   XZ=             -0.3943   YZ=              0.1996

 1\1\GINC-NODE20\SP\RB2PLYPD3-FC\def2QZVP\C4H6\BOITTIER\26-Aug-2020\0\\
 #p B2PLYPD3/Def2QZVP\\butadiene\\0,1\C,0,-3.850787,0.222612,-0.028222\
 C,0,-2.703809,-0.484572,0.080775\C,0,-1.361813,0.090962,0.105116\C,0,-
 0.279794,-0.67646,-0.050718\H,0,-4.746089,-0.365298,-0.05202\H,0,-4.00
 6019,1.337661,-0.110133\H,0,-2.703451,-1.585147,0.125813\H,0,-1.340078
 ,1.171039,-0.025086\H,0,-0.378674,-1.774328,0.135153\H,0,0.703243,-0.2
 18027,-0.013465\\Version=ES64L-G09RevD.01\State=1-A\HF=-155.6894449\MP
 2=-155.9166497\RMSD=4.906e-09\PG=C01 [X(C4H6)]\\@

 Normal termination of Gaussian 09 at Wed Aug 26 11:24:55 2020.
