 Gaussian 09, Revision D.01,
 Gaussian 09:  ES64L-G09RevD.01 24-Apr-2013

 --------------------
 #p B2PLYPD3/Def2QZVP
 --------------------

 ---------
 butadiene
 ---------
 Symbolic Z-matrix:
 Charge =  0 Multiplicity = 1

                         Standard orientation:
 ---------------------------------------------------------------------
 Center     Atomic      Atomic             Coordinates (Angstroms)
 Number     Number       Type             X           Y           Z
 ---------------------------------------------------------------------
      1          6           0       -1.831390   -0.110908    0.012207
      2          6           0       -0.595404    0.394993   -0.024371
      3          6           0        0.593845   -0.400306   -0.033963
      4          6           0        1.825563    0.106926    0.017763
      5          1           0       -2.687527    0.542453    0.042154
      6          1           0       -1.993752   -1.164409    0.053853
      7          1           0       -0.483240    1.457151    0.008381
      8          1           0        0.481841   -1.472262   -0.012030
      9          1           0        1.982037    1.185497    0.012617
     10          1           0        2.744953   -0.492660    0.065214
 ---------------------------------------------------------------------

 SCF Done:  E(RB2PLYPD3) =  -155.700396552     A.U. after   11 cycles
 E2(B2PLYPD3) =    -0.2255785663D+00 E(B2PLYPD3) =    -0.15592597511802D+03

 The electronic state is 1-A.
 Alpha  occ. eigenvalues --  -10.62248 -10.62109 -10.61705 -10.61232  -0.93428
 Alpha  occ. eigenvalues --   -0.84907  -0.70273  -0.64456  -0.54684  -0.54204
 Alpha  occ. eigenvalues --   -0.46543  -0.45502  -0.41464  -0.38413  -0.27527
 Alpha virt. eigenvalues --    0.01650   0.07014   0.07490   0.08040   0.09729
 Alpha virt. eigenvalues --    0.11701   0.12511   0.14739   0.15899   0.16232
 Alpha virt. eigenvalues --    0.18750   0.20490   0.21690   0.22808   0.23878

 Mulliken charges:
               1
     1  C   -0.179304
     2  C   -0.027381
     3  C   -0.028790
     4  C   -0.172237
     5  H    0.084896
     6  H    0.067669
     7  H    0.056368
     8  H    0.055441
     9  H    0.060300
    10  H    0.083038
 Sum of Mulliken charges =   0.00000

 Dipole moment (field-independent basis, Debye):
    X=              0.0136    Y=              0.0053    Z=              0.1151  Tot=              0.1160
 Quadrupole moment (field-independent basis, Debye-Ang):
   XX=            -23.4653   YY=            -23.1252   ZZ=            -29.1983
   XY=              0.0673   XZ=             -0.0192   YZ=             -0.0433

 1\1\GINC-NODE31\SP\RB2PLYPD3-FC\def2QZVP\C4H6\BOITTIER\26-Aug-2020\0\\
 #p B2PLYPD3/Def2QZVP\\butadiene\\0,1\C,0,-3.832567,0.224015,0.002182\C
 ,0,-2.708444,-0.495887,0.057167\C,0,-1.394856,0.070879,0.044153\C,0,-0
 .275497,-0.652322,0.01091\H,0,-4.792931,-0.264172,-0.008937\H,0,-3.801
 707,1.287673,-0.072913\H,0,-2.790514,-1.561296,0.058071\H,0,-1.311057,
 1.144179,-0.011717\H,0,-0.316821,-1.7407,0.0503\H,0,0.737054,-0.230869
 ,-0.05351\\Version=ES64L-G09RevD.01\State=1-A\HF=-155.7003966\MP2=-155
 .9259751\RMSD=4.774e-09\PG=C01 [X(C4H6)]\\@

 Normal termination of Gaussian 09 at Wed Aug 26 20:02:09 2020.
