 Gaussian 09, Revision D.01,
 Gaussian 09:  ES64L-G09RevD.01 24-Apr-2013

 --------------------
 #p B2PLYPD3/Def2QZVP
 --------------------

 ---------
 butadiene
 ---------
 Symbolic Z-matrix:
 Charge =  0 Multiplicity = 1

                         Standard orientation:
 ---------------------------------------------------------------------
 Center     Atomic      Atomic             Coordinates (Angstroms)
 Number     Number       Type             X           Y           Z
 ---------------------------------------------------------------------
      1          6           0        1.806967   -0.123550   -0.007645
      2          6           0        0.599048    0.440362   -0.050718
      3          6           0       -0.589962   -0.413382   -0.023928
      4          6           0       -1.827716    0.084639    0.039933
      5          1           0        2.708808    0.475726    0.330717
      6          1           0        1.873813   -1.220148   -0.054485
      7          1           0        0.597601    1.521941   -0.057658
      8          1           0       -0.361314   -1.480630   -0.001861
      9          1           0       -1.981150    1.168273   -0.048257
     10          1           0       -2.767785   -0.393579    0.085693
 ---------------------------------------------------------------------

 SCF Done:  E(RB2PLYPD3) =  -155.687791268     A.U. after   11 cycles
 E2(B2PLYPD3) =    -0.2266617366D+00 E(B2PLYPD3) =    -0.15591445300475D+03

 The electronic state is 1-A.
 Alpha  occ. eigenvalues --  -10.63152 -10.62540 -10.61963 -10.61431  -0.93114
 Alpha  occ. eigenvalues --   -0.84745  -0.69549  -0.64323  -0.54922  -0.53416
 Alpha  occ. eigenvalues --   -0.46424  -0.44612  -0.41515  -0.37888  -0.27544
 Alpha virt. eigenvalues --    0.01751   0.07046   0.07288   0.07990   0.08991
 Alpha virt. eigenvalues --    0.11656   0.12807   0.14239   0.15788   0.16388
 Alpha virt. eigenvalues --    0.18787   0.19826   0.21714   0.22988   0.23990

 Mulliken charges:
               1
     1  C   -0.170948
     2  C   -0.021258
     3  C   -0.040689
     4  C   -0.162423
     5  H    0.077991
     6  H    0.056607
     7  H    0.065933
     8  H    0.057902
     9  H    0.053676
    10  H    0.083208
 Sum of Mulliken charges =   0.00000

 Dipole moment (field-independent basis, Debye):
    X=             -0.0720    Y=              0.0397    Z=              0.1833  Tot=              0.2009
 Quadrupole moment (field-independent basis, Debye-Ang):
   XX=            -23.7092   YY=            -23.2432   ZZ=            -29.1944
   XY=             -0.1146   XZ=              0.7032   YZ=              0.0955

 1\1\GINC-NODE19\SP\RB2PLYPD3-FC\def2QZVP\C4H6\BOITTIER\26-Aug-2020\0\\
 #p B2PLYPD3/Def2QZVP\\butadiene\\0,1\C,0,-3.808043,0.232974,0.025507\C
 ,0,-2.722786,-0.541731,-0.005631\C,0,-1.398532,0.082516,-0.00848\C,0,-
 0.271019,-0.629819,0.065221\H,0,-4.80045,-0.18295,0.384775\H,0,-3.6754
 42,1.321736,-0.053247\H,0,-2.917466,-1.605379,0.019177\H,0,-1.429739,1
 .173727,-0.016874\H,0,-0.317348,-1.725353,0.008291\H,0,0.740535,-0.329
 01,0.093314\\Version=ES64L-G09RevD.01\State=1-A\HF=-155.6877913\MP2=-1
 55.914453\RMSD=3.919e-09\PG=C01 [X(C4H6)]\\@

 Normal termination of Gaussian 09 at Wed Aug 26 15:41:23 2020.
