 Gaussian 09, Revision D.01,
 Gaussian 09:  ES64L-G09RevD.01 24-Apr-2013

 --------------------
 #p B2PLYPD3/Def2QZVP
 --------------------

 ---------
 butadiene
 ---------
 Symbolic Z-matrix:
 Charge =  0 Multiplicity = 1

                         Standard orientation:
 ---------------------------------------------------------------------
 Center     Atomic      Atomic             Coordinates (Angstroms)
 Number     Number       Type             X           Y           Z
 ---------------------------------------------------------------------
      1          6           0       -1.848127    0.106070    0.018370
      2          6           0       -0.592317   -0.384065   -0.015883
      3          6           0        0.619216    0.401892   -0.026271
      4          6           0        1.840309   -0.115898    0.001332
      5          1           0       -2.646146   -0.581824    0.008690
      6          1           0       -2.126487    1.123501    0.091555
      7          1           0       -0.457965   -1.436905   -0.057936
      8          1           0        0.443092    1.494470   -0.098071
      9          1           0        1.954216   -1.159868    0.069448
     10          1           0        2.718805    0.512635    0.121025
 ---------------------------------------------------------------------

 SCF Done:  E(RB2PLYPD3) =  -155.697266325     A.U. after   11 cycles
 E2(B2PLYPD3) =    -0.2254880863D+00 E(B2PLYPD3) =    -0.15592275441148D+03

 The electronic state is 1-A.
 Alpha  occ. eigenvalues --  -10.62509 -10.62342 -10.61192 -10.61136  -0.93137
 Alpha  occ. eigenvalues --   -0.85074  -0.70869  -0.64275  -0.54751  -0.54286
 Alpha  occ. eigenvalues --   -0.46828  -0.46276  -0.41101  -0.38082  -0.27605
 Alpha virt. eigenvalues --    0.01502   0.07005   0.07536   0.08115   0.09684
 Alpha virt. eigenvalues --    0.11719   0.12500   0.15043   0.15716   0.16115
 Alpha virt. eigenvalues --    0.18784   0.20375   0.21973   0.22622   0.23926

 Mulliken charges:
               1
     1  C   -0.181543
     2  C   -0.033632
     3  C   -0.024852
     4  C   -0.173815
     5  H    0.081788
     6  H    0.071433
     7  H    0.055692
     8  H    0.052440
     9  H    0.066022
    10  H    0.086467
 Sum of Mulliken charges =   0.00000

 Dipole moment (field-independent basis, Debye):
    X=             -0.0186    Y=             -0.0107    Z=              0.1096  Tot=              0.1117
 Quadrupole moment (field-independent basis, Debye-Ang):
   XX=            -23.4510   YY=            -23.1269   ZZ=            -29.1503
   XY=             -0.3268   XZ=              0.2759   YZ=              0.0571

 1\1\GINC-NODE31\SP\RB2PLYPD3-FC\def2QZVP\C4H6\BOITTIER\26-Aug-2020\0\\
 #p B2PLYPD3/Def2QZVP\\butadiene\\0,1\C,0,-3.852187,0.226559,0.035235\C
 ,0,-2.706975,-0.48529,0.02021\C,0,-1.372374,0.065743,-0.008928\C,0,-0.
 266236,-0.665106,0.038565\H,0,-4.762358,-0.304153,0.042955\H,0,-3.9400
 67,1.279422,0.077206\H,0,-2.767092,-1.545748,0.009868\H,0,-1.346272,1.
 169482,-0.113722\H,0,-0.344645,-1.709832,0.138003\H,0,0.712418,-0.2041
 37,0.142868\\Version=ES64L-G09RevD.01\State=1-A\HF=-155.6972663\MP2=-1
 55.9227544\RMSD=5.313e-09\PG=C01 [X(C4H6)]\\@

 Normal termination of Gaussian 09 at Wed Aug 26 09:38:18 2020.
