 Gaussian 09, Revision D.01,
 Gaussian 09:  ES64L-G09RevD.01 24-Apr-2013

 --------------------
 #p B2PLYPD3/Def2QZVP
 --------------------

 ---------
 butadiene
 ---------
 Symbolic Z-matrix:
 Charge =  0 Multiplicity = 1

                         Standard orientation:
 ---------------------------------------------------------------------
 Center     Atomic      Atomic             Coordinates (Angstroms)
 Number     Number       Type             X           Y           Z
 ---------------------------------------------------------------------
      1          6           0       -1.838184    0.055829    0.073832
      2          6           0       -0.589386   -0.344989   -0.063510
      3          6           0        0.592345    0.448601   -0.109450
      4          6           0        1.810249   -0.147000    0.029787
      5          1           0       -2.618021   -0.573242   -0.039234
      6          1           0       -1.898814    1.182662    0.213363
      7          1           0       -0.387793   -1.407424   -0.150344
      8          1           0        0.495930    1.552652   -0.032039
      9          1           0        1.838987   -1.229236    0.271119
     10          1           0        2.719568    0.399945    0.153185
 ---------------------------------------------------------------------

 SCF Done:  E(RB2PLYPD3) =  -155.683328930     A.U. after   11 cycles
 E2(B2PLYPD3) =    -0.2268983221D+00 E(B2PLYPD3) =    -0.15591022725248D+03

 The electronic state is 1-A.
 Alpha  occ. eigenvalues --  -10.63131 -10.62310 -10.61758 -10.60849  -0.93581
 Alpha  occ. eigenvalues --   -0.84933  -0.70618  -0.63599  -0.55885  -0.53156
 Alpha  occ. eigenvalues --   -0.47238  -0.44708  -0.41296  -0.38237  -0.27399
 Alpha virt. eigenvalues --    0.01086   0.07117   0.07186   0.08077   0.09598
 Alpha virt. eigenvalues --    0.11759   0.12483   0.14572   0.15739   0.16312
 Alpha virt. eigenvalues --    0.18697   0.20024   0.21061   0.22501   0.23982

 Mulliken charges:
               1
     1  C   -0.191382
     2  C   -0.001954
     3  C   -0.039116
     4  C   -0.162698
     5  H    0.102427
     6  H    0.053860
     7  H    0.042548
     8  H    0.051131
     9  H    0.059658
    10  H    0.085525
 Sum of Mulliken charges =   0.00000

 Dipole moment (field-independent basis, Debye):
    X=              0.1315    Y=             -0.0184    Z=              0.2551  Tot=              0.2876
 Quadrupole moment (field-independent basis, Debye-Ang):
   XX=            -23.9206   YY=            -23.3107   ZZ=            -29.1234
   XY=              0.3627   XZ=              0.8317   YZ=              0.1559

 1\1\GINC-NODE11\SP\RB2PLYPD3-FC\def2QZVP\C4H6\BOITTIER\26-Aug-2020\0\\
 #p B2PLYPD3/Def2QZVP\\butadiene\\0,1\C,0,-3.847138,0.176315,0.090043\C
 ,0,-2.692104,-0.449643,-0.02436\C,0,-1.385502,0.113484,-0.088103\C,0,-
 0.296682,-0.688732,0.080229\H,0,-4.728399,-0.303786,-0.007644\H,0,-3.7
 01613,1.299481,0.191127\H,0,-2.687358,-1.533374,-0.073886\H,0,-1.27923
 7,1.218638,-0.048605\H,0,-0.465915,-1.749148,0.358043\H,0,0.696917,-0.
 312552,0.191978\\Version=ES64L-G09RevD.01\State=1-A\HF=-155.6833289\MP
 2=-155.9102273\RMSD=8.661e-09\PG=C01 [X(C4H6)]\\@

 Normal termination of Gaussian 09 at Wed Aug 26 14:13:09 2020.
