 Gaussian 09, Revision D.01,
 Gaussian 09:  ES64L-G09RevD.01 24-Apr-2013

 --------------------
 #p B2PLYPD3/Def2QZVP
 --------------------

 ---------
 butadiene
 ---------
 Symbolic Z-matrix:
 Charge =  0 Multiplicity = 1

                         Standard orientation:
 ---------------------------------------------------------------------
 Center     Atomic      Atomic             Coordinates (Angstroms)
 Number     Number       Type             X           Y           Z
 ---------------------------------------------------------------------
      1          6           0       -1.824943    0.091323    0.046469
      2          6           0       -0.587371   -0.377423   -0.039043
      3          6           0        0.591511    0.413250   -0.069903
      4          6           0        1.816715   -0.124016    0.062792
      5          1           0       -2.680089   -0.587132   -0.054061
      6          1           0       -1.890045    1.203956    0.359989
      7          1           0       -0.513598   -1.390550   -0.206230
      8          1           0        0.459888    1.487838   -0.335216
      9          1           0        1.990000   -1.207261    0.153322
     10          1           0        2.658375    0.474345    0.080311
 ---------------------------------------------------------------------

 SCF Done:  E(RB2PLYPD3) =  -155.684660925     A.U. after   12 cycles
 E2(B2PLYPD3) =    -0.2263159119D+00 E(B2PLYPD3) =    -0.15591097683707D+03

 The electronic state is 1-A.
 Alpha  occ. eigenvalues --  -10.62749 -10.61990 -10.61423 -10.61114  -0.93643
 Alpha  occ. eigenvalues --   -0.84911  -0.70297  -0.63885  -0.54937  -0.53764
 Alpha  occ. eigenvalues --   -0.46904  -0.44904  -0.41700  -0.37638  -0.27519
 Alpha virt. eigenvalues --    0.01525   0.07188   0.07393   0.07761   0.09383
 Alpha virt. eigenvalues --    0.11720   0.12284   0.14626   0.15513   0.16143
 Alpha virt. eigenvalues --    0.18715   0.19518   0.21321   0.22228   0.24104

 Mulliken charges:
               1
     1  C   -0.188788
     2  C   -0.014731
     3  C   -0.050412
     4  C   -0.176906
     5  H    0.088413
     6  H    0.061557
     7  H    0.060718
     8  H    0.064648
     9  H    0.068024
    10  H    0.087476
 Sum of Mulliken charges =   0.00000

 Dipole moment (field-independent basis, Debye):
    X=              0.1458    Y=             -0.1259    Z=             -0.0891  Tot=              0.2122
 Quadrupole moment (field-independent basis, Debye-Ang):
   XX=            -23.9132   YY=            -23.2525   ZZ=            -28.9767
   XY=              0.2705   XZ=              0.0684   YZ=              0.1664

 1\1\GINC-NODE26\SP\RB2PLYPD3-FC\def2QZVP\C4H6\BOITTIER\26-Aug-2020\0\\
 #p B2PLYPD3/Def2QZVP\\butadiene\\0,1\C,0,-3.829674,0.207208,0.06439\C,
 0,-2.698055,-0.480492,-0.007213\C,0,-1.395313,0.081923,-0.056529\C,0,-
 0.287607,-0.665333,0.09174\H,0,-4.794102,-0.307023,-0.020024\H,0,-3.69
 0689,1.320781,0.34921\H,0,-2.809983,-1.494095,-0.148283\H,0,-1.330481,
 1.155437,-0.349477\H,0,-0.313594,-1.759373,0.210248\H,0,0.648755,-0.22
 9503,0.095202\\Version=ES64L-G09RevD.01\State=1-A\HF=-155.6846609\MP2=
 -155.9109768\RMSD=4.649e-09\PG=C01 [X(C4H6)]\\@

 Normal termination of Gaussian 09 at Wed Aug 26 15:15:06 2020.
