 Gaussian 09, Revision D.01,
 Gaussian 09:  ES64L-G09RevD.01 24-Apr-2013

 --------------------
 #p B2PLYPD3/Def2QZVP
 --------------------

 ---------
 butadiene
 ---------
 Symbolic Z-matrix:
 Charge =  0 Multiplicity = 1

                         Standard orientation:
 ---------------------------------------------------------------------
 Center     Atomic      Atomic             Coordinates (Angstroms)
 Number     Number       Type             X           Y           Z
 ---------------------------------------------------------------------
      1          6           0       -1.816302   -0.139418    0.022107
      2          6           0       -0.609427    0.426562   -0.001572
      3          6           0        0.591670   -0.382026   -0.047049
      4          6           0        1.830264    0.096576    0.020202
      5          1           0       -2.684326    0.503878   -0.055992
      6          1           0       -1.962667   -1.185032    0.117297
      7          1           0       -0.489645    1.534612   -0.105316
      8          1           0        0.474396   -1.467237   -0.039561
      9          1           0        1.988107    1.153553    0.141207
     10          1           0        2.696907   -0.549937   -0.019755
 ---------------------------------------------------------------------

 SCF Done:  E(RB2PLYPD3) =  -155.698229053     A.U. after   11 cycles
 E2(B2PLYPD3) =    -0.2257154395D+00 E(B2PLYPD3) =    -0.15592394449238D+03

 The electronic state is 1-A.
 Alpha  occ. eigenvalues --  -10.62819 -10.62237 -10.61285 -10.61137  -0.93142
 Alpha  occ. eigenvalues --   -0.85031  -0.69972  -0.63846  -0.54430  -0.54243
 Alpha  occ. eigenvalues --   -0.46582  -0.45472  -0.41217  -0.38154  -0.27639
 Alpha virt. eigenvalues --    0.01859   0.07075   0.07310   0.07991   0.09501
 Alpha virt. eigenvalues --    0.11762   0.12371   0.14867   0.15576   0.16284
 Alpha virt. eigenvalues --    0.18684   0.20097   0.21774   0.22780   0.24028

 Mulliken charges:
               1
     1  C   -0.179049
     2  C   -0.031816
     3  C   -0.024765
     4  C   -0.178730
     5  H    0.082676
     6  H    0.075038
     7  H    0.055681
     8  H    0.051486
     9  H    0.062875
    10  H    0.086603
 Sum of Mulliken charges =   0.00000

 Dipole moment (field-independent basis, Debye):
    X=             -0.0468    Y=             -0.0266    Z=              0.0148  Tot=              0.0558
 Quadrupole moment (field-independent basis, Debye-Ang):
   XX=            -23.7468   YY=            -22.9834   ZZ=            -29.2032
   XY=              0.1122   XZ=              0.2216   YZ=             -0.1161

 1\1\GINC-NODE35\SP\RB2PLYPD3-FC\def2QZVP\C4H6\BOITTIER\26-Aug-2020\0\\
 #p B2PLYPD3/Def2QZVP\\butadiene\\0,1\C,0,-3.813511,0.246616,-0.002961\
 C,0,-2.727402,-0.525191,0.043113\C,0,-1.4006,0.056129,0.056573\C,0,-0.
 268278,-0.639009,0.008331\H,0,-4.782152,-0.227114,0.100522\H,0,-3.7708
 81,1.297018,-0.139456\H,0,-2.807308,-1.63187,0.190626\H,0,-1.321636,1.
 143655,0.006144\H,0,-0.303182,-1.711056,-0.07075\H,0,0.700417,-0.15727
 2,0.022684\\Version=ES64L-G09RevD.01\State=1-A\HF=-155.6982291\MP2=-15
 5.9239445\RMSD=6.444e-09\PG=C01 [X(C4H6)]\\@

 Normal termination of Gaussian 09 at Wed Aug 26 09:36:13 2020.
