 Gaussian 09, Revision D.01,
 Gaussian 09:  ES64L-G09RevD.01 24-Apr-2013

 --------------------
 #p B2PLYPD3/Def2QZVP
 --------------------

 ---------
 butadiene
 ---------
 Symbolic Z-matrix:
 Charge =  0 Multiplicity = 1

                         Standard orientation:
 ---------------------------------------------------------------------
 Center     Atomic      Atomic             Coordinates (Angstroms)
 Number     Number       Type             X           Y           Z
 ---------------------------------------------------------------------
      1          6           0        1.828280   -0.115777    0.002659
      2          6           0        0.604251    0.406210   -0.010074
      3          6           0       -0.595521   -0.392713   -0.013337
      4          6           0       -1.841052    0.096332    0.013152
      5          1           0        2.692306    0.520584    0.005450
      6          1           0        2.001496   -1.164443    0.077660
      7          1           0        0.468964    1.493273   -0.038613
      8          1           0       -0.420398   -1.446720   -0.036814
      9          1           0       -2.020848    1.162198    0.058785
     10          1           0       -2.697276   -0.529206   -0.020874
 ---------------------------------------------------------------------

 SCF Done:  E(RB2PLYPD3) =  -155.700938775     A.U. after   11 cycles
 E2(B2PLYPD3) =    -0.2253783885D+00 E(B2PLYPD3) =    -0.15592631716368D+03

 The electronic state is 1-A.
 Alpha  occ. eigenvalues --  -10.62405 -10.62217 -10.61307 -10.61185  -0.93235
 Alpha  occ. eigenvalues --   -0.84979  -0.70622  -0.64261  -0.54936  -0.54042
 Alpha  occ. eigenvalues --   -0.46880  -0.45886  -0.41200  -0.38251  -0.27603
 Alpha virt. eigenvalues --    0.01667   0.07039   0.07447   0.08150   0.09693
 Alpha virt. eigenvalues --    0.11730   0.12490   0.14895   0.15903   0.16108
 Alpha virt. eigenvalues --    0.18777   0.20555   0.21797   0.22943   0.23736

 Mulliken charges:
               1
     1  C   -0.178372
     2  C   -0.023675
     3  C   -0.030778
     4  C   -0.178502
     5  H    0.084360
     6  H    0.067485
     7  H    0.052174
     8  H    0.055014
     9  H    0.064370
    10  H    0.087923
 Sum of Mulliken charges =   0.00000

 Dipole moment (field-independent basis, Debye):
    X=              0.0262    Y=             -0.0135    Z=              0.0315  Tot=              0.0431
 Quadrupole moment (field-independent basis, Debye-Ang):
   XX=            -23.4174   YY=            -23.1210   ZZ=            -29.1787
   XY=             -0.2498   XZ=              0.1225   YZ=             -0.0109

 1\1\GINC-NODE25\SP\RB2PLYPD3-FC\def2QZVP\C4H6\BOITTIER\26-Aug-2020\0\\
 #p B2PLYPD3/Def2QZVP\\butadiene\\0,1\C,0,-3.82845,0.23427,0.02309\C,0,
 -2.721272,-0.50399,0.026062\C,0,-1.395128,0.060356,0.001655\C,0,-0.260
 596,-0.648409,0.042935\H,0,-4.794695,-0.232083,0.042809\H,0,-3.805663,
 1.29857,0.068667\H,0,-2.788203,-1.597764,0.027964\H,0,-1.373648,1.1275
 38,-0.051359\H,0,-0.279568,-1.727492,0.118431\H,0,0.69586,-0.192117,-0
 .007712\\Version=ES64L-G09RevD.01\State=1-A\HF=-155.7009388\MP2=-155.9
 263172\RMSD=2.375e-09\PG=C01 [X(C4H6)]\\@

 Normal termination of Gaussian 09 at Wed Aug 26 22:03:45 2020.
