 Gaussian 09, Revision D.01,
 Gaussian 09:  ES64L-G09RevD.01 24-Apr-2013

 --------------------
 #p B2PLYPD3/Def2QZVP
 --------------------

 ---------
 butadiene
 ---------
 Symbolic Z-matrix:
 Charge =  0 Multiplicity = 1

                         Standard orientation:
 ---------------------------------------------------------------------
 Center     Atomic      Atomic             Coordinates (Angstroms)
 Number     Number       Type             X           Y           Z
 ---------------------------------------------------------------------
      1          6           0       -1.831823   -0.128375    0.016989
      2          6           0       -0.597354    0.429957   -0.039313
      3          6           0        0.605578   -0.368455   -0.038283
      4          6           0        1.824968    0.090211    0.025859
      5          1           0       -2.756947    0.449947    0.050264
      6          1           0       -1.912181   -1.183053    0.041404
      7          1           0       -0.432527    1.482401    0.082859
      8          1           0        0.462954   -1.461853   -0.017771
      9          1           0        2.000679    1.157747   -0.043771
     10          1           0        2.629809   -0.585224    0.095503
 ---------------------------------------------------------------------

 SCF Done:  E(RB2PLYPD3) =  -155.696696158     A.U. after   11 cycles
 E2(B2PLYPD3) =    -0.2254857747D+00 E(B2PLYPD3) =    -0.15592218193230D+03

 The electronic state is 1-A.
 Alpha  occ. eigenvalues --  -10.62627 -10.61887 -10.61782 -10.60612  -0.93398
 Alpha  occ. eigenvalues --   -0.85140  -0.70406  -0.64055  -0.54907  -0.54066
 Alpha  occ. eigenvalues --   -0.46939  -0.45733  -0.41146  -0.38290  -0.27679
 Alpha virt. eigenvalues --    0.01743   0.07077   0.07415   0.08127   0.09619
 Alpha virt. eigenvalues --    0.11768   0.12534   0.14741   0.15581   0.16299
 Alpha virt. eigenvalues --    0.18684   0.20022   0.21900   0.23017   0.24322

 Mulliken charges:
               1
     1  C   -0.176396
     2  C   -0.040897
     3  C   -0.007600
     4  C   -0.184206
     5  H    0.086642
     6  H    0.068384
     7  H    0.058704
     8  H    0.041500
     9  H    0.064425
    10  H    0.089444
 Sum of Mulliken charges =   0.00000

 Dipole moment (field-independent basis, Debye):
    X=             -0.0147    Y=             -0.0177    Z=              0.1349  Tot=              0.1369
 Quadrupole moment (field-independent basis, Debye-Ang):
   XX=            -23.5535   YY=            -23.1492   ZZ=            -29.1438
   XY=              0.0898   XZ=             -0.1030   YZ=             -0.0292

 1\1\GINC-NODE25\SP\RB2PLYPD3-FC\def2QZVP\C4H6\BOITTIER\26-Aug-2020\0\\
 #p B2PLYPD3/Def2QZVP\\butadiene\\0,1\C,0,-3.829925,0.244961,-0.005748\
 C,0,-2.717113,-0.526031,0.071962\C,0,-1.38927,0.040358,0.048623\C,0,-0
 .273569,-0.633812,0.002702\H,0,-4.844738,-0.156628,-0.022997\H,0,-3.71
 7621,1.295369,-0.064314\H,0,-2.746396,-1.594286,-0.015817\H,0,-1.33115
 9,1.140248,-0.007463\H,0,-0.294298,-1.712709,0.107141\H,0,0.640266,-0.
 118253,-0.086377\\Version=ES64L-G09RevD.01\State=1-A\HF=-155.6966962\M
 P2=-155.9221819\RMSD=6.707e-09\PG=C01 [X(C4H6)]\\@

 Normal termination of Gaussian 09 at Wed Aug 26 10:05:29 2020.
