 Gaussian 09, Revision D.01,
 Gaussian 09:  ES64L-G09RevD.01 24-Apr-2013

 --------------------
 #p B2PLYPD3/Def2QZVP
 --------------------

 ---------
 butadiene
 ---------
 Symbolic Z-matrix:
 Charge =  0 Multiplicity = 1

                         Standard orientation:
 ---------------------------------------------------------------------
 Center     Atomic      Atomic             Coordinates (Angstroms)
 Number     Number       Type             X           Y           Z
 ---------------------------------------------------------------------
      1          6           0       -1.839806   -0.112833    0.018496
      2          6           0       -0.605481    0.404251   -0.020008
      3          6           0        0.604375   -0.388573   -0.026669
      4          6           0        1.844728    0.101393    0.014278
      5          1           0       -2.762714    0.486192   -0.007085
      6          1           0       -1.984203   -1.193648    0.086007
      7          1           0       -0.471005    1.495686   -0.061668
      8          1           0        0.481799   -1.454181   -0.040405
      9          1           0        1.999030    1.186825    0.108470
     10          1           0        2.714196   -0.546304   -0.001905
 ---------------------------------------------------------------------

 SCF Done:  E(RB2PLYPD3) =  -155.699916594     A.U. after   11 cycles
 E2(B2PLYPD3) =    -0.2260449210D+00 E(B2PLYPD3) =    -0.15592596151497D+03

 The electronic state is 1-A.
 Alpha  occ. eigenvalues --  -10.62798 -10.62315 -10.61979 -10.61720  -0.93039
 Alpha  occ. eigenvalues --   -0.84791  -0.70034  -0.63947  -0.54617  -0.53647
 Alpha  occ. eigenvalues --   -0.46822  -0.45188  -0.41069  -0.38185  -0.27669
 Alpha virt. eigenvalues --    0.01597   0.06987   0.07384   0.07989   0.09670
 Alpha virt. eigenvalues --    0.11633   0.12422   0.14587   0.15891   0.16125
 Alpha virt. eigenvalues --    0.18820   0.20559   0.21418   0.22580   0.23697

 Mulliken charges:
               1
     1  C   -0.171771
     2  C   -0.030922
     3  C   -0.027165
     4  C   -0.176284
     5  H    0.085849
     6  H    0.062379
     7  H    0.052451
     8  H    0.054039
     9  H    0.062974
    10  H    0.088451
 Sum of Mulliken charges =   0.00000

 Dipole moment (field-independent basis, Debye):
    X=             -0.0211    Y=             -0.0318    Z=              0.0481  Tot=              0.0614
 Quadrupole moment (field-independent basis, Debye-Ang):
   XX=            -23.3764   YY=            -23.2263   ZZ=            -29.3108
   XY=              0.0343   XZ=              0.0802   YZ=             -0.0054

 1\1\GINC-NODE10\SP\RB2PLYPD3-FC\def2QZVP\C4H6\BOITTIER\26-Aug-2020\0\\
 #p B2PLYPD3/Def2QZVP\\butadiene\\0,1\C,0,-3.842378,0.225419,-0.000483\
 C,0,-2.720516,-0.503086,0.05541\C,0,-1.388169,0.059893,0.038922\C,0,-0
 .255869,-0.64546,0.01457\H,0,-4.857557,-0.197431,0.042564\H,0,-3.79108
 4,1.312028,-0.101564\H,0,-2.783588,-1.599152,0.13097\H,0,-1.317772,1.1
 30128,0.019544\H,0,-0.298961,-1.74334,-0.04582\H,0,0.715641,-0.163892,
 0.011701\\Version=ES64L-G09RevD.01\State=1-A\HF=-155.6999166\MP2=-155.
 9259615\RMSD=2.932e-09\PG=C01 [X(C4H6)]\\@

 Normal termination of Gaussian 09 at Wed Aug 26 19:07:41 2020.
