 Gaussian 09, Revision D.01,
 Gaussian 09:  ES64L-G09RevD.01 24-Apr-2013

 --------------------
 #p B2PLYPD3/Def2QZVP
 --------------------

 ---------
 butadiene
 ---------
 Symbolic Z-matrix:
 Charge =  0 Multiplicity = 1

                         Standard orientation:
 ---------------------------------------------------------------------
 Center     Atomic      Atomic             Coordinates (Angstroms)
 Number     Number       Type             X           Y           Z
 ---------------------------------------------------------------------
      1          6           0        1.830900    0.110991    0.048157
      2          6           0        0.591352   -0.413934   -0.039787
      3          6           0       -0.598593    0.371276   -0.039345
      4          6           0       -1.834064   -0.103995    0.018390
      5          1           0        2.726623   -0.459689    0.000439
      6          1           0        1.900839    1.217701   -0.034244
      7          1           0        0.504603   -1.480260    0.037051
      8          1           0       -0.422806    1.467811   -0.034928
      9          1           0       -2.040303   -1.131812   -0.029973
     10          1           0       -2.606529    0.600219    0.137162
 ---------------------------------------------------------------------

 SCF Done:  E(RB2PLYPD3) =  -155.695099481     A.U. after   11 cycles
 E2(B2PLYPD3) =    -0.2259066643D+00 E(B2PLYPD3) =    -0.15592100614526D+03

 The electronic state is 1-A.
 Alpha  occ. eigenvalues --  -10.62345 -10.62242 -10.61759 -10.60704  -0.93475
 Alpha  occ. eigenvalues --   -0.85092  -0.70663  -0.64001  -0.54909  -0.54430
 Alpha  occ. eigenvalues --   -0.46629  -0.45510  -0.41422  -0.38411  -0.27479
 Alpha virt. eigenvalues --    0.01423   0.07053   0.07425   0.08106   0.09709
 Alpha virt. eigenvalues --    0.11789   0.12496   0.14818   0.15622   0.16408
 Alpha virt. eigenvalues --    0.18705   0.19609   0.21912   0.23056   0.24263

 Mulliken charges:
               1
     1  C   -0.172286
     2  C   -0.031463
     3  C   -0.014875
     4  C   -0.186402
     5  H    0.088762
     6  H    0.053398
     7  H    0.054328
     8  H    0.044147
     9  H    0.075688
    10  H    0.088702
 Sum of Mulliken charges =   0.00000

 Dipole moment (field-independent basis, Debye):
    X=             -0.0128    Y=             -0.0676    Z=              0.0079  Tot=              0.0693
 Quadrupole moment (field-independent basis, Debye-Ang):
   XX=            -23.6292   YY=            -23.1290   ZZ=            -29.1629
   XY=             -0.0150   XZ=             -0.3671   YZ=              0.0078

 1\1\GINC-NODE30\SP\RB2PLYPD3-FC\def2QZVP\C4H6\BOITTIER\26-Aug-2020\0\\
 #p B2PLYPD3/Def2QZVP\\butadiene\\0,1\C,0,-3.832771,0.230583,-0.026362\
 C,0,-2.709278,-0.509091,0.075644\C,0,-1.396064,0.045334,0.051009\C,0,-
 0.268445,-0.648963,0.005949\H,0,-4.817264,-0.165371,0.038951\H,0,-3.69
 9078,1.333357,0.023685\H,0,-2.81904,-1.575087,0.029959\H,0,-1.368848,1
 .15495,0.014681\H,0,-0.252904,-1.695348,0.084162\H,0,0.618776,-0.10130
 2,-0.134169\\Version=ES64L-G09RevD.01\State=1-A\HF=-155.6950995\MP2=-1
 55.9210061\RMSD=8.054e-09\PG=C01 [X(C4H6)]\\@

 Normal termination of Gaussian 09 at Wed Aug 26 09:15:14 2020.
