 Gaussian 09, Revision D.01,
 Gaussian 09:  ES64L-G09RevD.01 24-Apr-2013

 --------------------
 #p B2PLYPD3/Def2QZVP
 --------------------

 ---------
 butadiene
 ---------
 Symbolic Z-matrix:
 Charge =  0 Multiplicity = 1

                         Standard orientation:
 ---------------------------------------------------------------------
 Center     Atomic      Atomic             Coordinates (Angstroms)
 Number     Number       Type             X           Y           Z
 ---------------------------------------------------------------------
      1          6           0        1.840117    0.108725   -0.003968
      2          6           0        0.606906   -0.400932    0.015586
      3          6           0       -0.599682    0.390358    0.000194
      4          6           0       -1.837833   -0.110375   -0.006669
      5          1           0        2.718526   -0.509254   -0.048557
      6          1           0        1.981133    1.163689   -0.019452
      7          1           0        0.476194   -1.471024    0.020920
      8          1           0       -0.450342    1.479156    0.053564
      9          1           0       -2.083550   -1.133610   -0.002970
     10          1           0       -2.699010    0.544387   -0.034356
 ---------------------------------------------------------------------

 SCF Done:  E(RB2PLYPD3) =  -155.700216679     A.U. after   11 cycles
 E2(B2PLYPD3) =    -0.2254295888D+00 E(B2PLYPD3) =    -0.15592564626789D+03

 The electronic state is 1-A.
 Alpha  occ. eigenvalues --  -10.62656 -10.62278 -10.61244 -10.61239  -0.93132
 Alpha  occ. eigenvalues --   -0.85007  -0.70667  -0.64253  -0.54994  -0.54001
 Alpha  occ. eigenvalues --   -0.46895  -0.45796  -0.41114  -0.38197  -0.27630
 Alpha virt. eigenvalues --    0.01625   0.06995   0.07496   0.08082   0.09714
 Alpha virt. eigenvalues --    0.11679   0.12524   0.14906   0.15832   0.16180
 Alpha virt. eigenvalues --    0.18810   0.20544   0.21969   0.22790   0.23671

 Mulliken charges:
               1
     1  C   -0.176115
     2  C   -0.028221
     3  C   -0.028276
     4  C   -0.176828
     5  H    0.087087
     6  H    0.064492
     7  H    0.054974
     8  H    0.052825
     9  H    0.069801
    10  H    0.080261
 Sum of Mulliken charges =   0.00000

 Dipole moment (field-independent basis, Debye):
    X=             -0.0089    Y=             -0.0353    Z=             -0.0200  Tot=              0.0415
 Quadrupole moment (field-independent basis, Debye-Ang):
   XX=            -23.2940   YY=            -23.1635   ZZ=            -29.1939
   XY=              0.3058   XZ=             -0.1092   YZ=              0.0372

 1\1\GINC-NODE40\SP\RB2PLYPD3-FC\def2QZVP\C4H6\BOITTIER\26-Aug-2020\0\\
 #p B2PLYPD3/Def2QZVP\\butadiene\\0,1\C,0,-3.840443,0.227716,0.023637\C
 ,0,-2.720538,-0.49806,0.021949\C,0,-1.390148,0.060701,0.012958\C,0,-0.
 263635,-0.656356,0.037389\H,0,-4.81633,-0.218467,0.087307\H,0,-3.78725
 5,1.290678,0.004738\H,0,-2.786559,-1.57369,0.051472\H,0,-1.339328,1.15
 6219,-0.075865\H,0,-0.208043,-1.706796,0.067149\H,0,0.702344,-0.168568
 ,0.044744\\Version=ES64L-G09RevD.01\State=1-A\HF=-155.7002167\MP2=-155
 .9256463\RMSD=2.195e-09\PG=C01 [X(C4H6)]\\@

 Normal termination of Gaussian 09 at Wed Aug 26 21:09:30 2020.
