 Gaussian 09, Revision D.01,
 Gaussian 09:  ES64L-G09RevD.01 24-Apr-2013

 --------------------
 #p B2PLYPD3/Def2QZVP
 --------------------

 ---------
 butadiene
 ---------
 Symbolic Z-matrix:
 Charge =  0 Multiplicity = 1

                         Standard orientation:
 ---------------------------------------------------------------------
 Center     Atomic      Atomic             Coordinates (Angstroms)
 Number     Number       Type             X           Y           Z
 ---------------------------------------------------------------------
      1          6           0       -1.838188    0.103999    0.031308
      2          6           0       -0.600780   -0.378393   -0.054045
      3          6           0        0.595745    0.426033   -0.038044
      4          6           0        1.847190   -0.125674    0.048422
      5          1           0       -2.651698   -0.612654    0.092961
      6          1           0       -2.129060    1.123189    0.022779
      7          1           0       -0.490489   -1.482574    0.002646
      8          1           0        0.488777    1.501452   -0.053666
      9          1           0        2.014907   -1.150829   -0.063718
     10          1           0        2.743763    0.465626    0.073154
 ---------------------------------------------------------------------

 SCF Done:  E(RB2PLYPD3) =  -155.695283006     A.U. after   11 cycles
 E2(B2PLYPD3) =    -0.2263170477D+00 E(B2PLYPD3) =    -0.15592160005352D+03

 The electronic state is 1-A.
 Alpha  occ. eigenvalues --  -10.63055 -10.62673 -10.61528 -10.61227  -0.92862
 Alpha  occ. eigenvalues --   -0.84645  -0.70781  -0.64207  -0.54529  -0.54254
 Alpha  occ. eigenvalues --   -0.46163  -0.46038  -0.41423  -0.38011  -0.27276
 Alpha virt. eigenvalues --    0.01257   0.06973   0.07517   0.08001   0.09416
 Alpha virt. eigenvalues --    0.11610   0.12529   0.14974   0.15840   0.16304
 Alpha virt. eigenvalues --    0.18832   0.20236   0.21931   0.22732   0.24069

 Mulliken charges:
               1
     1  C   -0.175771
     2  C   -0.020304
     3  C   -0.044966
     4  C   -0.173718
     5  H    0.076782
     6  H    0.071993
     7  H    0.053989
     8  H    0.062462
     9  H    0.069806
    10  H    0.079726
 Sum of Mulliken charges =   0.00000

 Dipole moment (field-independent basis, Debye):
    X=             -0.0129    Y=              0.0254    Z=             -0.0110  Tot=              0.0305
 Quadrupole moment (field-independent basis, Debye-Ang):
   XX=            -23.4185   YY=            -23.0370   ZZ=            -29.3035
   XY=             -0.3675   XZ=             -0.2716   YZ=              0.0004

 1\1\GINC-NODE13\SP\RB2PLYPD3-FC\def2QZVP\C4H6\BOITTIER\26-Aug-2020\0\\
 #p B2PLYPD3/Def2QZVP\\butadiene\\0,1\C,0,-3.841408,0.220548,0.054588\C
 ,0,-2.712993,-0.481643,-0.014507\C,0,-1.390017,0.091605,-0.026665\C,0,
 -0.259273,-0.675443,0.078343\H,0,-4.771288,-0.333539,0.141196\H,0,-3.9
 4207,1.274776,0.011021\H,0,-2.805038,-1.584891,0.080186\H,0,-1.299666,
 1.167373,-0.079322\H,0,-0.281591,-1.717198,0.00156\H,0,0.73005,-0.2567
 38,0.082362\\Version=ES64L-G09RevD.01\State=1-A\HF=-155.695283\MP2=-15
 5.9216001\RMSD=8.312e-09\PG=C01 [X(C4H6)]\\@

 Normal termination of Gaussian 09 at Wed Aug 26 09:54:40 2020.
