 Gaussian 09, Revision D.01,
 Gaussian 09:  ES64L-G09RevD.01 24-Apr-2013

 --------------------
 #p B2PLYPD3/Def2QZVP
 --------------------

 ---------
 butadiene
 ---------
 Symbolic Z-matrix:
 Charge =  0 Multiplicity = 1

                         Standard orientation:
 ---------------------------------------------------------------------
 Center     Atomic      Atomic             Coordinates (Angstroms)
 Number     Number       Type             X           Y           Z
 ---------------------------------------------------------------------
      1          6           0        1.850225   -0.105828   -0.001470
      2          6           0        0.602275    0.391717   -0.014288
      3          6           0       -0.611135   -0.395532   -0.026975
      4          6           0       -1.845001    0.112446    0.011141
      5          1           0        2.716064    0.524498    0.052351
      6          1           0        1.996412   -1.159596    0.052998
      7          1           0        0.464208    1.469959    0.030167
      8          1           0       -0.453170   -1.458896   -0.007733
      9          1           0       -2.045949    1.169786   -0.014869
     10          1           0       -2.655752   -0.562568    0.076647
 ---------------------------------------------------------------------

 SCF Done:  E(RB2PLYPD3) =  -155.700080083     A.U. after   11 cycles
 E2(B2PLYPD3) =    -0.2255604763D+00 E(B2PLYPD3) =    -0.15592564055931D+03

 The electronic state is 1-A.
 Alpha  occ. eigenvalues --  -10.62481 -10.62338 -10.61339 -10.61277  -0.93041
 Alpha  occ. eigenvalues --   -0.85007  -0.70684  -0.64179  -0.54728  -0.54207
 Alpha  occ. eigenvalues --   -0.46885  -0.46072  -0.41195  -0.38083  -0.27586
 Alpha virt. eigenvalues --    0.01523   0.07018   0.07493   0.08141   0.09706
 Alpha virt. eigenvalues --    0.11728   0.12429   0.14875   0.15885   0.16076
 Alpha virt. eigenvalues --    0.18816   0.20563   0.21655   0.22937   0.23839

 Mulliken charges:
               1
     1  C   -0.179981
     2  C   -0.025168
     3  C   -0.031005
     4  C   -0.179461
     5  H    0.088160
     6  H    0.064055
     7  H    0.050144
     8  H    0.053452
     9  H    0.072694
    10  H    0.087111
 Sum of Mulliken charges =   0.00000

 Dipole moment (field-independent basis, Debye):
    X=             -0.0286    Y=             -0.0055    Z=              0.1462  Tot=              0.1491
 Quadrupole moment (field-independent basis, Debye-Ang):
   XX=            -23.4770   YY=            -23.0895   ZZ=            -29.2146
   XY=             -0.1892   XZ=              0.0895   YZ=             -0.0663

 1\1\GINC-NODE26\SP\RB2PLYPD3-FC\def2QZVP\C4H6\BOITTIER\26-Aug-2020\0\\
 #p B2PLYPD3/Def2QZVP\\butadiene\\0,1\C,0,-3.852893,0.225258,0.022578\C
 ,0,-2.716042,-0.490747,0.023862\C,0,-1.379951,0.06253,-0.008251\C,0,-0
 .258648,-0.65986,0.044209\H,0,-4.818547,-0.235798,0.092033\H,0,-3.8051
 69,1.289103,0.049422\H,0,-2.775812,-1.574625,0.096538\H,0,-1.342203,1.
 137038,-0.016882\H,0,-0.253059,-1.736424,0.045956\H,0,0.661405,-0.1417
 94,0.092826\\Version=ES64L-G09RevD.01\State=1-A\HF=-155.7000801\MP2=-1
 55.9256406\RMSD=2.594e-09\PG=C01 [X(C4H6)]\\@

 Normal termination of Gaussian 09 at Wed Aug 26 22:00:28 2020.
