 Gaussian 09, Revision D.01,
 Gaussian 09:  ES64L-G09RevD.01 24-Apr-2013

 --------------------
 #p B2PLYPD3/Def2QZVP
 --------------------

 ---------
 butadiene
 ---------
 Symbolic Z-matrix:
 Charge =  0 Multiplicity = 1

                         Standard orientation:
 ---------------------------------------------------------------------
 Center     Atomic      Atomic             Coordinates (Angstroms)
 Number     Number       Type             X           Y           Z
 ---------------------------------------------------------------------
      1          6           0        1.839417   -0.131017   -0.071138
      2          6           0        0.583632    0.473493    0.067788
      3          6           0       -0.588753   -0.369897   -0.003934
      4          6           0       -1.838848    0.066981   -0.020156
      5          1           0        2.918669    0.393744   -0.066688
      6          1           0        1.890011   -1.234398    0.162608
      7          1           0        0.385866    1.557768    0.027037
      8          1           0       -0.384336   -1.485229    0.120277
      9          1           0       -2.097495    1.118254    0.039978
     10          1           0       -2.685401   -0.587496   -0.118573
 ---------------------------------------------------------------------

 SCF Done:  E(RB2PLYPD3) =  -155.674413604     A.U. after   12 cycles
 E2(B2PLYPD3) =    -0.2292414218D+00 E(B2PLYPD3) =    -0.15590365502630D+03

 The electronic state is 1-A.
 Alpha  occ. eigenvalues --  -10.64413 -10.64185 -10.63041 -10.61372  -0.92813
 Alpha  occ. eigenvalues --   -0.83735  -0.69572  -0.63547  -0.54059  -0.52673
 Alpha  occ. eigenvalues --   -0.46393  -0.44064  -0.41202  -0.37786  -0.27172
 Alpha virt. eigenvalues --    0.00734   0.06790   0.07069   0.07803   0.08836
 Alpha virt. eigenvalues --    0.11370   0.12512   0.14269   0.15310   0.16714
 Alpha virt. eigenvalues --    0.18677   0.19363   0.21920   0.22093   0.24085

 Mulliken charges:
               1
     1  C   -0.162176
     2  C   -0.044397
     3  C   -0.005169
     4  C   -0.181197
     5  H    0.072325
     6  H    0.062383
     7  H    0.063962
     8  H    0.047645
     9  H    0.060346
    10  H    0.086277
 Sum of Mulliken charges =   0.00000

 Dipole moment (field-independent basis, Debye):
    X=             -0.0820    Y=              0.0467    Z=              0.1935  Tot=              0.2153
 Quadrupole moment (field-independent basis, Debye-Ang):
   XX=            -23.4503   YY=            -23.4528   ZZ=            -29.6091
   XY=             -0.4150   XZ=              0.2714   YZ=             -0.2590

 1\1\GINC-NODE11\SP\RB2PLYPD3-FC\def2QZVP\C4H6\BOITTIER\26-Aug-2020\0\\
 #p B2PLYPD3/Def2QZVP\\butadiene\\0,1\C,0,-3.834086,0.260959,-0.044033\
 C,0,-2.713383,-0.566055,0.103616\C,0,-1.403954,0.041391,0.017915\C,0,-
 0.25797,-0.622296,0.007802\H,0,-4.992548,-0.052037,-0.030666\H,0,-3.67
 6136,1.357715,0.172357\H,0,-2.722504,-1.668676,0.079807\H,0,-1.395248,
 1.177042,0.12469\H,0,-0.200746,-1.702371,0.084308\H,0,0.695899,-0.1397
 17,-0.101419\\Version=ES64L-G09RevD.01\State=1-A\HF=-155.6744136\MP2=-
 155.903655\RMSD=6.104e-09\PG=C01 [X(C4H6)]\\@

 Normal termination of Gaussian 09 at Wed Aug 26 14:38:32 2020.
