 Gaussian 09, Revision D.01,
 Gaussian 09:  ES64L-G09RevD.01 24-Apr-2013

 --------------------
 #p B2PLYPD3/Def2QZVP
 --------------------

 ---------
 butadiene
 ---------
 Symbolic Z-matrix:
 Charge =  0 Multiplicity = 1

                         Standard orientation:
 ---------------------------------------------------------------------
 Center     Atomic      Atomic             Coordinates (Angstroms)
 Number     Number       Type             X           Y           Z
 ---------------------------------------------------------------------
      1          6           0        1.829106    0.097431    0.008172
      2          6           0        0.597965   -0.386073   -0.029356
      3          6           0       -0.597693    0.415386   -0.023399
      4          6           0       -1.822512   -0.118152    0.020854
      5          1           0        2.693634   -0.556686    0.136684
      6          1           0        2.007356    1.180863    0.009461
      7          1           0        0.462119   -1.464138   -0.060836
      8          1           0       -0.473133    1.490311   -0.024134
      9          1           0       -1.983633   -1.183580    0.016196
     10          1           0       -2.747536    0.481687    0.064995
 ---------------------------------------------------------------------

 SCF Done:  E(RB2PLYPD3) =  -155.699912994     A.U. after   11 cycles
 E2(B2PLYPD3) =    -0.2257133282D+00 E(B2PLYPD3) =    -0.15592562632186D+03

 The electronic state is 1-A.
 Alpha  occ. eigenvalues --  -10.62492 -10.62190 -10.61744 -10.61506  -0.93333
 Alpha  occ. eigenvalues --   -0.84892  -0.70000  -0.64133  -0.54598  -0.53856
 Alpha  occ. eigenvalues --   -0.46741  -0.45172  -0.41193  -0.38337  -0.27667
 Alpha virt. eigenvalues --    0.01786   0.06995   0.07374   0.08010   0.09666
 Alpha virt. eigenvalues --    0.11682   0.12463   0.14673   0.15823   0.16198
 Alpha virt. eigenvalues --    0.18755   0.20373   0.21739   0.22737   0.23774

 Mulliken charges:
               1
     1  C   -0.175401
     2  C   -0.022919
     3  C   -0.033335
     4  C   -0.171614
     5  H    0.084970
     6  H    0.061802
     7  H    0.053748
     8  H    0.057199
     9  H    0.064777
    10  H    0.080773
 Sum of Mulliken charges =   0.00000

 Dipole moment (field-independent basis, Debye):
    X=             -0.0409    Y=             -0.0172    Z=              0.0928  Tot=              0.1029
 Quadrupole moment (field-independent basis, Debye-Ang):
   XX=            -23.5403   YY=            -23.1384   ZZ=            -29.2231
   XY=              0.1685   XZ=              0.1923   YZ=             -0.0254

 1\1\GINC-NODE37\SP\RB2PLYPD3-FC\def2QZVP\C4H6\BOITTIER\26-Aug-2020\0\\
 #p B2PLYPD3/Def2QZVP\\butadiene\\0,1\C,0,-3.832495,0.212095,0.005361\C
 ,0,-2.709685,-0.485885,0.060275\C,0,-1.388276,0.084434,0.036091\C,0,-0
 .280925,-0.663849,0.010618\H,0,-4.80175,-0.277312,-0.107858\H,0,-3.810
 84,1.309418,-0.026456\H,0,-2.772007,-1.569387,0.121984\H,0,-1.315369,1
 .163694,0.006709\H,0,-0.316144,-1.740268,0.045249\H,0,0.737641,-0.2435
 85,-0.04705\\Version=ES64L-G09RevD.01\State=1-A\HF=-155.699913\MP2=-15
 5.9256263\RMSD=5.227e-09\PG=C01 [X(C4H6)]\\@

 Normal termination of Gaussian 09 at Wed Aug 26 10:39:27 2020.
