 Gaussian 09, Revision D.01,
 Gaussian 09:  ES64L-G09RevD.01 24-Apr-2013

 --------------------
 #p B2PLYPD3/Def2QZVP
 --------------------

 ---------
 butadiene
 ---------
 Symbolic Z-matrix:
 Charge =  0 Multiplicity = 1

                         Standard orientation:
 ---------------------------------------------------------------------
 Center     Atomic      Atomic             Coordinates (Angstroms)
 Number     Number       Type             X           Y           Z
 ---------------------------------------------------------------------
      1          6           0       -1.837566    0.102121   -0.002030
      2          6           0       -0.598143   -0.395138    0.007475
      3          6           0        0.598417    0.410586    0.009742
      4          6           0        1.838940   -0.108552   -0.011432
      5          1           0       -2.656536   -0.569187   -0.044378
      6          1           0       -2.023191    1.175600   -0.051496
      7          1           0       -0.450905   -1.452336    0.082570
      8          1           0        0.419972    1.473569    0.047325
      9          1           0        1.977889   -1.181683   -0.060212
     10          1           0        2.722886    0.499931    0.003662
 ---------------------------------------------------------------------

 SCF Done:  E(RB2PLYPD3) =  -155.700242460     A.U. after   11 cycles
 E2(B2PLYPD3) =    -0.2257342055D+00 E(B2PLYPD3) =    -0.15592597666536D+03

 The electronic state is 1-A.
 Alpha  occ. eigenvalues --  -10.62469 -10.62128 -10.61625 -10.61317  -0.93160
 Alpha  occ. eigenvalues --   -0.84806  -0.70498  -0.64310  -0.54785  -0.53898
 Alpha  occ. eigenvalues --   -0.46718  -0.45960  -0.41396  -0.38107  -0.27506
 Alpha virt. eigenvalues --    0.01573   0.07050   0.07417   0.08173   0.09583
 Alpha virt. eigenvalues --    0.11743   0.12437   0.14812   0.15767   0.16113
 Alpha virt. eigenvalues --    0.18726   0.20393   0.21722   0.22932   0.23957

 Mulliken charges:
               1
     1  C   -0.182274
     2  C   -0.024620
     3  C   -0.032047
     4  C   -0.177960
     5  H    0.087151
     6  H    0.066573
     7  H    0.055241
     8  H    0.054761
     9  H    0.065221
    10  H    0.087954
 Sum of Mulliken charges =   0.00000

 Dipole moment (field-independent basis, Debye):
    X=              0.0093    Y=             -0.0132    Z=             -0.0148  Tot=              0.0219
 Quadrupole moment (field-independent basis, Debye-Ang):
   XX=            -23.5708   YY=            -23.0662   ZZ=            -29.2379
   XY=             -0.1961   XZ=              0.1158   YZ=              0.0038

 1\1\GINC-NODE37\SP\RB2PLYPD3-FC\def2QZVP\C4H6\BOITTIER\26-Aug-2020\0\\
 #p B2PLYPD3/Def2QZVP\\butadiene\\0,1\C,0,-3.839675,0.223345,0.014616\C
 ,0,-2.713203,-0.493463,0.042401\C,0,-1.388567,0.077456,0.023855\C,0,-0
 .265135,-0.661966,0.021632\H,0,-4.768523,-0.286363,-0.009883\H,0,-3.82
 4271,1.310676,-0.067451\H,0,-2.76326,-1.556953,0.149493\H,0,-1.367797,
 1.155755,0.029132\H,0,-0.326626,-1.743285,0.005358\H,0,0.71591,-0.2267
 76,0.020948\\Version=ES64L-G09RevD.01\State=1-A\HF=-155.7002425\MP2=-1
 55.9259767\RMSD=4.295e-09\PG=C01 [X(C4H6)]\\@

 Normal termination of Gaussian 09 at Wed Aug 26 16:31:41 2020.
