 Gaussian 09, Revision D.01,
 Gaussian 09:  ES64L-G09RevD.01 24-Apr-2013

 --------------------
 #p B2PLYPD3/Def2QZVP
 --------------------

 ---------
 butadiene
 ---------
 Symbolic Z-matrix:
 Charge =  0 Multiplicity = 1

                         Standard orientation:
 ---------------------------------------------------------------------
 Center     Atomic      Atomic             Coordinates (Angstroms)
 Number     Number       Type             X           Y           Z
 ---------------------------------------------------------------------
      1          6           0       -1.819492    0.089642    0.028926
      2          6           0       -0.585517   -0.379123   -0.046647
      3          6           0        0.593158    0.433469   -0.048231
      4          6           0        1.824994   -0.120295    0.056432
      5          1           0       -2.687998   -0.589561    0.156789
      6          1           0       -2.064675    1.115342    0.004788
      7          1           0       -0.436113   -1.423166   -0.088465
      8          1           0        0.405161    1.487249   -0.047802
      9          1           0        1.958791   -1.176624   -0.038644
     10          1           0        2.745979    0.444598    0.070448
 ---------------------------------------------------------------------

 SCF Done:  E(RB2PLYPD3) =  -155.696226438     A.U. after   11 cycles
 E2(B2PLYPD3) =    -0.2257081627D+00 E(B2PLYPD3) =    -0.15592193460067D+03

 The electronic state is 1-A.
 Alpha  occ. eigenvalues --  -10.62604 -10.61716 -10.61708 -10.61189  -0.93518
 Alpha  occ. eigenvalues --   -0.84694  -0.70600  -0.64949  -0.54845  -0.53921
 Alpha  occ. eigenvalues --   -0.46880  -0.45768  -0.41454  -0.38219  -0.27394
 Alpha virt. eigenvalues --    0.01517   0.06986   0.07503   0.08171   0.09524
 Alpha virt. eigenvalues --    0.11730   0.12608   0.14904   0.15795   0.16302
 Alpha virt. eigenvalues --    0.18795   0.20154   0.22045   0.22756   0.24108

 Mulliken charges:
               1
     1  C   -0.180779
     2  C   -0.015088
     3  C   -0.042073
     4  C   -0.171041
     5  H    0.076558
     6  H    0.066286
     7  H    0.059582
     8  H    0.060689
     9  H    0.065351
    10  H    0.080514
 Sum of Mulliken charges =   0.00000

 Dipole moment (field-independent basis, Debye):
    X=              0.0129    Y=              0.0108    Z=             -0.0253  Tot=              0.0304
 Quadrupole moment (field-independent basis, Debye-Ang):
   XX=            -23.4719   YY=            -23.1727   ZZ=            -29.1450
   XY=             -0.4325   XZ=             -0.3097   YZ=              0.0327

 1\1\GINC-NODE34\SP\RB2PLYPD3-FC\def2QZVP\C4H6\BOITTIER\26-Aug-2020\0\\
 #p B2PLYPD3/Def2QZVP\\butadiene\\0,1\C,0,-3.824616,0.212348,0.053245\C
 ,0,-2.70056,-0.481069,-0.008551\C,0,-1.390789,0.096252,-0.036524\C,0,-
 0.283531,-0.674697,0.084494\H,0,-4.80392,-0.288154,0.203013\H,0,-3.873
 876,1.264576,-0.002849\H,0,-2.749254,-1.535413,-0.017731\H,0,-1.378461
 ,1.166107,-0.068988\H,0,-0.350206,-1.739817,0.022479\H,0,0.726896,-0.2
 91901,0.080078\\Version=ES64L-G09RevD.01\State=1-A\HF=-155.6962264\MP2
 =-155.9219346\RMSD=7.407e-09\PG=C01 [X(C4H6)]\\@

 Normal termination of Gaussian 09 at Wed Aug 26 11:10:06 2020.
