 Gaussian 09, Revision D.01,
 Gaussian 09:  ES64L-G09RevD.01 24-Apr-2013

 --------------------
 #p B2PLYPD3/Def2QZVP
 --------------------

 ---------
 butadiene
 ---------
 Symbolic Z-matrix:
 Charge =  0 Multiplicity = 1

                         Standard orientation:
 ---------------------------------------------------------------------
 Center     Atomic      Atomic             Coordinates (Angstroms)
 Number     Number       Type             X           Y           Z
 ---------------------------------------------------------------------
      1          6           0       -1.837770    0.113620    0.019782
      2          6           0       -0.602280   -0.401681   -0.027886
      3          6           0        0.621241    0.393202   -0.040843
      4          6           0        1.834989   -0.104871    0.009386
      5          1           0       -2.678303   -0.520289   -0.046336
      6          1           0       -2.001255    1.198360    0.176857
      7          1           0       -0.486971   -1.443414   -0.007146
      8          1           0        0.465072    1.457076   -0.081265
      9          1           0        1.883097   -1.194578    0.120444
     10          1           0        2.721283    0.501225    0.074815
 ---------------------------------------------------------------------

 SCF Done:  E(RB2PLYPD3) =  -155.696784224     A.U. after   11 cycles
 E2(B2PLYPD3) =    -0.2252369759D+00 E(B2PLYPD3) =    -0.15592202120015D+03

 The electronic state is 1-A.
 Alpha  occ. eigenvalues --  -10.62158 -10.61973 -10.61538 -10.61230  -0.93247
 Alpha  occ. eigenvalues --   -0.85274  -0.70050  -0.64363  -0.54922  -0.53965
 Alpha  occ. eigenvalues --   -0.47065  -0.45557  -0.41182  -0.38087  -0.27857
 Alpha virt. eigenvalues --    0.01877   0.07038   0.07452   0.08161   0.09645
 Alpha virt. eigenvalues --    0.11759   0.12468   0.14660   0.15728   0.16290
 Alpha virt. eigenvalues --    0.18713   0.20126   0.21576   0.22813   0.24084

 Mulliken charges:
               1
     1  C   -0.180159
     2  C   -0.038379
     3  C   -0.021038
     4  C   -0.172080
     5  H    0.088302
     6  H    0.066200
     7  H    0.056638
     8  H    0.051584
     9  H    0.057565
    10  H    0.091368
 Sum of Mulliken charges =   0.00000

 Dipole moment (field-independent basis, Debye):
    X=             -0.0151    Y=              0.0040    Z=              0.1770  Tot=              0.1777
 Quadrupole moment (field-independent basis, Debye-Ang):
   XX=            -23.5855   YY=            -23.1776   ZZ=            -29.1105
   XY=              0.1702   XZ=              0.2143   YZ=              0.0751

 1\1\GINC-NODE31\SP\RB2PLYPD3-FC\def2QZVP\C4H6\BOITTIER\26-Aug-2020\0\\
 #p B2PLYPD3/Def2QZVP\\butadiene\\0,1\C,0,-3.842178,0.224052,0.039903\C
 ,0,-2.718016,-0.503693,0.010083\C,0,-1.372738,0.060474,-0.020791\C,0,-
 0.266731,-0.643781,0.046713\H,0,-4.782103,-0.251982,-0.011484\H,0,-3.8
 10006,1.324466,0.16685\H,0,-2.789629,-1.548373,0.059564\H,0,-1.337436,
 1.133656,-0.090676\H,0,-0.412835,-1.721241,0.18758\H,0,0.713283,-0.203
 257,0.098309\\Version=ES64L-G09RevD.01\State=1-A\HF=-155.6967842\MP2=-
 155.9220212\RMSD=5.729e-09\PG=C01 [X(C4H6)]\\@

 Normal termination of Gaussian 09 at Wed Aug 26 10:28:10 2020.
