 Gaussian 09, Revision D.01,
 Gaussian 09:  ES64L-G09RevD.01 24-Apr-2013

 --------------------
 #p B2PLYPD3/Def2QZVP
 --------------------

 ---------
 butadiene
 ---------
 Symbolic Z-matrix:
 Charge =  0 Multiplicity = 1

                         Standard orientation:
 ---------------------------------------------------------------------
 Center     Atomic      Atomic             Coordinates (Angstroms)
 Number     Number       Type             X           Y           Z
 ---------------------------------------------------------------------
      1          6           0        1.832009    0.105919   -0.017578
      2          6           0        0.607163   -0.403949    0.004163
      3          6           0       -0.602095    0.414358    0.022453
      4          6           0       -1.834521   -0.115621   -0.026750
      5          1           0        2.707221   -0.517987    0.015491
      6          1           0        1.973428    1.159932   -0.058868
      7          1           0        0.449527   -1.468817    0.099984
      8          1           0       -0.459844    1.504063    0.070885
      9          1           0       -1.991544   -1.194399   -0.043530
     10          1           0       -2.694123    0.512961    0.022301
 ---------------------------------------------------------------------

 SCF Done:  E(RB2PLYPD3) =  -155.700565656     A.U. after   11 cycles
 E2(B2PLYPD3) =    -0.2255761470D+00 E(B2PLYPD3) =    -0.15592614180304D+03

 The electronic state is 1-A.
 Alpha  occ. eigenvalues --  -10.62781 -10.62302 -10.61500 -10.61073  -0.92953
 Alpha  occ. eigenvalues --   -0.84943  -0.70126  -0.64091  -0.54636  -0.53991
 Alpha  occ. eigenvalues --   -0.46716  -0.45852  -0.41191  -0.37975  -0.27708
 Alpha virt. eigenvalues --    0.01866   0.07076   0.07354   0.08113   0.09475
 Alpha virt. eigenvalues --    0.11727   0.12468   0.14744   0.15773   0.16152
 Alpha virt. eigenvalues --    0.18750   0.20359   0.21719   0.23031   0.23862

 Mulliken charges:
               1
     1  C   -0.178652
     2  C   -0.024212
     3  C   -0.035743
     4  C   -0.177073
     5  H    0.086300
     6  H    0.066398
     7  H    0.056468
     8  H    0.053267
     9  H    0.066360
    10  H    0.086888
 Sum of Mulliken charges =   0.00000

 Dipole moment (field-independent basis, Debye):
    X=              0.0077    Y=              0.0043    Z=              0.1130  Tot=              0.1134
 Quadrupole moment (field-independent basis, Debye-Ang):
   XX=            -23.5683   YY=            -23.0354   ZZ=            -29.2429
   XY=              0.1935   XZ=             -0.0264   YZ=             -0.0552

 1\1\GINC-NODE21\SP\RB2PLYPD3-FC\def2QZVP\C4H6\BOITTIER\26-Aug-2020\0\\
 #p B2PLYPD3/Def2QZVP\\butadiene\\0,1\C,0,-3.834317,0.22157,0.034386\C,
 0,-2.722237,-0.50225,0.027477\C,0,-1.384762,0.082583,-0.0099\C,0,-0.26
 8647,-0.660583,0.054636\H,0,-4.80821,-0.233997,0.015955\H,0,-3.782237,
 1.284459,0.048555\H,0,-2.760508,-1.580134,-0.040903\H,0,-1.327316,1.17
 8437,-0.086336\H,0,-0.309686,-1.749174,0.099174\H,0,0.690481,-0.199672
 ,-0.009168\\Version=ES64L-G09RevD.01\State=1-A\HF=-155.7005657\MP2=-15
 5.9261418\RMSD=5.115e-09\PG=C01 [X(C4H6)]\\@

 Normal termination of Gaussian 09 at Wed Aug 26 18:32:56 2020.
