 Gaussian 09, Revision D.01,
 Gaussian 09:  ES64L-G09RevD.01 24-Apr-2013

 --------------------
 #p B2PLYPD3/Def2QZVP
 --------------------

 ---------
 butadiene
 ---------
 Symbolic Z-matrix:
 Charge =  0 Multiplicity = 1

                         Standard orientation:
 ---------------------------------------------------------------------
 Center     Atomic      Atomic             Coordinates (Angstroms)
 Number     Number       Type             X           Y           Z
 ---------------------------------------------------------------------
      1          6           0        1.846650   -0.111004   -0.027793
      2          6           0        0.610830    0.400359    0.026989
      3          6           0       -0.617212   -0.402772    0.003676
      4          6           0       -1.845354    0.113712   -0.017038
      5          1           0        2.749901    0.516984    0.014149
      6          1           0        1.990886   -1.182129   -0.059408
      7          1           0        0.469885    1.495633    0.078812
      8          1           0       -0.468214   -1.469064    0.117807
      9          1           0       -2.022823    1.176256   -0.070518
     10          1           0       -2.689116   -0.539452    0.004148
 ---------------------------------------------------------------------

 SCF Done:  E(RB2PLYPD3) =  -155.700033870     A.U. after   11 cycles
 E2(B2PLYPD3) =    -0.2258035414D+00 E(B2PLYPD3) =    -0.15592583741175D+03

 The electronic state is 1-A.
 Alpha  occ. eigenvalues --  -10.62852 -10.62583 -10.61774 -10.61351  -0.92734
 Alpha  occ. eigenvalues --   -0.84927  -0.70027  -0.63876  -0.54463  -0.53840
 Alpha  occ. eigenvalues --   -0.46821  -0.45742  -0.40886  -0.37852  -0.27824
 Alpha virt. eigenvalues --    0.01786   0.07026   0.07383   0.08032   0.09507
 Alpha virt. eigenvalues --    0.11665   0.12383   0.14692   0.15676   0.16159
 Alpha virt. eigenvalues --    0.18807   0.20257   0.21686   0.22820   0.23768

 Mulliken charges:
               1
     1  C   -0.174343
     2  C   -0.032107
     3  C   -0.031461
     4  C   -0.178440
     5  H    0.086471
     6  H    0.064329
     7  H    0.051483
     8  H    0.056907
     9  H    0.070261
    10  H    0.086900
 Sum of Mulliken charges =   0.00000

 Dipole moment (field-independent basis, Debye):
    X=             -0.0254    Y=             -0.0101    Z=              0.0921  Tot=              0.0960
 Quadrupole moment (field-independent basis, Debye-Ang):
   XX=            -23.4621   YY=            -23.1182   ZZ=            -29.2990
   XY=             -0.1895   XZ=              0.0252   YZ=             -0.0704

 1\1\GINC-NODE31\SP\RB2PLYPD3-FC\def2QZVP\C4H6\BOITTIER\26-Aug-2020\0\\
 #p B2PLYPD3/Def2QZVP\\butadiene\\0,1\C,0,-3.850045,0.223218,-0.006058\
 C,0,-2.725183,-0.499064,0.062787\C,0,-1.373589,0.071168,0.021829\C,0,-
 0.257416,-0.656592,0.015313\H,0,-4.850751,-0.232263,0.049755\H,0,-3.80
 088,1.301815,-0.063714\H,0,-2.781838,-1.600342,0.141224\H,0,-1.329545,
 1.149358,0.109986\H,0,-0.272599,-1.734722,-0.012261\H,0,0.689434,-0.16
 4213,0.021918\\Version=ES64L-G09RevD.01\State=1-A\HF=-155.7000339\MP2=
 -155.9258374\RMSD=3.153e-09\PG=C01 [X(C4H6)]\\@

 Normal termination of Gaussian 09 at Wed Aug 26 18:47:45 2020.
