 Gaussian 09, Revision D.01,
 Gaussian 09:  ES64L-G09RevD.01 24-Apr-2013

 --------------------
 #p B2PLYPD3/Def2QZVP
 --------------------

 ---------
 butadiene
 ---------
 Symbolic Z-matrix:
 Charge =  0 Multiplicity = 1

                         Standard orientation:
 ---------------------------------------------------------------------
 Center     Atomic      Atomic             Coordinates (Angstroms)
 Number     Number       Type             X           Y           Z
 ---------------------------------------------------------------------
      1          6           0        1.831107   -0.114600    0.010272
      2          6           0        0.593485    0.403776   -0.001129
      3          6           0       -0.602979   -0.396871   -0.023402
      4          6           0       -1.830151    0.108840    0.023128
      5          1           0        2.707408    0.513332   -0.051448
      6          1           0        2.013442   -1.182869    0.072836
      7          1           0        0.498588    1.507429   -0.039882
      8          1           0       -0.481737   -1.486412   -0.022966
      9          1           0       -1.984640    1.169047    0.042040
     10          1           0       -2.701832   -0.527393   -0.053798
 ---------------------------------------------------------------------

 SCF Done:  E(RB2PLYPD3) =  -155.700053709     A.U. after   11 cycles
 E2(B2PLYPD3) =    -0.2258589763D+00 E(B2PLYPD3) =    -0.15592591268525D+03

 The electronic state is 1-A.
 Alpha  occ. eigenvalues --  -10.62758 -10.62413 -10.61574 -10.61232  -0.93155
 Alpha  occ. eigenvalues --   -0.84910  -0.70170  -0.63829  -0.54550  -0.54123
 Alpha  occ. eigenvalues --   -0.46371  -0.45474  -0.41316  -0.38262  -0.27578
 Alpha virt. eigenvalues --    0.01672   0.07039   0.07343   0.07979   0.09651
 Alpha virt. eigenvalues --    0.11687   0.12438   0.14754   0.15835   0.16203
 Alpha virt. eigenvalues --    0.18751   0.20407   0.21720   0.22660   0.23862

 Mulliken charges:
               1
     1  C   -0.177318
     2  C   -0.029189
     3  C   -0.026678
     4  C   -0.173327
     5  H    0.084429
     6  H    0.065420
     7  H    0.052122
     8  H    0.053905
     9  H    0.065781
    10  H    0.084855
 Sum of Mulliken charges =   0.00000

 Dipole moment (field-independent basis, Debye):
    X=              0.0062    Y=             -0.0048    Z=             -0.0628  Tot=              0.0633
 Quadrupole moment (field-independent basis, Debye-Ang):
   XX=            -23.5314   YY=            -23.0684   ZZ=            -29.2620
   XY=             -0.1071   XZ=              0.0503   YZ=             -0.0701

 1\1\GINC-NODE07\SP\RB2PLYPD3-FC\def2QZVP\C4H6\BOITTIER\26-Aug-2020\0\\
 #p B2PLYPD3/Def2QZVP\\butadiene\\0,1\C,0,-3.833512,0.228014,0.028814\C
 ,0,-2.709596,-0.505035,0.031233\C,0,-1.388522,0.066129,-0.008674\C,0,-
 0.272423,-0.651213,0.051345\H,0,-4.808805,-0.232996,-0.01898\H,0,-3.82
 0173,1.312827,0.065705\H,0,-2.815243,-1.608323,0.018885\H,0,-1.311452,
 1.159382,-0.034327\H,0,-0.311445,-1.721155,0.095682\H,0,0.699389,-0.18
 4486,-0.039671\\Version=ES64L-G09RevD.01\State=1-A\HF=-155.7000537\MP2
 =-155.9259127\RMSD=4.174e-09\PG=C01 [X(C4H6)]\\@

 Normal termination of Gaussian 09 at Wed Aug 26 20:19:03 2020.
