 Gaussian 09, Revision D.01,
 Gaussian 09:  ES64L-G09RevD.01 24-Apr-2013

 --------------------
 #p B2PLYPD3/Def2QZVP
 --------------------

 ---------
 butadiene
 ---------
 Symbolic Z-matrix:
 Charge =  0 Multiplicity = 1

                         Standard orientation:
 ---------------------------------------------------------------------
 Center     Atomic      Atomic             Coordinates (Angstroms)
 Number     Number       Type             X           Y           Z
 ---------------------------------------------------------------------
      1          6           0        1.834120   -0.119174   -0.004890
      2          6           0        0.609485    0.410269    0.005522
      3          6           0       -0.598103   -0.394187   -0.007926
      4          6           0       -1.847422    0.103959    0.008716
      5          1           0        2.695243    0.540650    0.001132
      6          1           0        2.007628   -1.192543    0.070250
      7          1           0        0.489168    1.507886   -0.055236
      8          1           0       -0.427437   -1.471499   -0.047661
      9          1           0       -2.041007    1.154152    0.039784
     10          1           0       -2.712078   -0.543849   -0.016797
 ---------------------------------------------------------------------

 SCF Done:  E(RB2PLYPD3) =  -155.700173178     A.U. after   11 cycles
 E2(B2PLYPD3) =    -0.2260308284D+00 E(B2PLYPD3) =    -0.15592620400597D+03

 The electronic state is 1-A.
 Alpha  occ. eigenvalues --  -10.62734 -10.62667 -10.61641 -10.61502  -0.92897
 Alpha  occ. eigenvalues --   -0.84769  -0.70230  -0.63835  -0.54455  -0.53892
 Alpha  occ. eigenvalues --   -0.46483  -0.45797  -0.41081  -0.38079  -0.27593
 Alpha virt. eigenvalues --    0.01622   0.07015   0.07343   0.08028   0.09529
 Alpha virt. eigenvalues --    0.11693   0.12367   0.14810   0.15819   0.16044
 Alpha virt. eigenvalues --    0.18757   0.20421   0.21662   0.22905   0.23702

 Mulliken charges:
               1
     1  C   -0.176625
     2  C   -0.027362
     3  C   -0.031054
     4  C   -0.178756
     5  H    0.084232
     6  H    0.068237
     7  H    0.053134
     8  H    0.053945
     9  H    0.068592
    10  H    0.085658
 Sum of Mulliken charges =   0.00000

 Dipole moment (field-independent basis, Debye):
    X=              0.0206    Y=              0.0132    Z=             -0.0012  Tot=              0.0245
 Quadrupole moment (field-independent basis, Debye-Ang):
   XX=            -23.5579   YY=            -23.0466   ZZ=            -29.3240
   XY=             -0.2521   XZ=              0.1052   YZ=             -0.0440

 1\1\GINC-NODE35\SP\RB2PLYPD3-FC\def2QZVP\C4H6\BOITTIER\26-Aug-2020\0\\
 #p B2PLYPD3/Def2QZVP\\butadiene\\0,1\C,0,-3.834178,0.23517,0.014709\C,
 0,-2.726009,-0.507453,0.039651\C,0,-1.392479,0.063709,0.00692\C,0,-0.2
 54331,-0.652474,0.037319\H,0,-4.800769,-0.256923,0.036667\H,0,-3.80961
 6,1.323741,0.062464\H,0,-2.807226,-1.609841,0.00684\H,0,-1.364833,1.15
 2759,-0.060261\H,0,-0.254547,-1.719244,0.095169\H,0,0.713481,-0.173324
 ,-0.003816\\Version=ES64L-G09RevD.01\State=1-A\HF=-155.7001732\MP2=-15
 5.926204\RMSD=4.165e-09\PG=C01 [X(C4H6)]\\@

 Normal termination of Gaussian 09 at Wed Aug 26 20:23:18 2020.
