 Gaussian 09, Revision D.01,
 Gaussian 09:  ES64L-G09RevD.01 24-Apr-2013

 --------------------
 #p B2PLYPD3/Def2QZVP
 --------------------

 ---------
 butadiene
 ---------
 Symbolic Z-matrix:
 Charge =  0 Multiplicity = 1

                         Standard orientation:
 ---------------------------------------------------------------------
 Center     Atomic      Atomic             Coordinates (Angstroms)
 Number     Number       Type             X           Y           Z
 ---------------------------------------------------------------------
      1          6           0       -1.861153   -0.129504   -0.057717
      2          6           0       -0.640460    0.415061    0.081273
      3          6           0        0.619339   -0.342515    0.022354
      4          6           0        1.864436    0.100673   -0.066280
      5          1           0       -2.851662    0.330127   -0.065468
      6          1           0       -1.904550   -1.192450   -0.148439
      7          1           0       -0.498504    1.515970    0.159347
      8          1           0        0.613790   -1.421821    0.298224
      9          1           0        2.025289    1.123050   -0.120192
     10          1           0        2.722665   -0.617165   -0.001253
 ---------------------------------------------------------------------

 SCF Done:  E(RB2PLYPD3) =  -155.687508386     A.U. after   11 cycles
 E2(B2PLYPD3) =    -0.2262955084D+00 E(B2PLYPD3) =    -0.15591380389491D+03

 The electronic state is 1-A.
 Alpha  occ. eigenvalues --  -10.63617 -10.62638 -10.62042 -10.61263  -0.92654
 Alpha  occ. eigenvalues --   -0.85285  -0.70195  -0.63578  -0.54540  -0.54060
 Alpha  occ. eigenvalues --   -0.47350  -0.44908  -0.40725  -0.37145  -0.28164
 Alpha virt. eigenvalues --    0.01574   0.06987   0.07490   0.07729   0.09611
 Alpha virt. eigenvalues --    0.11435   0.12601   0.14335   0.15321   0.16536
 Alpha virt. eigenvalues --    0.19079   0.19697   0.21651   0.22052   0.23854

 Mulliken charges:
               1
     1  C   -0.153241
     2  C   -0.059411
     3  C   -0.006359
     4  C   -0.185098
     5  H    0.088833
     6  H    0.062736
     7  H    0.051360
     8  H    0.049449
     9  H    0.065733
    10  H    0.086000
 Sum of Mulliken charges =   0.00000

 Dipole moment (field-independent basis, Debye):
    X=             -0.0906    Y=              0.0098    Z=              0.1596  Tot=              0.1838
 Quadrupole moment (field-independent basis, Debye-Ang):
   XX=            -22.8652   YY=            -23.6370   ZZ=            -29.2004
   XY=             -0.0418   XZ=              0.4008   YZ=             -0.1614

 1\1\GINC-NODE02\SP\RB2PLYPD3-FC\def2QZVP\C4H6\BOITTIER\26-Aug-2020\0\\
 #p B2PLYPD3/Def2QZVP\\butadiene\\0,1\C,0,-3.861877,0.230515,0.076397\C
 ,0,-2.750732,-0.515576,-0.044715\C,0,-1.381407,0.021557,-0.014333\C,0,
 -0.227576,-0.620828,0.088404\H,0,-4.915319,-0.055923,0.101721\H,0,-3.7
 25885,1.288186,0.129371\H,0,-2.795832,-1.626739,-0.083826\H,0,-1.20800
 3,1.076242,-0.328349\H,0,-0.239936,-1.653197,0.178383\H,0,0.738316,-0.
 059807,-0.003161\\Version=ES64L-G09RevD.01\State=1-A\HF=-155.6875084\M
 P2=-155.9138039\RMSD=8.120e-09\PG=C01 [X(C4H6)]\\@

 Normal termination of Gaussian 09 at Wed Aug 26 15:36:20 2020.
