 Gaussian 09, Revision D.01,
 Gaussian 09:  ES64L-G09RevD.01 24-Apr-2013

 --------------------
 #p B2PLYPD3/Def2QZVP
 --------------------

 ---------
 butadiene
 ---------
 Symbolic Z-matrix:
 Charge =  0 Multiplicity = 1

                         Standard orientation:
 ---------------------------------------------------------------------
 Center     Atomic      Atomic             Coordinates (Angstroms)
 Number     Number       Type             X           Y           Z
 ---------------------------------------------------------------------
      1          6           0       -1.834509   -0.106463    0.016766
      2          6           0       -0.596780    0.391779   -0.016485
      3          6           0        0.607832   -0.409541   -0.029616
      4          6           0        1.828533    0.112962    0.012110
      5          1           0       -2.723510    0.525210   -0.030658
      6          1           0       -2.028387   -1.175339    0.118607
      7          1           0       -0.474445    1.482821   -0.048448
      8          1           0        0.494418   -1.473964   -0.061567
      9          1           0        1.936571    1.202420    0.098453
     10          1           0        2.764897   -0.493573    0.026960
 ---------------------------------------------------------------------

 SCF Done:  E(RB2PLYPD3) =  -155.699283588     A.U. after   11 cycles
 E2(B2PLYPD3) =    -0.2259084047D+00 E(B2PLYPD3) =    -0.15592519199310D+03

 The electronic state is 1-A.
 Alpha  occ. eigenvalues --  -10.62652 -10.62285 -10.61940 -10.61670  -0.93166
 Alpha  occ. eigenvalues --   -0.84835  -0.69766  -0.64078  -0.54461  -0.53768
 Alpha  occ. eigenvalues --   -0.46704  -0.45016  -0.41097  -0.38275  -0.27718
 Alpha virt. eigenvalues --    0.01773   0.06984   0.07384   0.07948   0.09616
 Alpha virt. eigenvalues --    0.11642   0.12438   0.14583   0.15898   0.16157
 Alpha virt. eigenvalues --    0.18783   0.20498   0.21469   0.22581   0.23707

 Mulliken charges:
               1
     1  C   -0.175750
     2  C   -0.028884
     3  C   -0.031768
     4  C   -0.168095
     5  H    0.083773
     6  H    0.063951
     7  H    0.053028
     8  H    0.058898
     9  H    0.060776
    10  H    0.084071
 Sum of Mulliken charges =   0.00000

 Dipole moment (field-independent basis, Debye):
    X=              0.0061    Y=             -0.0272    Z=              0.0667  Tot=              0.0723
 Quadrupole moment (field-independent basis, Debye-Ang):
   XX=            -23.4423   YY=            -23.2001   ZZ=            -29.2774
   XY=              0.0428   XZ=              0.1231   YZ=             -0.0487

 1\1\GINC-NODE20\SP\RB2PLYPD3-FC\def2QZVP\C4H6\BOITTIER\26-Aug-2020\0\\
 #p B2PLYPD3/Def2QZVP\\butadiene\\0,1\C,0,-3.839005,0.216084,0.001438\C
 ,0,-2.710148,-0.494205,0.051379\C,0,-1.38164,0.078797,0.040757\C,0,-0.
 274218,-0.654613,0.016496\H,0,-4.826383,-0.244664,0.067618\H,0,-3.8391
 41,1.298752,-0.133789\H,0,-2.784686,-1.588027,0.117382\H,0,-1.30279,1.
 146814,0.039474\H,0,-0.363084,-1.747962,-0.035814\H,0,0.755415,-0.2260
 53,-0.016298\\Version=ES64L-G09RevD.01\State=1-A\HF=-155.6992836\MP2=-
 155.925192\RMSD=2.875e-09\PG=C01 [X(C4H6)]\\@

 Normal termination of Gaussian 09 at Wed Aug 26 21:40:34 2020.
