 Gaussian 09, Revision D.01,
 Gaussian 09:  ES64L-G09RevD.01 24-Apr-2013

 --------------------
 #p B2PLYPD3/Def2QZVP
 --------------------

 ---------
 butadiene
 ---------
 Symbolic Z-matrix:
 Charge =  0 Multiplicity = 1

                         Standard orientation:
 ---------------------------------------------------------------------
 Center     Atomic      Atomic             Coordinates (Angstroms)
 Number     Number       Type             X           Y           Z
 ---------------------------------------------------------------------
      1          6           0       -1.836933   -0.122721   -0.021394
      2          6           0       -0.612886    0.413287    0.005359
      3          6           0        0.607751   -0.389770    0.026159
      4          6           0        1.848560    0.109334   -0.026303
      5          1           0       -2.734770    0.527692    0.023628
      6          1           0       -2.003730   -1.198603   -0.070969
      7          1           0       -0.488181    1.493768    0.094580
      8          1           0        0.465288   -1.451596    0.095779
      9          1           0        2.063517    1.155913   -0.044386
     10          1           0        2.658928   -0.587952   -0.001556
 ---------------------------------------------------------------------

 SCF Done:  E(RB2PLYPD3) =  -155.699731135     A.U. after   11 cycles
 E2(B2PLYPD3) =    -0.2257871207D+00 E(B2PLYPD3) =    -0.15592551825583D+03

 The electronic state is 1-A.
 Alpha  occ. eigenvalues --  -10.62641 -10.62418 -10.61939 -10.61230  -0.92809
 Alpha  occ. eigenvalues --   -0.84868  -0.70012  -0.64109  -0.54280  -0.54007
 Alpha  occ. eigenvalues --   -0.46523  -0.46005  -0.41032  -0.37867  -0.27709
 Alpha virt. eigenvalues --    0.01757   0.06992   0.07428   0.08013   0.09537
 Alpha virt. eigenvalues --    0.11698   0.12282   0.14824   0.15839   0.15971
 Alpha virt. eigenvalues --    0.18788   0.20471   0.21457   0.22690   0.23971

 Mulliken charges:
               1
     1  C   -0.175524
     2  C   -0.032569
     3  C   -0.033530
     4  C   -0.179771
     5  H    0.082085
     6  H    0.068339
     7  H    0.057599
     8  H    0.056641
     9  H    0.072314
    10  H    0.084417
 Sum of Mulliken charges =   0.00000

 Dipole moment (field-independent basis, Debye):
    X=             -0.0121    Y=             -0.0064    Z=              0.1043  Tot=              0.1052
 Quadrupole moment (field-independent basis, Debye-Ang):
   XX=            -23.6834   YY=            -22.9593   ZZ=            -29.2981
   XY=              0.2505   XZ=             -0.0426   YZ=              0.0611

 1\1\GINC-NODE11\SP\RB2PLYPD3-FC\def2QZVP\C4H6\BOITTIER\26-Aug-2020\0\\
 #p B2PLYPD3/Def2QZVP\\butadiene\\0,1\C,0,-3.837621,0.23681,0.037113\C,
 0,-2.729705,-0.510653,0.025611\C,0,-1.384818,0.059576,-0.011915\C,0,-0
 .253606,-0.652711,0.054928\H,0,-4.837708,-0.242799,0.005837\H,0,-3.808
 516,1.326029,0.060655\H,0,-2.801136,-1.597787,-0.03754\H,0,-1.334573,1
 .127763,-0.10715\H,0,-0.229918,-1.720142,0.098421\H,0,0.668682,-0.1129
 71,0.015161\\Version=ES64L-G09RevD.01\State=1-A\HF=-155.6997311\MP2=-1
 55.9255183\RMSD=4.275e-09\PG=C01 [X(C4H6)]\\@

 Normal termination of Gaussian 09 at Wed Aug 26 10:18:20 2020.
