 Gaussian 09, Revision D.01,
 Gaussian 09:  ES64L-G09RevD.01 24-Apr-2013

 --------------------
 #p B2PLYPD3/Def2QZVP
 --------------------

 ---------
 butadiene
 ---------
 Symbolic Z-matrix:
 Charge =  0 Multiplicity = 1

                         Standard orientation:
 ---------------------------------------------------------------------
 Center     Atomic      Atomic             Coordinates (Angstroms)
 Number     Number       Type             X           Y           Z
 ---------------------------------------------------------------------
      1          6           0        1.860512   -0.126418   -0.003942
      2          6           0        0.612082    0.425964    0.026188
      3          6           0       -0.624651   -0.386931   -0.006738
      4          6           0       -1.855251    0.095465   -0.025089
      5          1           0        2.705393    0.505096    0.028437
      6          1           0        2.023592   -1.224710   -0.102859
      7          1           0        0.500657    1.501756    0.004882
      8          1           0       -0.454800   -1.450581    0.066988
      9          1           0       -2.013798    1.200101   -0.048789
     10          1           0       -2.717198   -0.580142    0.108830
 ---------------------------------------------------------------------

 SCF Done:  E(RB2PLYPD3) =  -155.695452473     A.U. after   11 cycles
 E2(B2PLYPD3) =    -0.2264628437D+00 E(B2PLYPD3) =    -0.15592191531688D+03

 The electronic state is 1-A.
 Alpha  occ. eigenvalues --  -10.63212 -10.62454 -10.62132 -10.61905  -0.92425
 Alpha  occ. eigenvalues --   -0.84682  -0.69757  -0.63819  -0.54211  -0.53526
 Alpha  occ. eigenvalues --   -0.46618  -0.45662  -0.40938  -0.37647  -0.27720
 Alpha virt. eigenvalues --    0.01592   0.06976   0.07319   0.08064   0.09341
 Alpha virt. eigenvalues --    0.11660   0.12221   0.14539   0.15691   0.16098
 Alpha virt. eigenvalues --    0.18862   0.20383   0.21128   0.22870   0.23870

 Mulliken charges:
               1
     1  C   -0.177815
     2  C   -0.047169
     3  C   -0.024112
     4  C   -0.172511
     5  H    0.089510
     6  H    0.068227
     7  H    0.057485
     8  H    0.056364
     9  H    0.063113
    10  H    0.086907
 Sum of Mulliken charges =   0.00000

 Dipole moment (field-independent basis, Debye):
    X=              0.0476    Y=              0.0063    Z=              0.0625  Tot=              0.0788
 Quadrupole moment (field-independent basis, Debye-Ang):
   XX=            -23.6803   YY=            -23.0121   ZZ=            -29.4236
   XY=             -0.0797   XZ=             -0.4274   YZ=             -0.0768

 1\1\GINC-NODE31\SP\RB2PLYPD3-FC\def2QZVP\C4H6\BOITTIER\26-Aug-2020\0\\
 #p B2PLYPD3/Def2QZVP\\butadiene\\0,1\C,0,-3.861037,0.24099,0.010091\C,
 0,-2.730919,-0.523854,0.059686\C,0,-1.369197,0.054889,0.013199\C,0,-0.
 244138,-0.639129,0.012549\H,0,-4.804874,-0.229078,0.053573\H,0,-3.8259
 14,1.347994,-0.116133\H,0,-2.812803,-1.602494,0.064927\H,0,-1.346995,1
 .133276,0.060369\H,0,-0.284787,-1.75459,0.016325\H,0,0.724255,-0.12462
 4,0.134334\\Version=ES64L-G09RevD.01\State=1-A\HF=-155.6954525\MP2=-15
 5.9219153\RMSD=6.567e-09\PG=C01 [X(C4H6)]\\@

 Normal termination of Gaussian 09 at Wed Aug 26 22:22:55 2020.
