 Gaussian 09, Revision D.01,
 Gaussian 09:  ES64L-G09RevD.01 24-Apr-2013

 --------------------
 #p B2PLYPD3/Def2QZVP
 --------------------

 ---------
 butadiene
 ---------
 Symbolic Z-matrix:
 Charge =  0 Multiplicity = 1

                         Standard orientation:
 ---------------------------------------------------------------------
 Center     Atomic      Atomic             Coordinates (Angstroms)
 Number     Number       Type             X           Y           Z
 ---------------------------------------------------------------------
      1          6           0       -1.846879    0.132371    0.018452
      2          6           0       -0.617542   -0.422308   -0.033391
      3          6           0        0.591614    0.341418   -0.113928
      4          6           0        1.840236   -0.099176    0.014634
      5          1           0       -2.736669   -0.489953    0.186253
      6          1           0       -1.988051    1.277996    0.032917
      7          1           0       -0.548558   -1.508726    0.015272
      8          1           0        0.625550    1.464471    0.119055
      9          1           0        2.213488   -1.068612    0.096503
     10          1           0        2.629668    0.610993    0.235401
 ---------------------------------------------------------------------

 SCF Done:  E(RB2PLYPD3) =  -155.680605482     A.U. after   11 cycles
 E2(B2PLYPD3) =    -0.2272744866D+00 E(B2PLYPD3) =    -0.15590787996870D+03

 The electronic state is 1-A.
 Alpha  occ. eigenvalues --  -10.63077 -10.62962 -10.62788 -10.61099  -0.93029
 Alpha  occ. eigenvalues --   -0.84979  -0.70349  -0.63420  -0.55056  -0.53548
 Alpha  occ. eigenvalues --   -0.46145  -0.44462  -0.40554  -0.38197  -0.27641
 Alpha virt. eigenvalues --    0.01202   0.06875   0.07321   0.07640   0.09459
 Alpha virt. eigenvalues --    0.11339   0.12418   0.14761   0.15503   0.16465
 Alpha virt. eigenvalues --    0.18921   0.19538   0.22008   0.22602   0.24133

 Mulliken charges:
               1
     1  C   -0.160040
     2  C   -0.058226
     3  C   -0.007673
     4  C   -0.159793
     5  H    0.084155
     6  H    0.065412
     7  H    0.061598
     8  H    0.048915
     9  H    0.061826
    10  H    0.063827
 Sum of Mulliken charges =   0.00000

 Dipole moment (field-independent basis, Debye):
    X=              0.0459    Y=             -0.1280    Z=              0.5019  Tot=              0.5200
 Quadrupole moment (field-independent basis, Debye-Ang):
   XX=            -23.4499   YY=            -23.3315   ZZ=            -29.2337
   XY=             -0.0693   XZ=              0.3731   YZ=              0.1759

 1\1\GINC-NODE29\SP\RB2PLYPD3-FC\def2QZVP\C4H6\BOITTIER\26-Aug-2020\0\\
 #p B2PLYPD3/Def2QZVP\\butadiene\\0,1\C,0,-3.841874,0.244829,0.046845\C
 ,0,-2.729244,-0.517984,0.004462\C,0,-1.404201,0.020331,-0.07492\C,0,-0
 .253167,-0.632317,0.06248\H,0,-4.827966,-0.209917,0.214169\H,0,-3.7791
 47,1.397486,0.053487\H,0,-2.852837,-1.599208,0.060225\H,0,-1.173891,1.
 121464,0.151229\H,0,-0.056773,-1.651731,0.152206\H,0,0.648164,-0.07071
 4,0.282676\\Version=ES64L-G09RevD.01\State=1-A\HF=-155.6806055\MP2=-15
 5.90788\RMSD=9.096e-09\PG=C01 [X(C4H6)]\\@

 Normal termination of Gaussian 09 at Wed Aug 26 11:37:24 2020.
