 Gaussian 09, Revision D.01,
 Gaussian 09:  ES64L-G09RevD.01 24-Apr-2013

 --------------------
 #p B2PLYPD3/Def2QZVP
 --------------------

 ---------
 butadiene
 ---------
 Symbolic Z-matrix:
 Charge =  0 Multiplicity = 1

                         Standard orientation:
 ---------------------------------------------------------------------
 Center     Atomic      Atomic             Coordinates (Angstroms)
 Number     Number       Type             X           Y           Z
 ---------------------------------------------------------------------
      1          6           0        1.830886    0.098217    0.022109
      2          6           0        0.594646   -0.383256   -0.056963
      3          6           0       -0.599329    0.427293   -0.017085
      4          6           0       -1.831217   -0.117630   -0.004530
      5          1           0        2.637612   -0.613740    0.095138
      6          1           0        2.032780    1.120467   -0.010259
      7          1           0        0.430442   -1.437296    0.052260
      8          1           0       -0.379040    1.502908    0.043310
      9          1           0       -1.965015   -1.183428    0.058833
     10          1           0       -2.726703    0.463347    0.099535
 ---------------------------------------------------------------------

 SCF Done:  E(RB2PLYPD3) =  -155.696518247     A.U. after   11 cycles
 E2(B2PLYPD3) =    -0.2257835087D+00 E(B2PLYPD3) =    -0.15592230175615D+03

 The electronic state is 1-A.
 Alpha  occ. eigenvalues --  -10.62822 -10.61920 -10.61614 -10.60900  -0.93262
 Alpha  occ. eigenvalues --   -0.84887  -0.70604  -0.64373  -0.54702  -0.54087
 Alpha  occ. eigenvalues --   -0.46716  -0.46210  -0.41126  -0.38133  -0.27546
 Alpha virt. eigenvalues --    0.01585   0.07065   0.07382   0.08187   0.09450
 Alpha virt. eigenvalues --    0.11807   0.12492   0.14926   0.15707   0.16076
 Alpha virt. eigenvalues --    0.18712   0.20108   0.22010   0.23176   0.24008

 Mulliken charges:
               1
     1  C   -0.187782
     2  C   -0.012894
     3  C   -0.037788
     4  C   -0.171677
     5  H    0.083830
     6  H    0.071688
     7  H    0.053997
     8  H    0.051764
     9  H    0.065107
    10  H    0.083755
 Sum of Mulliken charges =   0.00000

 Dipole moment (field-independent basis, Debye):
    X=              0.0083    Y=             -0.0029    Z=              0.2557  Tot=              0.2559
 Quadrupole moment (field-independent basis, Debye-Ang):
   XX=            -23.6493   YY=            -23.0953   ZZ=            -29.1756
   XY=              0.4069   XZ=             -0.1471   YZ=             -0.1324

 1\1\GINC-NODE20\SP\RB2PLYPD3-FC\def2QZVP\C4H6\BOITTIER\26-Aug-2020\0\\
 #p B2PLYPD3/Def2QZVP\\butadiene\\0,1\C,0,-3.833885,0.21988,-0.006495\C
 ,0,-2.708749,-0.482008,0.081713\C,0,-1.384802,0.091062,0.027747\C,0,-0
 .276033,-0.673968,0.025482\H,0,-4.75933,-0.330492,-0.067036\H,0,-3.841
 716,1.262256,0.00741\H,0,-2.744097,-1.549954,-0.008478\H,0,-1.401039,1
 .187643,-0.052062\H,0,-0.343309,-1.746986,-0.018658\H,0,0.711695,-0.27
 1941,-0.088653\\Version=ES64L-G09RevD.01\State=1-A\HF=-155.6965182\MP2
 =-155.9223018\RMSD=5.277e-09\PG=C01 [X(C4H6)]\\@

 Normal termination of Gaussian 09 at Wed Aug 26 10:44:13 2020.
