 Gaussian 09, Revision D.01,
 Gaussian 09:  ES64L-G09RevD.01 24-Apr-2013

 --------------------
 #p B2PLYPD3/Def2QZVP
 --------------------

 ---------
 butadiene
 ---------
 Symbolic Z-matrix:
 Charge =  0 Multiplicity = 1

                         Standard orientation:
 ---------------------------------------------------------------------
 Center     Atomic      Atomic             Coordinates (Angstroms)
 Number     Number       Type             X           Y           Z
 ---------------------------------------------------------------------
      1          6           0       -1.809216    0.069544    0.062013
      2          6           0       -0.591654   -0.393875   -0.063690
      3          6           0        0.573992    0.455952   -0.111569
      4          6           0        1.799991   -0.145598    0.018208
      5          1           0       -2.613196   -0.545760    0.144372
      6          1           0       -1.956547    1.153011    0.051898
      7          1           0       -0.402081   -1.412824   -0.100243
      8          1           0        0.417595    1.541823    0.039907
      9          1           0        2.071454   -1.225290    0.160313
     10          1           0        2.644102    0.572902    0.273977
 ---------------------------------------------------------------------

 SCF Done:  E(RB2PLYPD3) =  -155.681086857     A.U. after   12 cycles
 E2(B2PLYPD3) =    -0.2267694191D+00 E(B2PLYPD3) =    -0.15590785627654D+03

 The electronic state is 1-A.
 Alpha  occ. eigenvalues --  -10.63382 -10.63093 -10.61218 -10.60142  -0.93465
 Alpha  occ. eigenvalues --   -0.84502  -0.69914  -0.64496  -0.55298  -0.53083
 Alpha  occ. eigenvalues --   -0.47068  -0.44847  -0.40910  -0.38301  -0.27330
 Alpha virt. eigenvalues --    0.01582   0.06992   0.07154   0.08176   0.09068
 Alpha virt. eigenvalues --    0.11750   0.12374   0.14943   0.15516   0.16272
 Alpha virt. eigenvalues --    0.18615   0.19831   0.21839   0.23372   0.23929

 Mulliken charges:
               1
     1  C   -0.180259
     2  C   -0.018527
     3  C   -0.038053
     4  C   -0.171227
     5  H    0.087541
     6  H    0.057492
     7  H    0.059248
     8  H    0.065282
     9  H    0.075824
    10  H    0.062678
 Sum of Mulliken charges =   0.00000

 Dipole moment (field-independent basis, Debye):
    X=             -0.0286    Y=             -0.0857    Z=              0.3844  Tot=              0.3949
 Quadrupole moment (field-independent basis, Debye-Ang):
   XX=            -24.3947   YY=            -22.8056   ZZ=            -29.1638
   XY=             -0.4813   XZ=              0.6912   YZ=              0.1161

 1\1\GINC-NODE07\SP\RB2PLYPD3-FC\def2QZVP\C4H6\BOITTIER\26-Aug-2020\0\\
 #p B2PLYPD3/Def2QZVP\\butadiene\\0,1\C,0,-3.811742,0.203159,0.080646\C
 ,0,-2.705149,-0.48808,-0.022587\C,0,-1.398142,0.121224,-0.083499\C,0,-
 0.310497,-0.700055,0.072405\H,0,-4.718956,-0.244329,0.172753\H,0,-3.74
 8734,1.294085,0.040405\H,0,-2.714196,-1.525089,-0.030368\H,0,-1.344056
 ,1.220733,0.037648\H,0,-0.251344,-1.807375,0.245509\H,0,0.654863,-0.14
 9612,0.315871\\Version=ES64L-G09RevD.01\State=1-A\HF=-155.6810869\MP2=
 -155.9078563\RMSD=5.297e-09\PG=C01 [X(C4H6)]\\@

 Normal termination of Gaussian 09 at Wed Aug 26 11:59:14 2020.
