 Gaussian 09, Revision D.01,
 Gaussian 09:  ES64L-G09RevD.01 24-Apr-2013

 --------------------
 #p B2PLYPD3/Def2QZVP
 --------------------

 ---------
 butadiene
 ---------
 Symbolic Z-matrix:
 Charge =  0 Multiplicity = 1

                         Standard orientation:
 ---------------------------------------------------------------------
 Center     Atomic      Atomic             Coordinates (Angstroms)
 Number     Number       Type             X           Y           Z
 ---------------------------------------------------------------------
      1          6           0       -1.838109    0.095362    0.009901
      2          6           0       -0.598045   -0.387606   -0.022619
      3          6           0        0.603559    0.409365   -0.025454
      4          6           0        1.832115   -0.117139    0.018757
      5          1           0       -2.710277   -0.512199    0.069445
      6          1           0       -2.017705    1.160681    0.069238
      7          1           0       -0.442570   -1.450532   -0.038005
      8          1           0        0.509385    1.505160   -0.083788
      9          1           0        1.948720   -1.200105    0.003467
     10          1           0        2.715330    0.497107    0.096135
 ---------------------------------------------------------------------

 SCF Done:  E(RB2PLYPD3) =  -155.700350584     A.U. after   11 cycles
 E2(B2PLYPD3) =    -0.2256522926D+00 E(B2PLYPD3) =    -0.15592600287698D+03

 The electronic state is 1-A.
 Alpha  occ. eigenvalues --  -10.62596 -10.62309 -10.61594 -10.61242  -0.93201
 Alpha  occ. eigenvalues --   -0.84968  -0.70356  -0.64049  -0.54936  -0.53926
 Alpha  occ. eigenvalues --   -0.46836  -0.45386  -0.41335  -0.38204  -0.27627
 Alpha virt. eigenvalues --    0.01672   0.07044   0.07414   0.08063   0.09667
 Alpha virt. eigenvalues --    0.11667   0.12562   0.14659   0.15850   0.16226
 Alpha virt. eigenvalues --    0.18780   0.20556   0.21675   0.22804   0.23728

 Mulliken charges:
               1
     1  C   -0.173013
     2  C   -0.029738
     3  C   -0.026108
     4  C   -0.177657
     5  H    0.085994
     6  H    0.061980
     7  H    0.054092
     8  H    0.052755
     9  H    0.063039
    10  H    0.088655
 Sum of Mulliken charges =   0.00000

 Dipole moment (field-independent basis, Debye):
    X=              0.0117    Y=              0.0032    Z=              0.0776  Tot=              0.0785
 Quadrupole moment (field-independent basis, Debye-Ang):
   XX=            -23.3803   YY=            -23.1904   ZZ=            -29.2113
   XY=             -0.0454   XZ=             -0.0812   YZ=              0.0410

 1\1\GINC-NODE16\SP\RB2PLYPD3-FC\def2QZVP\C4H6\BOITTIER\26-Aug-2020\0\\
 #p B2PLYPD3/Def2QZVP\\butadiene\\0,1\C,0,-3.842741,0.211342,0.032083\C
 ,0,-2.710471,-0.488474,0.014886\C,0,-1.384695,0.077845,-0.010111\C,0,-
 0.271274,-0.660472,0.050651\H,0,-4.810042,-0.226649,0.108539\H,0,-3.82
 6688,1.292841,0.060066\H,0,-2.749624,-1.56199,0.030742\H,0,-1.279633,1
 .170466,-0.100559\H,0,-0.352277,-1.746663,0.067153\H,0,0.708695,-0.213
 943,0.110874\\Version=ES64L-G09RevD.01\State=1-A\HF=-155.7003506\MP2=-
 155.9260029\RMSD=3.768e-09\PG=C01 [X(C4H6)]\\@

 Normal termination of Gaussian 09 at Wed Aug 26 19:46:03 2020.
