 Gaussian 09, Revision D.01,
 Gaussian 09:  ES64L-G09RevD.01 24-Apr-2013

 --------------------
 #p B2PLYPD3/Def2QZVP
 --------------------

 ---------
 butadiene
 ---------
 Symbolic Z-matrix:
 Charge =  0 Multiplicity = 1

                         Standard orientation:
 ---------------------------------------------------------------------
 Center     Atomic      Atomic             Coordinates (Angstroms)
 Number     Number       Type             X           Y           Z
 ---------------------------------------------------------------------
      1          6           0        1.850407    0.073339    0.055808
      2          6           0        0.594401   -0.393828   -0.067517
      3          6           0       -0.578844    0.469180   -0.115785
      4          6           0       -1.812405   -0.150599    0.104780
      5          1           0        2.605244   -0.566824    0.167231
      6          1           0        1.979683    1.136802    0.103223
      7          1           0        0.242282   -1.404537   -0.155371
      8          1           0       -0.550557    1.596075   -0.072197
      9          1           0       -1.893402   -1.234316   -0.038259
     10          1           0       -2.704608    0.484246    0.131657
 ---------------------------------------------------------------------

 SCF Done:  E(RB2PLYPD3) =  -155.678107907     A.U. after   12 cycles
 E2(B2PLYPD3) =    -0.2282412598D+00 E(B2PLYPD3) =    -0.15590634916631D+03

 The electronic state is 1-A.
 Alpha  occ. eigenvalues --  -10.63769 -10.62728 -10.62623 -10.60611  -0.92744
 Alpha  occ. eigenvalues --   -0.84152  -0.70493  -0.64028  -0.54952  -0.53523
 Alpha  occ. eigenvalues --   -0.46314  -0.45387  -0.41999  -0.37523  -0.26936
 Alpha virt. eigenvalues --    0.01011   0.07102   0.07216   0.08139   0.08683
 Alpha virt. eigenvalues --    0.11781   0.12460   0.14638   0.15664   0.16326
 Alpha virt. eigenvalues --    0.18672   0.19442   0.21712   0.23414   0.24056

 Mulliken charges:
               1
     1  C   -0.187233
     2  C   -0.023543
     3  C   -0.037933
     4  C   -0.178911
     5  H    0.094491
     6  H    0.074221
     7  H    0.057251
     8  H    0.056881
     9  H    0.065715
    10  H    0.079061
 Sum of Mulliken charges =   0.00000

 Dipole moment (field-independent basis, Debye):
    X=             -0.0641    Y=              0.0303    Z=              0.0036  Tot=              0.0710
 Quadrupole moment (field-independent basis, Debye-Ang):
   XX=            -24.1576   YY=            -22.8744   ZZ=            -29.4487
   XY=              0.1393   XZ=              0.3769   YZ=              0.2472

 1\1\GINC-NODE33\SP\RB2PLYPD3-FC\def2QZVP\C4H6\BOITTIER\26-Aug-2020\0\\
 #p B2PLYPD3/Def2QZVP\\butadiene\\0,1\C,0,-3.850324,0.201047,-0.045541\
 C,0,-2.703763,-0.48855,0.098881\C,0,-1.389857,0.141097,0.127376\C,0,-0
 .29396,-0.704784,-0.067411\H,0,-4.711555,-0.289924,-0.141622\H,0,-3.77
 8527,1.267953,-0.125986\H,0,-2.546773,-1.544047,0.219374\H,0,-1.206992
 ,1.251534,0.049387\H,0,-0.416947,-1.779601,0.108961\H,0,0.701187,-0.24
 8978,-0.108642\\Version=ES64L-G09RevD.01\State=1-A\HF=-155.6781079\MP2
 =-155.9063492\RMSD=4.120e-09\PG=C01 [X(C4H6)]\\@

 Normal termination of Gaussian 09 at Wed Aug 26 14:36:36 2020.
