 Gaussian 09, Revision D.01,
 Gaussian 09:  ES64L-G09RevD.01 24-Apr-2013

 --------------------
 #p B2PLYPD3/Def2QZVP
 --------------------

 ---------
 butadiene
 ---------
 Symbolic Z-matrix:
 Charge =  0 Multiplicity = 1

                         Standard orientation:
 ---------------------------------------------------------------------
 Center     Atomic      Atomic             Coordinates (Angstroms)
 Number     Number       Type             X           Y           Z
 ---------------------------------------------------------------------
      1          6           0       -1.831634    0.086621   -0.019566
      2          6           0       -0.595535   -0.399633    0.029666
      3          6           0        0.607451    0.434329    0.001265
      4          6           0        1.830705   -0.118355   -0.015063
      5          1           0       -2.708688   -0.501396   -0.029074
      6          1           0       -2.011242    1.160217   -0.096735
      7          1           0       -0.401695   -1.461245    0.135001
      8          1           0        0.415375    1.519746    0.131932
      9          1           0        1.919418   -1.245484   -0.126679
     10          1           0        2.720909    0.510391    0.007748
 ---------------------------------------------------------------------

 SCF Done:  E(RB2PLYPD3) =  -155.695783375     A.U. after   11 cycles
 E2(B2PLYPD3) =    -0.2263099861D+00 E(B2PLYPD3) =    -0.15592209336073D+03

 The electronic state is 1-A.
 Alpha  occ. eigenvalues --  -10.62968 -10.62452 -10.62365 -10.61187  -0.92881
 Alpha  occ. eigenvalues --   -0.84673  -0.69868  -0.63723  -0.54873  -0.53086
 Alpha  occ. eigenvalues --   -0.46955  -0.45203  -0.40924  -0.37877  -0.27746
 Alpha virt. eigenvalues --    0.01857   0.07083   0.07154   0.08087   0.09256
 Alpha virt. eigenvalues --    0.11689   0.12431   0.14526   0.15645   0.16008
 Alpha virt. eigenvalues --    0.18683   0.20257   0.21432   0.23007   0.23724

 Mulliken charges:
               1
     1  C   -0.175540
     2  C   -0.025438
     3  C   -0.033678
     4  C   -0.178081
     5  H    0.086859
     6  H    0.058109
     7  H    0.054825
     8  H    0.057485
     9  H    0.065546
    10  H    0.089913
 Sum of Mulliken charges =   0.00000

 Dipole moment (field-independent basis, Debye):
    X=             -0.0216    Y=              0.0190    Z=              0.0382  Tot=              0.0478
 Quadrupole moment (field-independent basis, Debye-Ang):
   XX=            -23.5891   YY=            -23.1672   ZZ=            -29.3165
   XY=             -0.2099   XZ=              0.0847   YZ=              0.0913

 1\1\GINC-NODE07\SP\RB2PLYPD3-FC\def2QZVP\C4H6\BOITTIER\26-Aug-2020\0\\
 #p B2PLYPD3/Def2QZVP\\butadiene\\0,1\C,0,-3.8378,0.208208,0.000124\C,0
 ,-2.712767,-0.496913,0.062672\C,0,-1.376439,0.099615,0.019574\C,0,-0.2
 76403,-0.669796,0.017952\H,0,-4.80842,-0.207696,0.000915\H,0,-3.816049
 ,1.294617,-0.100196\H,0,-2.718275,-1.573578,0.190934\H,0,-1.364445,1.2
 04361,0.126761\H,0,-0.397659,-1.796023,-0.069559\H,0,0.714686,-0.21602
 2,0.029631\\Version=ES64L-G09RevD.01\State=1-A\HF=-155.6957834\MP2=-15
 5.9220934\RMSD=6.252e-09\PG=C01 [X(C4H6)]\\@

 Normal termination of Gaussian 09 at Wed Aug 26 09:29:46 2020.
