 Gaussian 09, Revision D.01,
 Gaussian 09:  ES64L-G09RevD.01 24-Apr-2013

 --------------------
 #p B2PLYPD3/Def2QZVP
 --------------------

 ---------
 butadiene
 ---------
 Symbolic Z-matrix:
 Charge =  0 Multiplicity = 1

                         Standard orientation:
 ---------------------------------------------------------------------
 Center     Atomic      Atomic             Coordinates (Angstroms)
 Number     Number       Type             X           Y           Z
 ---------------------------------------------------------------------
      1          6           0        1.833723   -0.095272   -0.002792
      2          6           0        0.590559    0.386106    0.011115
      3          6           0       -0.603287   -0.414990   -0.003980
      4          6           0       -1.826930    0.113072   -0.009488
      5          1           0        2.705839    0.528499    0.012300
      6          1           0        2.028971   -1.143625   -0.080386
      7          1           0        0.450953    1.478266    0.035454
      8          1           0       -0.448736   -1.473198    0.082791
      9          1           0       -2.011626    1.179429   -0.041249
     10          1           0       -2.689795   -0.502870    0.021960
 ---------------------------------------------------------------------

 SCF Done:  E(RB2PLYPD3) =  -155.700491237     A.U. after   11 cycles
 E2(B2PLYPD3) =    -0.2253917475D+00 E(B2PLYPD3) =    -0.15592588298396D+03

 The electronic state is 1-A.
 Alpha  occ. eigenvalues --  -10.62404 -10.62278 -10.61320 -10.61132  -0.93286
 Alpha  occ. eigenvalues --   -0.84981  -0.70639  -0.64180  -0.55065  -0.53967
 Alpha  occ. eigenvalues --   -0.46990  -0.45573  -0.41159  -0.38310  -0.27606
 Alpha virt. eigenvalues --    0.01690   0.07060   0.07427   0.08123   0.09671
 Alpha virt. eigenvalues --    0.11690   0.12530   0.14880   0.15767   0.16280
 Alpha virt. eigenvalues --    0.18776   0.20416   0.21983   0.22900   0.23660

 Mulliken charges:
               1
     1  C   -0.178895
     2  C   -0.021164
     3  C   -0.034543
     4  C   -0.174266
     5  H    0.085152
     6  H    0.061951
     7  H    0.049960
     8  H    0.059706
     9  H    0.067680
    10  H    0.084420
 Sum of Mulliken charges =   0.00000

 Dipole moment (field-independent basis, Debye):
    X=             -0.0374    Y=             -0.0151    Z=              0.0271  Tot=              0.0486
 Quadrupole moment (field-independent basis, Debye-Ang):
   XX=            -23.3317   YY=            -23.1614   ZZ=            -29.1643
   XY=             -0.2888   XZ=             -0.1505   YZ=             -0.0289

 1\1\GINC-NODE04\SP\RB2PLYPD3-FC\def2QZVP\C4H6\BOITTIER\26-Aug-2020\0\\
 #p B2PLYPD3/Def2QZVP\\butadiene\\0,1\C,0,-3.837823,0.216117,0.01488\C,
 0,-2.704909,-0.485988,0.045361\C,0,-1.383692,0.080195,0.012626\C,0,-0.
 278621,-0.664688,0.02488\H,0,-4.810098,-0.235263,0.043881\H,0,-3.83626
 6,1.280046,-0.091136\H,0,-2.769342,-1.584102,0.099135\H,0,-1.340004,1.
 150676,0.070779\H,0,-0.294082,-1.747273,0.022026\H,0,0.683206,-0.21805
 ,0.042582\\Version=ES64L-G09RevD.01\State=1-A\HF=-155.7004912\MP2=-155
 .925883\RMSD=4.420e-09\PG=C01 [X(C4H6)]\\@

 Normal termination of Gaussian 09 at Wed Aug 26 20:59:45 2020.
