 Gaussian 09, Revision D.01,
 Gaussian 09:  ES64L-G09RevD.01 24-Apr-2013

 --------------------
 #p B2PLYPD3/Def2QZVP
 --------------------

 ---------
 butadiene
 ---------
 Symbolic Z-matrix:
 Charge =  0 Multiplicity = 1

                         Standard orientation:
 ---------------------------------------------------------------------
 Center     Atomic      Atomic             Coordinates (Angstroms)
 Number     Number       Type             X           Y           Z
 ---------------------------------------------------------------------
      1          6           0       -1.821124    0.116904    0.057632
      2          6           0       -0.591092   -0.480433   -0.067589
      3          6           0        0.566743    0.392212   -0.099532
      4          6           0        1.829791   -0.087473    0.013680
      5          1           0       -2.827959   -0.387363    0.103768
      6          1           0       -1.860837    1.293426    0.119733
      7          1           0       -0.479592   -1.572169   -0.006502
      8          1           0        0.380787    1.509203   -0.088777
      9          1           0        2.209837   -1.067141    0.147433
     10          1           0        2.671849    0.576780    0.299200
 ---------------------------------------------------------------------

 SCF Done:  E(RB2PLYPD3) =  -155.676071046     A.U. after   12 cycles
 E2(B2PLYPD3) =    -0.2290733097D+00 E(B2PLYPD3) =    -0.15590514435549D+03

 The electronic state is 1-A.
 Alpha  occ. eigenvalues --  -10.63844 -10.63705 -10.63605 -10.61736  -0.92597
 Alpha  occ. eigenvalues --   -0.83599  -0.69629  -0.63887  -0.54841  -0.52231
 Alpha  occ. eigenvalues --   -0.46236  -0.43816  -0.41018  -0.37926  -0.26992
 Alpha virt. eigenvalues --    0.01040   0.06701   0.07135   0.07828   0.08699
 Alpha virt. eigenvalues --    0.11317   0.12583   0.14387   0.15778   0.16473
 Alpha virt. eigenvalues --    0.18691   0.19755   0.21425   0.22696   0.23938

 Mulliken charges:
               1
     1  C   -0.161199
     2  C   -0.045299
     3  C   -0.017911
     4  C   -0.166889
     5  H    0.084128
     6  H    0.047591
     7  H    0.071203
     8  H    0.063856
     9  H    0.064526
    10  H    0.059994
 Sum of Mulliken charges =   0.00000

 Dipole moment (field-independent basis, Debye):
    X=             -0.0740    Y=             -0.1087    Z=              0.3885  Tot=              0.4102
 Quadrupole moment (field-independent basis, Debye-Ang):
   XX=            -23.7435   YY=            -23.2073   ZZ=            -29.5649
   XY=             -0.5233   XZ=              0.6451   YZ=              0.0214

 1\1\GINC-NODE29\SP\RB2PLYPD3-FC\def2QZVP\C4H6\BOITTIER\26-Aug-2020\0\\
 #p B2PLYPD3/Def2QZVP\\butadiene\\0,1\C,0,-3.815305,0.250424,0.076814\C
 ,0,-2.719764,-0.570587,-0.02902\C,0,-1.41774,0.066962,-0.066115\C,0,-0
 .268643,-0.640601,0.064786\H,0,-4.899498,-0.053708,0.123279\H,0,-3.632
 24,1.414172,0.119419\H,0,-2.816881,-1.662494,0.050723\H,0,-1.389295,1.
 198985,-0.075023\H,0,-0.081212,-1.671928,0.217459\H,0,0.682451,-0.1424
 65,0.346026\\Version=ES64L-G09RevD.01\State=1-A\HF=-155.676071\MP2=-15
 5.9051444\RMSD=6.137e-09\PG=C01 [X(C4H6)]\\@

 Normal termination of Gaussian 09 at Wed Aug 26 12:47:07 2020.
