 Gaussian 09, Revision D.01,
 Gaussian 09:  ES64L-G09RevD.01 24-Apr-2013

 --------------------
 #p B2PLYPD3/Def2QZVP
 --------------------

 ---------
 butadiene
 ---------
 Symbolic Z-matrix:
 Charge =  0 Multiplicity = 1

                         Standard orientation:
 ---------------------------------------------------------------------
 Center     Atomic      Atomic             Coordinates (Angstroms)
 Number     Number       Type             X           Y           Z
 ---------------------------------------------------------------------
      1          6           0        1.857248    0.093358    0.003436
      2          6           0        0.603328   -0.375546   -0.052948
      3          6           0       -0.616539    0.420947   -0.022704
      4          6           0       -1.859105   -0.129351    0.021278
      5          1           0        2.687314   -0.579202    0.124099
      6          1           0        2.070492    1.134238    0.075774
      7          1           0        0.452454   -1.432612    0.018260
      8          1           0       -0.424008    1.496584    0.003849
      9          1           0       -1.950133   -1.169392    0.049513
     10          1           0       -2.745716    0.493933    0.034131
 ---------------------------------------------------------------------

 SCF Done:  E(RB2PLYPD3) =  -155.697039443     A.U. after   11 cycles
 E2(B2PLYPD3) =    -0.2261459123D+00 E(B2PLYPD3) =    -0.15592318535515D+03

 The electronic state is 1-A.
 Alpha  occ. eigenvalues --  -10.63074 -10.62373 -10.61731 -10.61346  -0.92757
 Alpha  occ. eigenvalues --   -0.84745  -0.70697  -0.64368  -0.54512  -0.54060
 Alpha  occ. eigenvalues --   -0.46759  -0.46421  -0.41172  -0.37811  -0.27480
 Alpha virt. eigenvalues --    0.01274   0.06991   0.07513   0.08148   0.09472
 Alpha virt. eigenvalues --    0.11709   0.12488   0.14856   0.15862   0.15972
 Alpha virt. eigenvalues --    0.18857   0.20475   0.21728   0.22784   0.24043

 Mulliken charges:
               1
     1  C   -0.178579
     2  C   -0.020921
     3  C   -0.038327
     4  C   -0.180306
     5  H    0.084001
     6  H    0.064032
     7  H    0.052101
     8  H    0.053686
     9  H    0.073340
    10  H    0.090972
 Sum of Mulliken charges =   0.00000

 Dipole moment (field-independent basis, Debye):
    X=             -0.0199    Y=             -0.0079    Z=              0.2323  Tot=              0.2332
 Quadrupole moment (field-independent basis, Debye-Ang):
   XX=            -23.4489   YY=            -23.1627   ZZ=            -29.2954
   XY=              0.2481   XZ=              0.3701   YZ=             -0.0743

 1\1\GINC-NODE21\SP\RB2PLYPD3-FC\def2QZVP\C4H6\BOITTIER\26-Aug-2020\0\\
 #p B2PLYPD3/Def2QZVP\\butadiene\\0,1\C,0,-3.864018,0.21133,0.004938\C,
 0,-2.715376,-0.474753,0.077586\C,0,-1.371748,0.087597,0.034958\C,0,-0.
 248927,-0.67878,0.009049\H,0,-4.801814,-0.302973,-0.104318\H,0,-3.8858
 16,1.271661,-0.091808\H,0,-2.757786,-1.543044,0.030905\H,0,-1.366918,1
 .179419,-0.016704\H,0,-0.347143,-1.718541,0.004673\H,0,0.735644,-0.226
 204,-0.013807\\Version=ES64L-G09RevD.01\State=1-A\HF=-155.6970394\MP2=
 -155.9231854\RMSD=5.716e-09\PG=C01 [X(C4H6)]\\@

 Normal termination of Gaussian 09 at Wed Aug 26 09:21:54 2020.
