 Gaussian 09, Revision D.01,
 Gaussian 09:  ES64L-G09RevD.01 24-Apr-2013

 --------------------
 #p B2PLYPD3/Def2QZVP
 --------------------

 ---------
 butadiene
 ---------
 Symbolic Z-matrix:
 Charge =  0 Multiplicity = 1

                         Standard orientation:
 ---------------------------------------------------------------------
 Center     Atomic      Atomic             Coordinates (Angstroms)
 Number     Number       Type             X           Y           Z
 ---------------------------------------------------------------------
      1          6           0       -1.853311    0.129459   -0.052687
      2          6           0       -0.627268   -0.408187    0.015790
      3          6           0        0.617205    0.357705    0.054115
      4          6           0        1.861677   -0.110276   -0.034228
      5          1           0       -2.742543   -0.546043    0.234836
      6          1           0       -2.047149    1.196443   -0.227697
      7          1           0       -0.416925   -1.422807    0.060791
      8          1           0        0.520278    1.394619    0.152839
      9          1           0        2.081599   -1.086296   -0.168101
     10          1           0        2.614930    0.651882    0.049390
 ---------------------------------------------------------------------

 SCF Done:  E(RB2PLYPD3) =  -155.683655257     A.U. after   11 cycles
 E2(B2PLYPD3) =    -0.2256915911D+00 E(B2PLYPD3) =    -0.15590934684813D+03

 The electronic state is 1-A.
 Alpha  occ. eigenvalues --  -10.62738 -10.62231 -10.61697 -10.60566  -0.93029
 Alpha  occ. eigenvalues --   -0.85128  -0.70441  -0.65073  -0.54814  -0.53624
 Alpha  occ. eigenvalues --   -0.47391  -0.46265  -0.40823  -0.37432  -0.27680
 Alpha virt. eigenvalues --    0.01299   0.06853   0.07680   0.08076   0.09718
 Alpha virt. eigenvalues --    0.11811   0.12098   0.15149   0.15453   0.16027
 Alpha virt. eigenvalues --    0.18869   0.19980   0.21285   0.22336   0.24435

 Mulliken charges:
               1
     1  C   -0.174393
     2  C   -0.051219
     3  C   -0.019652
     4  C   -0.188469
     5  H    0.078082
     6  H    0.076256
     7  H    0.068165
     8  H    0.053809
     9  H    0.073356
    10  H    0.084065
 Sum of Mulliken charges =   0.00000

 Dipole moment (field-independent basis, Debye):
    X=              0.0493    Y=              0.0211    Z=              0.0983  Tot=              0.1120
 Quadrupole moment (field-independent basis, Debye-Ang):
   XX=            -23.9672   YY=            -23.0533   ZZ=            -29.0379
   XY=             -0.4173   XZ=             -0.4357   YZ=             -0.1311

 1\1\GINC-NODE15\SP\RB2PLYPD3-FC\def2QZVP\C4H6\BOITTIER\26-Aug-2020\0\\
 #p B2PLYPD3/Def2QZVP\\butadiene\\0,1\C,0,-3.85212,0.243577,-0.027875\C
 ,0,-2.74083,-0.500777,0.061032\C,0,-1.379604,0.031962,0.066118\C,0,-0.
 239136,-0.653501,-0.004555\H,0,-4.84488,-0.250485,0.288411\H,0,-3.8544
 2,1.320097,-0.246407\H,0,-2.714092,-1.533992,0.147487\H,0,-1.289528,1.
 07267,0.122196\H,0,-0.19765,-1.657677,-0.098424\H,0,0.638463,-0.035059
 ,0.046599\\Version=ES64L-G09RevD.01\State=1-A\HF=-155.6836553\MP2=-155
 .9093468\RMSD=7.939e-09\PG=C01 [X(C4H6)]\\@

 Normal termination of Gaussian 09 at Wed Aug 26 13:47:14 2020.
