 Gaussian 09, Revision D.01,
 Gaussian 09:  ES64L-G09RevD.01 24-Apr-2013

 --------------------
 #p B2PLYPD3/Def2QZVP
 --------------------

 ---------
 butadiene
 ---------
 Symbolic Z-matrix:
 Charge =  0 Multiplicity = 1

                         Standard orientation:
 ---------------------------------------------------------------------
 Center     Atomic      Atomic             Coordinates (Angstroms)
 Number     Number       Type             X           Y           Z
 ---------------------------------------------------------------------
      1          6           0       -1.817469    0.082195   -0.010938
      2          6           0       -0.576258   -0.353005   -0.025299
      3          6           0        0.598799    0.444309   -0.007168
      4          6           0        1.777308   -0.141019    0.035295
      5          1           0       -2.670596   -0.572089    0.057066
      6          1           0       -2.054245    1.107148    0.248211
      7          1           0       -0.411938   -1.405604   -0.137484
      8          1           0        0.672112    1.491728   -0.217618
      9          1           0        1.919056   -1.245208    0.090938
     10          1           0        2.651331    0.429147    0.007551
 ---------------------------------------------------------------------

 SCF Done:  E(RB2PLYPD3) =  -155.690460250     A.U. after   11 cycles
 E2(B2PLYPD3) =    -0.2250992853D+00 E(B2PLYPD3) =    -0.15591555953552D+03

 The electronic state is 1-A.
 Alpha  occ. eigenvalues --  -10.61828 -10.61698 -10.61045 -10.60744  -0.94089
 Alpha  occ. eigenvalues --   -0.85513  -0.70285  -0.64345  -0.55362  -0.54386
 Alpha  occ. eigenvalues --   -0.46447  -0.44851  -0.41574  -0.38500  -0.27852
 Alpha virt. eigenvalues --    0.01979   0.07196   0.07553   0.07885   0.09500
 Alpha virt. eigenvalues --    0.11693   0.12665   0.14863   0.15517   0.16613
 Alpha virt. eigenvalues --    0.18739   0.19758   0.22020   0.22869   0.23615

 Mulliken charges:
               1
     1  C   -0.169055
     2  C   -0.032533
     3  C   -0.031653
     4  C   -0.169046
     5  H    0.073788
     6  H    0.062178
     7  H    0.060528
     8  H    0.068365
     9  H    0.058778
    10  H    0.078652
 Sum of Mulliken charges =   0.00000

 Dipole moment (field-independent basis, Debye):
    X=              0.2014    Y=             -0.0115    Z=              0.0221  Tot=              0.2029
 Quadrupole moment (field-independent basis, Debye-Ang):
   XX=            -23.6125   YY=            -23.2127   ZZ=            -28.8523
   XY=              0.1130   XZ=             -0.6419   YZ=              0.0132

 1\1\GINC-NODE36\SP\RB2PLYPD3-FC\def2QZVP\C4H6\BOITTIER\26-Aug-2020\0\\
 #p B2PLYPD3/Def2QZVP\\butadiene\\0,1\C,0,-3.823856,0.191156,0.018876\C
 ,0,-2.681993,-0.461789,0.014335\C,0,-1.382034,0.109774,-0.000538\C,0,-
 0.328373,-0.677473,0.057232\H,0,-4.780436,-0.295209,0.113428\H,0,-3.86
 8679,1.250157,0.24306\H,0,-2.711866,-1.529908,-0.061694\H,0,-1.122816,
 1.118942,-0.247797\H,0,-0.387991,-1.786575,0.150828\H,0,0.633978,-0.27
 6217,0.005765\\Version=ES64L-G09RevD.01\State=1-A\HF=-155.6904603\MP2=
 -155.9155595\RMSD=6.041e-09\PG=C01 [X(C4H6)]\\@

 Normal termination of Gaussian 09 at Wed Aug 26 15:10:27 2020.
