 Gaussian 09, Revision D.01,
 Gaussian 09:  ES64L-G09RevD.01 24-Apr-2013

 --------------------
 #p B2PLYPD3/Def2QZVP
 --------------------

 ---------
 butadiene
 ---------
 Symbolic Z-matrix:
 Charge =  0 Multiplicity = 1

                         Standard orientation:
 ---------------------------------------------------------------------
 Center     Atomic      Atomic             Coordinates (Angstroms)
 Number     Number       Type             X           Y           Z
 ---------------------------------------------------------------------
      1          6           0        1.814275   -0.138656    0.007610
      2          6           0        0.591682    0.436333   -0.020640
      3          6           0       -0.601115   -0.375570   -0.052980
      4          6           0       -1.817301    0.093679    0.031924
      5          1           0        2.702630    0.497229    0.151749
      6          1           0        2.004394   -1.199358    0.047286
      7          1           0        0.508848    1.485634   -0.080011
      8          1           0       -0.466185   -1.444585   -0.044923
      9          1           0       -1.988953    1.117919    0.018088
     10          1           0       -2.685974   -0.551559    0.112328
 ---------------------------------------------------------------------

 SCF Done:  E(RB2PLYPD3) =  -155.696360384     A.U. after   11 cycles
 E2(B2PLYPD3) =    -0.2251994806D+00 E(B2PLYPD3) =    -0.15592155986471D+03

 The electronic state is 1-A.
 Alpha  occ. eigenvalues --  -10.62437 -10.61832 -10.61690 -10.60396  -0.93473
 Alpha  occ. eigenvalues --   -0.85071  -0.70108  -0.64857  -0.54688  -0.54411
 Alpha  occ. eigenvalues --   -0.46830  -0.45399  -0.41480  -0.38271  -0.27620
 Alpha virt. eigenvalues --    0.01909   0.07010   0.07546   0.08071   0.09553
 Alpha virt. eigenvalues --    0.11756   0.12515   0.14890   0.15713   0.16362
 Alpha virt. eigenvalues --    0.18721   0.20165   0.22021   0.23089   0.23905

 Mulliken charges:
               1
     1  C   -0.172694
     2  C   -0.047844
     3  C   -0.015923
     4  C   -0.176884
     5  H    0.073731
     6  H    0.070516
     7  H    0.067733
     8  H    0.055642
     9  H    0.064327
    10  H    0.081395
 Sum of Mulliken charges =   0.00000

 Dipole moment (field-independent basis, Debye):
    X=             -0.0050    Y=              0.0143    Z=              0.1303  Tot=              0.1312
 Quadrupole moment (field-independent basis, Debye-Ang):
   XX=            -23.7243   YY=            -22.9580   ZZ=            -29.0844
   XY=             -0.2331   XZ=              0.1411   YZ=             -0.0920

 1\1\GINC-NODE07\SP\RB2PLYPD3-FC\def2QZVP\C4H6\BOITTIER\26-Aug-2020\0\\
 #p B2PLYPD3/Def2QZVP\\butadiene\\0,1\C,0,-3.812135,0.251319,0.032806\C
 ,0,-2.713879,-0.535886,0.015894\C,0,-1.393953,0.045963,-0.031486\C,0,-
 0.28251,-0.633985,0.062723\H,0,-4.800445,-0.210456,0.188718\H,0,-3.807
 035,1.329468,0.052246\H,0,-2.822491,-1.583775,-0.02349\H,0,-1.33317,1.
 121704,-0.043799\H,0,-0.299093,-1.672453,0.068419\H,0,0.688836,-0.1552
 38,0.13113\\Version=ES64L-G09RevD.01\State=1-A\HF=-155.6963604\MP2=-15
 5.9215599\RMSD=7.098e-09\PG=C01 [X(C4H6)]\\@

 Normal termination of Gaussian 09 at Wed Aug 26 09:51:33 2020.
