 Gaussian 09, Revision D.01,
 Gaussian 09:  ES64L-G09RevD.01 24-Apr-2013

 --------------------
 #p B2PLYPD3/Def2QZVP
 --------------------

 ---------
 butadiene
 ---------
 Symbolic Z-matrix:
 Charge =  0 Multiplicity = 1

                         Standard orientation:
 ---------------------------------------------------------------------
 Center     Atomic      Atomic             Coordinates (Angstroms)
 Number     Number       Type             X           Y           Z
 ---------------------------------------------------------------------
      1          6           0       -1.838055   -0.117323    0.010125
      2          6           0       -0.607043    0.415755   -0.024909
      3          6           0        0.608537   -0.386040   -0.023061
      4          6           0        1.852502    0.095053    0.015106
      5          1           0       -2.736260    0.475837    0.038612
      6          1           0       -1.976861   -1.187085    0.086057
      7          1           0       -0.489417    1.501867   -0.061249
      8          1           0        0.406931   -1.451709   -0.028616
      9          1           0        2.004898    1.168970    0.114793
     10          1           0        2.695065   -0.552548   -0.013164
 ---------------------------------------------------------------------

 SCF Done:  E(RB2PLYPD3) =  -155.700302981     A.U. after   11 cycles
 E2(B2PLYPD3) =    -0.2258156930D+00 E(B2PLYPD3) =    -0.15592611867353D+03

 The electronic state is 1-A.
 Alpha  occ. eigenvalues --  -10.62736 -10.62501 -10.61627 -10.61423  -0.92910
 Alpha  occ. eigenvalues --   -0.84884  -0.70353  -0.64001  -0.54867  -0.53699
 Alpha  occ. eigenvalues --   -0.46973  -0.45680  -0.41062  -0.38027  -0.27668
 Alpha virt. eigenvalues --    0.01617   0.07034   0.07388   0.08127   0.09573
 Alpha virt. eigenvalues --    0.11681   0.12469   0.14697   0.15852   0.16137
 Alpha virt. eigenvalues --    0.18810   0.20492   0.21588   0.22976   0.23626

 Mulliken charges:
               1
     1  C   -0.174974
     2  C   -0.028808
     3  C   -0.028055
     4  C   -0.179841
     5  H    0.086284
     6  H    0.062101
     7  H    0.052569
     8  H    0.051805
     9  H    0.066949
    10  H    0.091971
 Sum of Mulliken charges =   0.00000

 Dipole moment (field-independent basis, Debye):
    X=             -0.0429    Y=             -0.0086    Z=              0.0981  Tot=              0.1075
 Quadrupole moment (field-independent basis, Debye-Ang):
   XX=            -23.3904   YY=            -23.1899   ZZ=            -29.2687
   XY=              0.1393   XZ=             -0.0828   YZ=              0.0293

 1\1\GINC-NODE03\SP\RB2PLYPD3-FC\def2QZVP\C4H6\BOITTIER\26-Aug-2020\0\\
 #p B2PLYPD3/Def2QZVP\\butadiene\\0,1\C,0,-3.840235,0.233517,0.004546\C
 ,0,-2.725964,-0.512319,0.058578\C,0,-1.385329,0.05572,0.035315\C,0,-0.
 249141,-0.643568,0.014637\H,0,-4.831067,-0.187808,-0.008082\H,0,-3.783
 323,1.307943,-0.104049\H,0,-2.806791,-1.600178,0.128044\H,0,-1.390661,
 1.139953,0.008147\H,0,-0.293997,-1.729841,-0.052149\H,0,0.696824,-0.15
 866,0.025271\\Version=ES64L-G09RevD.01\State=1-A\HF=-155.700303\MP2=-1
 55.9261187\RMSD=4.181e-09\PG=C01 [X(C4H6)]\\@

 Normal termination of Gaussian 09 at Wed Aug 26 20:28:10 2020.
