 Gaussian 09, Revision D.01,
 Gaussian 09:  ES64L-G09RevD.01 24-Apr-2013

 --------------------
 #p B2PLYPD3/Def2QZVP
 --------------------

 ---------
 butadiene
 ---------
 Symbolic Z-matrix:
 Charge =  0 Multiplicity = 1

                         Standard orientation:
 ---------------------------------------------------------------------
 Center     Atomic      Atomic             Coordinates (Angstroms)
 Number     Number       Type             X           Y           Z
 ---------------------------------------------------------------------
      1          6           0       -1.801858    0.103278    0.072075
      2          6           0       -0.577912   -0.363140   -0.074703
      3          6           0        0.609106    0.429001   -0.079374
      4          6           0        1.804877   -0.141304    0.081661
      5          1           0       -2.629762   -0.581166   -0.132953
      6          1           0       -2.178418    1.115692    0.276287
      7          1           0       -0.518000   -1.439891   -0.077881
      8          1           0        0.591396    1.489312   -0.198640
      9          1           0        1.776006   -1.189773    0.119766
     10          1           0        2.753499    0.438815    0.015467
 ---------------------------------------------------------------------

 SCF Done:  E(RB2PLYPD3) =  -155.687902843     A.U. after   11 cycles
 E2(B2PLYPD3) =    -0.2258381838D+00 E(B2PLYPD3) =    -0.15591374102636D+03

 The electronic state is 1-A.
 Alpha  occ. eigenvalues --  -10.62075 -10.61910 -10.61302 -10.61298  -0.93762
 Alpha  occ. eigenvalues --   -0.85219  -0.69775  -0.64527  -0.55397  -0.53569
 Alpha  occ. eigenvalues --   -0.46328  -0.45296  -0.41598  -0.37927  -0.27559
 Alpha virt. eigenvalues --    0.01646   0.07006   0.07602   0.07822   0.09743
 Alpha virt. eigenvalues --    0.11610   0.12511   0.15034   0.15614   0.16296
 Alpha virt. eigenvalues --    0.19003   0.19502   0.21450   0.22085   0.24648

 Mulliken charges:
               1
     1  C   -0.174417
     2  C   -0.028891
     3  C   -0.039605
     4  C   -0.168476
     5  H    0.068016
     6  H    0.068057
     7  H    0.062241
     8  H    0.066109
     9  H    0.063416
    10  H    0.083548
 Sum of Mulliken charges =   0.00000

 Dipole moment (field-independent basis, Debye):
    X=              0.0160    Y=              0.0463    Z=             -0.0927  Tot=              0.1048
 Quadrupole moment (field-independent basis, Debye-Ang):
   XX=            -23.7084   YY=            -23.1693   ZZ=            -29.0153
   XY=              0.0482   XZ=             -0.0967   YZ=              0.1087

 1\1\GINC-NODE25\SP\RB2PLYPD3-FC\def2QZVP\C4H6\BOITTIER\26-Aug-2020\0\\
 #p B2PLYPD3/Def2QZVP\\butadiene\\0,1\C,0,-3.811599,0.204499,0.092764\C
 ,0,-2.689902,-0.474986,-0.038494\C,0,-1.381941,0.09489,-0.070107\C,0,-
 0.304386,-0.671637,0.109779\H,0,-4.748387,-0.32968,-0.088909\H,0,-4.00
 2632,1.27364,0.262844\H,0,-2.820655,-1.54494,-0.005416\H,0,-1.213298,1
 .137176,-0.225015\H,0,-0.517294,-1.696749,0.183183\H,0,0.731179,-0.270
 354,0.023871\\Version=ES64L-G09RevD.01\State=1-A\HF=-155.6879028\MP2=-
 155.913741\RMSD=7.946e-09\PG=C01 [X(C4H6)]\\@

 Normal termination of Gaussian 09 at Wed Aug 26 16:05:20 2020.
