 Gaussian 09, Revision D.01,
 Gaussian 09:  ES64L-G09RevD.01 24-Apr-2013

 --------------------
 #p B2PLYPD3/Def2QZVP
 --------------------

 ---------
 butadiene
 ---------
 Symbolic Z-matrix:
 Charge =  0 Multiplicity = 1

                         Standard orientation:
 ---------------------------------------------------------------------
 Center     Atomic      Atomic             Coordinates (Angstroms)
 Number     Number       Type             X           Y           Z
 ---------------------------------------------------------------------
      1          6           0       -1.855500    0.064476    0.050635
      2          6           0       -0.618899   -0.344442   -0.024258
      3          6           0        0.609256    0.433609   -0.059171
      4          6           0        1.841788   -0.139360   -0.001537
      5          1           0       -2.726876   -0.554322   -0.077368
      6          1           0       -2.086411    1.098586   -0.089351
      7          1           0       -0.421154   -1.429706    0.168168
      8          1           0        0.459801    1.546573    0.118265
      9          1           0        2.040176   -1.207829   -0.093456
     10          1           0        2.874594    0.461001    0.179731
 ---------------------------------------------------------------------

 SCF Done:  E(RB2PLYPD3) =  -155.677120760     A.U. after   11 cycles
 E2(B2PLYPD3) =    -0.2274651809D+00 E(B2PLYPD3) =    -0.15590458594062D+03

 The electronic state is 1-A.
 Alpha  occ. eigenvalues --  -10.63998 -10.63841 -10.62638 -10.60869  -0.92974
 Alpha  occ. eigenvalues --   -0.84798  -0.70045  -0.63312  -0.54589  -0.53140
 Alpha  occ. eigenvalues --   -0.47313  -0.43979  -0.40185  -0.37720  -0.28053
 Alpha virt. eigenvalues --    0.01141   0.06845   0.07247   0.07692   0.09263
 Alpha virt. eigenvalues --    0.11467   0.12471   0.14458   0.15169   0.16217
 Alpha virt. eigenvalues --    0.18783   0.19166   0.22461   0.22722   0.23477

 Mulliken charges:
               1
     1  C   -0.162181
     2  C   -0.015922
     3  C   -0.044596
     4  C   -0.165633
     5  H    0.082505
     6  H    0.050757
     7  H    0.050052
     8  H    0.060088
     9  H    0.073799
    10  H    0.071130
 Sum of Mulliken charges =   0.00000

 Dipole moment (field-independent basis, Debye):
    X=              0.0704    Y=             -0.0666    Z=              0.0850  Tot=              0.1289
 Quadrupole moment (field-independent basis, Debye-Ang):
   XX=            -23.0767   YY=            -23.7386   ZZ=            -29.2981
   XY=             -0.5581   XZ=              0.7915   YZ=              0.1437

 1\1\GINC-NODE22\SP\RB2PLYPD3-FC\def2QZVP\C4H6\BOITTIER\26-Aug-2020\0\\
 #p B2PLYPD3/Def2QZVP\\butadiene\\0,1\C,0,-3.863569,0.183783,0.062738\C
 ,0,-2.720992,-0.443661,0.009476\C,0,-1.37233,0.098527,-0.036242\C,0,-0
 .263854,-0.685714,0.047406\H,0,-4.831995,-0.270874,-0.055717\H,0,-3.90
 3301,1.238202,-0.107327\H,0,-2.723303,-1.540897,0.233073\H,0,-1.318773
 ,1.224757,0.109526\H,0,-0.261533,-1.774611,-0.013678\H,0,0.859829,-0.2
 76824,0.220972\\Version=ES64L-G09RevD.01\State=1-A\HF=-155.6771208\MP2
 =-155.9045859\RMSD=9.708e-09\PG=C01 [X(C4H6)]\\@

 Normal termination of Gaussian 09 at Wed Aug 26 13:23:49 2020.
