 Gaussian 09, Revision D.01,
 Gaussian 09:  ES64L-G09RevD.01 24-Apr-2013

 --------------------
 #p B2PLYPD3/Def2QZVP
 --------------------

 ---------
 butadiene
 ---------
 Symbolic Z-matrix:
 Charge =  0 Multiplicity = 1

                         Standard orientation:
 ---------------------------------------------------------------------
 Center     Atomic      Atomic             Coordinates (Angstroms)
 Number     Number       Type             X           Y           Z
 ---------------------------------------------------------------------
      1          6           0       -1.807814    0.132659    0.050581
      2          6           0       -0.591305   -0.471123   -0.111932
      3          6           0        0.594981    0.378589   -0.032518
      4          6           0        1.827424   -0.074719    0.021048
      5          1           0       -2.675862   -0.499472    0.139570
      6          1           0       -2.073369    1.258664    0.100201
      7          1           0       -0.467732   -1.491596    0.028943
      8          1           0        0.371656    1.468320   -0.123639
      9          1           0        2.065088   -1.147155    0.161754
     10          1           0        2.640504    0.618807    0.130092
 ---------------------------------------------------------------------

 SCF Done:  E(RB2PLYPD3) =  -155.684893071     A.U. after   11 cycles
 E2(B2PLYPD3) =    -0.2269548823D+00 E(B2PLYPD3) =    -0.15591184795365D+03

 The electronic state is 1-A.
 Alpha  occ. eigenvalues --  -10.62976 -10.62702 -10.62374 -10.61020  -0.92932
 Alpha  occ. eigenvalues --   -0.84487  -0.69778  -0.64087  -0.54500  -0.53199
 Alpha  occ. eigenvalues --   -0.46905  -0.44740  -0.40640  -0.38074  -0.27532
 Alpha virt. eigenvalues --    0.01640   0.06931   0.07216   0.08132   0.09001
 Alpha virt. eigenvalues --    0.11480   0.12273   0.14810   0.15307   0.16542
 Alpha virt. eigenvalues --    0.18523   0.19476   0.22264   0.22750   0.23658

 Mulliken charges:
               1
     1  C   -0.165067
     2  C   -0.053736
     3  C   -0.017314
     4  C   -0.177749
     5  H    0.073868
     6  H    0.069497
     7  H    0.076555
     8  H    0.053670
     9  H    0.059954
    10  H    0.080322
 Sum of Mulliken charges =   0.00000

 Dipole moment (field-independent basis, Debye):
    X=             -0.1739    Y=             -0.0087    Z=              0.3074  Tot=              0.3533
 Quadrupole moment (field-independent basis, Debye-Ang):
   XX=            -23.9114   YY=            -22.9246   ZZ=            -29.3098
   XY=             -0.5419   XZ=             -0.0239   YZ=             -0.2684

 1\1\GINC-NODE40\SP\RB2PLYPD3-FC\def2QZVP\C4H6\BOITTIER\26-Aug-2020\0\\
 #p B2PLYPD3/Def2QZVP\\butadiene\\0,1\C,0,-3.802664,0.265517,0.073414\C
 ,0,-2.72435,-0.564856,-0.062888\C,0,-1.39747,0.045441,-0.012719\C,0,-0
 .273814,-0.632203,0.061228\H,0,-4.774876,-0.18567,0.184089\H,0,-3.8484
 46,1.422555,0.079543\H,0,-2.796932,-1.584104,0.116962\H,0,-1.409373,1.
 153527,-0.145741\H,0,-0.244305,-1.724185,0.243179\H,0,0.657073,-0.1028
 29,0.145967\\Version=ES64L-G09RevD.01\State=1-A\HF=-155.6848931\MP2=-1
 55.911848\RMSD=9.720e-09\PG=C01 [X(C4H6)]\\@

 Normal termination of Gaussian 09 at Wed Aug 26 14:05:29 2020.
