 Gaussian 09, Revision D.01,
 Gaussian 09:  ES64L-G09RevD.01 24-Apr-2013

 --------------------
 #p B2PLYPD3/Def2QZVP
 --------------------

 ---------
 butadiene
 ---------
 Symbolic Z-matrix:
 Charge =  0 Multiplicity = 1

                         Standard orientation:
 ---------------------------------------------------------------------
 Center     Atomic      Atomic             Coordinates (Angstroms)
 Number     Number       Type             X           Y           Z
 ---------------------------------------------------------------------
      1          6           0       -1.833907   -0.093037    0.065502
      2          6           0       -0.580386    0.383345   -0.114630
      3          6           0        0.628567   -0.479950   -0.027768
      4          6           0        1.821076    0.146627    0.081994
      5          1           0       -2.689224    0.602664   -0.048950
      6          1           0       -2.054357   -1.073337    0.295069
      7          1           0       -0.469917    1.402347   -0.119309
      8          1           0        0.373872   -1.484839   -0.233534
      9          1           0        1.890150    1.264997    0.203308
     10          1           0        2.737377   -0.453740   -0.127168
 ---------------------------------------------------------------------

 SCF Done:  E(RB2PLYPD3) =  -155.680187637     A.U. after   11 cycles
 E2(B2PLYPD3) =    -0.2270055975D+00 E(B2PLYPD3) =    -0.15590719323422D+03

 The electronic state is 1-A.
 Alpha  occ. eigenvalues --  -10.62927 -10.62779 -10.61931 -10.61205  -0.92587
 Alpha  occ. eigenvalues --   -0.84279  -0.69615  -0.65416  -0.54045  -0.53231
 Alpha  occ. eigenvalues --   -0.47258  -0.46138  -0.40825  -0.36897  -0.27429
 Alpha virt. eigenvalues --    0.01440   0.06950   0.07466   0.08000   0.08866
 Alpha virt. eigenvalues --    0.11856   0.12224   0.14774   0.15156   0.16271
 Alpha virt. eigenvalues --    0.18749   0.19449   0.21387   0.22265   0.24177

 Mulliken charges:
               1
     1  C   -0.180693
     2  C   -0.039545
     3  C   -0.050796
     4  C   -0.171227
     5  H    0.075837
     6  H    0.068086
     7  H    0.067802
     8  H    0.078236
     9  H    0.072475
    10  H    0.079825
 Sum of Mulliken charges =   0.00000

 Dipole moment (field-independent basis, Debye):
    X=             -0.0099    Y=              0.0122    Z=             -0.1124  Tot=              0.1135
 Quadrupole moment (field-independent basis, Debye-Ang):
   XX=            -24.2084   YY=            -22.9538   ZZ=            -29.2143
   XY=              0.4769   XZ=             -0.6168   YZ=              0.1653

 1\1\GINC-NODE04\SP\RB2PLYPD3-FC\def2QZVP\C4H6\BOITTIER\26-Aug-2020\0\\
 #p B2PLYPD3/Def2QZVP\\butadiene\\0,1\C,0,-3.843583,0.206069,-0.051367\
 C,0,-2.698688,-0.489305,0.139348\C,0,-1.352381,0.139162,0.056414\C,0,-
 0.293161,-0.694506,-0.042446\H,0,-4.811827,-0.321766,0.060707\H,0,-3.8
 80708,1.208746,-0.28705\H,0,-2.775474,-1.511357,0.149604\H,0,-1.421172
 ,1.174808,0.255706\H,0,-0.428014,-1.807478,-0.157982\H,0,0.715872,-0.2
 69603,0.169941\\Version=ES64L-G09RevD.01\State=1-A\HF=-155.6801876\MP2
 =-155.9071932\RMSD=6.261e-09\PG=C01 [X(C4H6)]\\@

 Normal termination of Gaussian 09 at Wed Aug 26 12:01:46 2020.
