 Gaussian 09, Revision D.01,
 Gaussian 09:  ES64L-G09RevD.01 24-Apr-2013

 --------------------
 #p B2PLYPD3/Def2QZVP
 --------------------

 ---------
 butadiene
 ---------
 Symbolic Z-matrix:
 Charge =  0 Multiplicity = 1

                         Standard orientation:
 ---------------------------------------------------------------------
 Center     Atomic      Atomic             Coordinates (Angstroms)
 Number     Number       Type             X           Y           Z
 ---------------------------------------------------------------------
      1          6           0       -1.810889   -0.166820   -0.059901
      2          6           0       -0.606522    0.483821    0.013487
      3          6           0        0.592935   -0.366149    0.060948
      4          6           0        1.817892    0.072996   -0.025459
      5          1           0       -2.731350    0.414748   -0.106348
      6          1           0       -1.879052   -1.236165    0.184444
      7          1           0       -0.547426    1.540656    0.136360
      8          1           0        0.458271   -1.482977   -0.010552
      9          1           0        1.927241    1.082559    0.018396
     10          1           0        2.811824   -0.461904   -0.156753
 ---------------------------------------------------------------------

 SCF Done:  E(RB2PLYPD3) =  -155.680183010     A.U. after   12 cycles
 E2(B2PLYPD3) =    -0.2267986241D+00 E(B2PLYPD3) =    -0.15590698163370D+03

 The electronic state is 1-A.
 Alpha  occ. eigenvalues --  -10.63393 -10.62533 -10.62284 -10.60583  -0.93027
 Alpha  occ. eigenvalues --   -0.84845  -0.69375  -0.64516  -0.54724  -0.53432
 Alpha  occ. eigenvalues --   -0.46760  -0.44844  -0.41097  -0.37780  -0.27531
 Alpha virt. eigenvalues --    0.01715   0.06999   0.07375   0.07961   0.08869
 Alpha virt. eigenvalues --    0.11570   0.12760   0.14278   0.15582   0.16704
 Alpha virt. eigenvalues --    0.18673   0.19776   0.21865   0.23333   0.23810

 Mulliken charges:
               1
     1  C   -0.169876
     2  C   -0.059688
     3  C   -0.012947
     4  C   -0.168199
     5  H    0.077063
     6  H    0.074989
     7  H    0.071867
     8  H    0.050229
     9  H    0.056053
    10  H    0.080509
 Sum of Mulliken charges =   0.00000

 Dipole moment (field-independent basis, Debye):
    X=             -0.0070    Y=              0.1440    Z=              0.1331  Tot=              0.1962
 Quadrupole moment (field-independent basis, Debye-Ang):
   XX=            -23.5397   YY=            -23.2091   ZZ=            -29.2259
   XY=              0.0155   XZ=             -0.6187   YZ=              0.0294

 1\1\GINC-NODE31\SP\RB2PLYPD3-FC\def2QZVP\C4H6\BOITTIER\26-Aug-2020\0\\
 #p B2PLYPD3/Def2QZVP\\butadiene\\0,1\C,0,-3.804152,0.268944,0.067796\C
 ,0,-2.732059,-0.583699,0.014537\C,0,-1.402143,0.042189,-0.040093\C,0,-
 0.273322,-0.602814,0.062713\H,0,-4.812385,-0.141577,0.118458\H,0,-3.68
 3143,1.328853,-0.196397\H,0,-2.858482,-1.636718,-0.088708\H,0,-1.33943
 ,1.166507,0.010179\H,0,-0.342276,-1.616585,0.037958\H,0,0.798435,-0.24
 7697,0.191112\\Version=ES64L-G09RevD.01\State=1-A\HF=-155.680183\MP2=-
 155.9069816\RMSD=3.005e-09\PG=C01 [X(C4H6)]\\@

 Normal termination of Gaussian 09 at Wed Aug 26 13:41:36 2020.
