 Gaussian 09, Revision D.01,
 Gaussian 09:  ES64L-G09RevD.01 24-Apr-2013

 --------------------
 #p B2PLYPD3/Def2QZVP
 --------------------

 ---------
 butadiene
 ---------
 Symbolic Z-matrix:
 Charge =  0 Multiplicity = 1

                         Standard orientation:
 ---------------------------------------------------------------------
 Center     Atomic      Atomic             Coordinates (Angstroms)
 Number     Number       Type             X           Y           Z
 ---------------------------------------------------------------------
      1          6           0       -1.772182    0.129697   -0.002647
      2          6           0       -0.601972   -0.443135   -0.064293
      3          6           0        0.562820    0.350030   -0.004862
      4          6           0        1.822122   -0.070460    0.030346
      5          1           0       -2.649287   -0.442071    0.156389
      6          1           0       -1.921733    1.254914    0.185128
      7          1           0       -0.611034   -1.548220   -0.026863
      8          1           0        0.329173    1.483286   -0.173331
      9          1           0        2.107352   -1.104301    0.092327
     10          1           0        2.680799    0.559596    0.015088
 ---------------------------------------------------------------------

 SCF Done:  E(RB2PLYPD3) =  -155.683968830     A.U. after   11 cycles
 E2(B2PLYPD3) =    -0.2261750213D+00 E(B2PLYPD3) =    -0.15591014385152D+03

 The electronic state is 1-A.
 Alpha  occ. eigenvalues --  -10.62964 -10.62058 -10.61419 -10.61023  -0.94056
 Alpha  occ. eigenvalues --   -0.85215  -0.70460  -0.63111  -0.55721  -0.53320
 Alpha  occ. eigenvalues --   -0.46708  -0.43959  -0.40729  -0.39003  -0.27768
 Alpha virt. eigenvalues --    0.01806   0.06963   0.07192   0.07881   0.09563
 Alpha virt. eigenvalues --    0.11540   0.12627   0.14813   0.15406   0.16645
 Alpha virt. eigenvalues --    0.18680   0.19958   0.21951   0.22778   0.23249

 Mulliken charges:
               1
     1  C   -0.150051
     2  C   -0.025801
     3  C   -0.020396
     4  C   -0.179202
     5  H    0.075477
     6  H    0.049962
     7  H    0.057060
     8  H    0.046681
     9  H    0.062290
    10  H    0.083979
 Sum of Mulliken charges =   0.00000

 Dipole moment (field-independent basis, Debye):
    X=             -0.0742    Y=             -0.1410    Z=              0.1885  Tot=              0.2468
 Quadrupole moment (field-independent basis, Debye-Ang):
   XX=            -23.4832   YY=            -23.3246   ZZ=            -29.0521
   XY=             -0.1724   XZ=             -0.6570   YZ=             -0.1637

 1\1\GINC-NODE13\SP\RB2PLYPD3-FC\def2QZVP\C4H6\BOITTIER\26-Aug-2020\0\\
 #p B2PLYPD3/Def2QZVP\\butadiene\\0,1\C,0,-3.768509,0.248169,0.026896\C
 ,0,-2.726961,-0.535688,-0.018619\C,0,-1.433695,0.026455,0.010412\C,0,-
 0.275201,-0.621374,0.056253\H,0,-4.735699,-0.143403,0.207837\H,0,-3.70
 2862,1.387021,0.176713\H,0,-2.942555,-1.617624,0.056413\H,0,-1.452433,
 1.17726,-0.195837\H,0,-0.188153,-1.687758,0.152544\H,0,0.686135,-0.164
 397,0.017076\\Version=ES64L-G09RevD.01\State=1-A\HF=-155.6839688\MP2=-
 155.9101439\RMSD=3.983e-09\PG=C01 [X(C4H6)]\\@

 Normal termination of Gaussian 09 at Wed Aug 26 13:38:02 2020.
