 Gaussian 09, Revision D.01,
 Gaussian 09:  ES64L-G09RevD.01 24-Apr-2013

 --------------------
 #p B2PLYPD3/Def2QZVP
 --------------------

 ---------
 butadiene
 ---------
 Symbolic Z-matrix:
 Charge =  0 Multiplicity = 1

                         Standard orientation:
 ---------------------------------------------------------------------
 Center     Atomic      Atomic             Coordinates (Angstroms)
 Number     Number       Type             X           Y           Z
 ---------------------------------------------------------------------
      1          6           0        1.826615    0.109398    0.064315
      2          6           0        0.608309   -0.465255   -0.087653
      3          6           0       -0.606086    0.407927   -0.085501
      4          6           0       -1.830255   -0.102794    0.039048
      5          1           0        2.823564   -0.390656    0.258754
      6          1           0        2.006549    1.238945    0.001757
      7          1           0        0.378610   -1.484906   -0.187741
      8          1           0       -0.516097    1.548250   -0.066654
      9          1           0       -2.006202   -1.182409    0.209119
     10          1           0       -2.677925    0.575118    0.203510
 ---------------------------------------------------------------------

 SCF Done:  E(RB2PLYPD3) =  -155.682210240     A.U. after   11 cycles
 E2(B2PLYPD3) =    -0.2276335295D+00 E(B2PLYPD3) =    -0.15590984376952D+03

 The electronic state is 1-A.
 Alpha  occ. eigenvalues --  -10.63513 -10.63357 -10.63310 -10.61645  -0.92353
 Alpha  occ. eigenvalues --   -0.84206  -0.69176  -0.63712  -0.54335  -0.52736
 Alpha  occ. eigenvalues --   -0.47156  -0.44086  -0.40519  -0.37466  -0.27667
 Alpha virt. eigenvalues --    0.01827   0.06810   0.07210   0.07887   0.08632
 Alpha virt. eigenvalues --    0.11470   0.12462   0.14087   0.15702   0.16375
 Alpha virt. eigenvalues --    0.18794   0.20146   0.21647   0.22044   0.23963

 Mulliken charges:
               1
     1  C   -0.154485
     2  C   -0.055331
     3  C   -0.020300
     4  C   -0.172935
     5  H    0.074695
     6  H    0.060976
     7  H    0.076556
     8  H    0.053863
     9  H    0.058495
    10  H    0.078467
 Sum of Mulliken charges =   0.00000

 Dipole moment (field-independent basis, Debye):
    X=              0.0896    Y=              0.0133    Z=              0.2557  Tot=              0.2712
 Quadrupole moment (field-independent basis, Debye-Ang):
   XX=            -23.8234   YY=            -23.1383   ZZ=            -29.4269
   XY=              0.4315   XZ=             -0.2728   YZ=             -0.0478

 1\1\GINC-NODE23\SP\RB2PLYPD3-FC\def2QZVP\C4H6\BOITTIER\26-Aug-2020\0\\
 #p B2PLYPD3/Def2QZVP\\butadiene\\0,1\C,0,-3.82734,0.229545,-0.050396\C
 ,0,-2.73374,-0.553173,0.119844\C,0,-1.38021,0.082626,0.089488\C,0,-0.2
 70813,-0.647081,-0.018702\H,0,-4.900053,-0.085597,-0.228551\H,0,-3.797
 355,1.374351,-0.024173\H,0,-2.693734,-1.593957,0.252644\H,0,-1.260315,
 1.218995,0.033992\H,0,-0.296232,-1.74549,-0.153987\H,0,0.685509,-0.141
 205,-0.204966\\Version=ES64L-G09RevD.01\State=1-A\HF=-155.6822102\MP2=
 -155.9098438\RMSD=9.199e-09\PG=C01 [X(C4H6)]\\@

 Normal termination of Gaussian 09 at Wed Aug 26 13:16:31 2020.
