 Gaussian 09, Revision D.01,
 Gaussian 09:  ES64L-G09RevD.01 24-Apr-2013

 --------------------
 #p B2PLYPD3/Def2QZVP
 --------------------

 ---------
 butadiene
 ---------
 Symbolic Z-matrix:
 Charge =  0 Multiplicity = 1

                         Standard orientation:
 ---------------------------------------------------------------------
 Center     Atomic      Atomic             Coordinates (Angstroms)
 Number     Number       Type             X           Y           Z
 ---------------------------------------------------------------------
      1          6           0        1.834659   -0.114842    0.015371
      2          6           0        0.607274    0.419743   -0.013910
      3          6           0       -0.598184   -0.398205   -0.032823
      4          6           0       -1.837543    0.102467    0.006717
      5          1           0        2.762295    0.501389    0.036878
      6          1           0        1.923144   -1.209705    0.010192
      7          1           0        0.447431    1.481470   -0.030375
      8          1           0       -0.434563   -1.454963    0.021246
      9          1           0       -2.034647    1.162680    0.054004
     10          1           0       -2.700901   -0.535848    0.055922
 ---------------------------------------------------------------------

 SCF Done:  E(RB2PLYPD3) =  -155.699448260     A.U. after   11 cycles
 E2(B2PLYPD3) =    -0.2259514862D+00 E(B2PLYPD3) =    -0.15592539974612D+03

 The electronic state is 1-A.
 Alpha  occ. eigenvalues --  -10.62484 -10.62401 -10.62112 -10.61424  -0.93006
 Alpha  occ. eigenvalues --   -0.84691  -0.69933  -0.64426  -0.54471  -0.53663
 Alpha  occ. eigenvalues --   -0.46788  -0.45571  -0.41162  -0.38079  -0.27627
 Alpha virt. eigenvalues --    0.01737   0.06993   0.07388   0.08112   0.09426
 Alpha virt. eigenvalues --    0.11701   0.12473   0.14626   0.15747   0.16140
 Alpha virt. eigenvalues --    0.18706   0.20410   0.21655   0.22959   0.23898

 Mulliken charges:
               1
     1  C   -0.173911
     2  C   -0.032144
     3  C   -0.029074
     4  C   -0.177622
     5  H    0.086561
     6  H    0.063185
     7  H    0.057669
     8  H    0.056396
     9  H    0.065214
    10  H    0.083725
 Sum of Mulliken charges =   0.00000

 Dipole moment (field-independent basis, Debye):
    X=             -0.0125    Y=              0.0203    Z=              0.1035  Tot=              0.1062
 Quadrupole moment (field-independent basis, Debye-Ang):
   XX=            -23.5403   YY=            -23.1150   ZZ=            -29.3117
   XY=             -0.1675   XZ=             -0.1935   YZ=             -0.0320

 1\1\GINC-NODE16\SP\RB2PLYPD3-FC\def2QZVP\C4H6\BOITTIER\26-Aug-2020\0\\
 #p B2PLYPD3/Def2QZVP\\butadiene\\0,1\C,0,-3.83445,0.232112,0.033908\C,
 0,-2.724557,-0.516965,0.02232\C,0,-1.390661,0.067815,-0.013454\C,0,-0.
 262741,-0.64833,0.042931\H,0,-4.858516,-0.204734,0.068051\H,0,-3.7227,
 1.324348,0.000528\H,0,-2.760149,-1.590135,0.033454\H,0,-1.359634,1.137
 751,0.013118\H,0,-0.261328,-1.72514,0.11788\H,0,0.702222,-0.176291,0.0
 78701\\Version=ES64L-G09RevD.01\State=1-A\HF=-155.6994483\MP2=-155.925
 3997\RMSD=2.994e-09\PG=C01 [X(C4H6)]\\@

 Normal termination of Gaussian 09 at Wed Aug 26 22:08:25 2020.
