 Gaussian 09, Revision D.01,
 Gaussian 09:  ES64L-G09RevD.01 24-Apr-2013

 --------------------
 #p B2PLYPD3/Def2QZVP
 --------------------

 ---------
 butadiene
 ---------
 Symbolic Z-matrix:
 Charge =  0 Multiplicity = 1

                         Standard orientation:
 ---------------------------------------------------------------------
 Center     Atomic      Atomic             Coordinates (Angstroms)
 Number     Number       Type             X           Y           Z
 ---------------------------------------------------------------------
      1          6           0        1.836513   -0.123790    0.012671
      2          6           0        0.605400    0.416752   -0.019172
      3          6           0       -0.596301   -0.396359   -0.021012
      4          6           0       -1.839628    0.105438    0.028424
      5          1           0        2.669393    0.536492    0.007661
      6          1           0        1.997550   -1.167746    0.074076
      7          1           0        0.466778    1.484943   -0.065069
      8          1           0       -0.450496   -1.483048   -0.035383
      9          1           0       -2.011440    1.157867    0.072474
     10          1           0       -2.707695   -0.540756   -0.059226
 ---------------------------------------------------------------------

 SCF Done:  E(RB2PLYPD3) =  -155.699810454     A.U. after   11 cycles
 E2(B2PLYPD3) =    -0.2258271469D+00 E(B2PLYPD3) =    -0.15592563760131D+03

 The electronic state is 1-A.
 Alpha  occ. eigenvalues --  -10.62599 -10.62518 -10.61387 -10.61199  -0.92930
 Alpha  occ. eigenvalues --   -0.84800  -0.70377  -0.64270  -0.54513  -0.54156
 Alpha  occ. eigenvalues --   -0.46574  -0.46080  -0.41429  -0.37960  -0.27453
 Alpha virt. eigenvalues --    0.01589   0.07032   0.07436   0.08100   0.09488
 Alpha virt. eigenvalues --    0.11762   0.12409   0.14901   0.15794   0.16131
 Alpha virt. eigenvalues --    0.18752   0.20367   0.21741   0.22983   0.23896

 Mulliken charges:
               1
     1  C   -0.180782
     2  C   -0.034116
     3  C   -0.026661
     4  C   -0.179875
     5  H    0.085629
     6  H    0.073773
     7  H    0.057830
     8  H    0.053008
     9  H    0.066210
    10  H    0.084985
 Sum of Mulliken charges =   0.00000

 Dipole moment (field-independent basis, Debye):
    X=              0.0325    Y=              0.0169    Z=             -0.0269  Tot=              0.0454
 Quadrupole moment (field-independent basis, Debye-Ang):
   XX=            -23.6890   YY=            -22.9402   ZZ=            -29.2707
   XY=             -0.2370   XZ=              0.2009   YZ=             -0.0005

 1\1\GINC-NODE38\SP\RB2PLYPD3-FC\def2QZVP\C4H6\BOITTIER\26-Aug-2020\0\\
 #p B2PLYPD3/Def2QZVP\\butadiene\\0,1\C,0,-3.834675,0.240679,0.032981\C
 ,0,-2.722368,-0.515189,0.016373\C,0,-1.393001,0.065721,-0.007439\C,0,-
 0.261266,-0.65208,0.056141\H,0,-4.773634,-0.257192,0.045859\H,0,-3.803
 147,1.297792,0.065633\H,0,-2.780265,-1.591632,-0.000118\H,0,-1.33909,1
 .160021,-0.051704\H,0,-0.283241,-1.716624,0.12914\H,0,0.709302,-0.1769
 57,-0.048965\\Version=ES64L-G09RevD.01\State=1-A\HF=-155.6998105\MP2=-
 155.9256376\RMSD=5.682e-09\PG=C01 [X(C4H6)]\\@

 Normal termination of Gaussian 09 at Wed Aug 26 18:55:33 2020.
