 Gaussian 09, Revision D.01,
 Gaussian 09:  ES64L-G09RevD.01 24-Apr-2013

 --------------------
 #p B2PLYPD3/Def2QZVP
 --------------------

 ---------
 butadiene
 ---------
 Symbolic Z-matrix:
 Charge =  0 Multiplicity = 1

                         Standard orientation:
 ---------------------------------------------------------------------
 Center     Atomic      Atomic             Coordinates (Angstroms)
 Number     Number       Type             X           Y           Z
 ---------------------------------------------------------------------
      1          6           0        1.845547    0.097429   -0.007998
      2          6           0        0.598749   -0.402443    0.043083
      3          6           0       -0.593772    0.434319   -0.000253
      4          6           0       -1.826002   -0.118068   -0.030857
      5          1           0        2.717849   -0.538820   -0.063993
      6          1           0        2.013211    1.160564   -0.144853
      7          1           0        0.410220   -1.444688    0.086814
      8          1           0       -0.545240    1.505589    0.161315
      9          1           0       -1.993946   -1.191494   -0.080560
     10          1           0       -2.749229    0.441425    0.017429
 ---------------------------------------------------------------------

 SCF Done:  E(RB2PLYPD3) =  -155.697153795     A.U. after   11 cycles
 E2(B2PLYPD3) =    -0.2262814496D+00 E(B2PLYPD3) =    -0.15592343524446D+03

 The electronic state is 1-A.
 Alpha  occ. eigenvalues --  -10.62821 -10.62575 -10.61742 -10.61603  -0.92830
 Alpha  occ. eigenvalues --   -0.84501  -0.70129  -0.64574  -0.54637  -0.53773
 Alpha  occ. eigenvalues --   -0.46605  -0.45370  -0.41562  -0.37805  -0.27434
 Alpha virt. eigenvalues --    0.01545   0.07086   0.07466   0.08020   0.09136
 Alpha virt. eigenvalues --    0.11618   0.12584   0.14616   0.15696   0.16399
 Alpha virt. eigenvalues --    0.18829   0.20176   0.21862   0.23087   0.23448

 Mulliken charges:
               1
     1  C   -0.171149
     2  C   -0.041263
     3  C   -0.032321
     4  C   -0.175910
     5  H    0.083075
     6  H    0.067469
     7  H    0.064980
     8  H    0.066605
     9  H    0.058944
    10  H    0.079569
 Sum of Mulliken charges =   0.00000

 Dipole moment (field-independent basis, Debye):
    X=             -0.0776    Y=             -0.0305    Z=              0.0069  Tot=              0.0837
 Quadrupole moment (field-independent basis, Debye-Ang):
   XX=            -23.4254   YY=            -23.1354   ZZ=            -29.2886
   XY=              0.2162   XZ=             -0.4932   YZ=              0.0885

 1\1\GINC-NODE39\SP\RB2PLYPD3-FC\def2QZVP\C4H6\BOITTIER\26-Aug-2020\0\\
 #p B2PLYPD3/Def2QZVP\\butadiene\\0,1\C,0,-3.846433,0.215917,0.032651\C
 ,0,-2.711929,-0.504265,-0.002337\C,0,-1.386704,0.10223,0.007419\C,0,-0
 .275364,-0.663941,0.056042\H,0,-4.819436,-0.248302,0.114047\H,0,-3.816
 604,1.296051,0.130207\H,0,-2.716623,-1.564303,-0.007654\H,0,-1.240875,
 1.157849,-0.193785\H,0,-0.305154,-1.747484,0.145296\H,0,0.73381,-0.284
 142,-0.014898\\Version=ES64L-G09RevD.01\State=1-A\HF=-155.6971538\MP2=
 -155.9234352\RMSD=2.818e-09\PG=C01 [X(C4H6)]\\@

 Normal termination of Gaussian 09 at Wed Aug 26 09:09:25 2020.
