 Gaussian 09, Revision D.01,
 Gaussian 09:  ES64L-G09RevD.01 24-Apr-2013

 --------------------
 #p B2PLYPD3/Def2QZVP
 --------------------

 ---------
 butadiene
 ---------
 Symbolic Z-matrix:
 Charge =  0 Multiplicity = 1

                         Standard orientation:
 ---------------------------------------------------------------------
 Center     Atomic      Atomic             Coordinates (Angstroms)
 Number     Number       Type             X           Y           Z
 ---------------------------------------------------------------------
      1          6           0        1.837818   -0.113415   -0.015585
      2          6           0        0.602461    0.402638    0.000173
      3          6           0       -0.609419   -0.415378    0.026932
      4          6           0       -1.834842    0.113492   -0.031430
      5          1           0        2.695119    0.523030    0.008158
      6          1           0        2.005939   -1.180381   -0.054220
      7          1           0        0.477830    1.495995    0.100976
      8          1           0       -0.497637   -1.478034    0.070608
      9          1           0       -1.920831    1.215159   -0.023615
     10          1           0       -2.736534   -0.499789    0.017544
 ---------------------------------------------------------------------

 SCF Done:  E(RB2PLYPD3) =  -155.699347280     A.U. after   11 cycles
 E2(B2PLYPD3) =    -0.2259725826D+00 E(B2PLYPD3) =    -0.15592531986272D+03

 The electronic state is 1-A.
 Alpha  occ. eigenvalues --  -10.62841 -10.62407 -10.61799 -10.61361  -0.92855
 Alpha  occ. eigenvalues --   -0.84844  -0.69764  -0.64034  -0.54482  -0.53876
 Alpha  occ. eigenvalues --   -0.46480  -0.45447  -0.41375  -0.37920  -0.27692
 Alpha virt. eigenvalues --    0.01825   0.07048   0.07348   0.08023   0.09414
 Alpha virt. eigenvalues --    0.11689   0.12438   0.14566   0.15748   0.16218
 Alpha virt. eigenvalues --    0.18741   0.20247   0.21545   0.22864   0.24015

 Mulliken charges:
               1
     1  C   -0.180266
     2  C   -0.027991
     3  C   -0.035481
     4  C   -0.170263
     5  H    0.086609
     6  H    0.067557
     7  H    0.053347
     8  H    0.058309
     9  H    0.061307
    10  H    0.086873
 Sum of Mulliken charges =   0.00000

 Dipole moment (field-independent basis, Debye):
    X=              0.0167    Y=             -0.0426    Z=              0.1281  Tot=              0.1361
 Quadrupole moment (field-independent basis, Debye-Ang):
   XX=            -23.6210   YY=            -23.0331   ZZ=            -29.3207
   XY=              0.0217   XZ=             -0.0699   YZ=              0.0865

 1\1\GINC-NODE18\SP\RB2PLYPD3-FC\def2QZVP\C4H6\BOITTIER\26-Aug-2020\0\\
 #p B2PLYPD3/Def2QZVP\\butadiene\\0,1\C,0,-3.841315,0.22152,0.003374\C,
 0,-2.717321,-0.505071,0.040371\C,0,-1.379236,0.084883,0.041503\C,0,-0.
 267573,-0.65514,0.00485\H,0,-4.798005,-0.251142,0.047246\H,0,-3.81723,
 1.299363,-0.073095\H,0,-2.788662,-1.598963,0.179784\H,0,-1.300168,1.15
 1349,0.047589\H,0,-0.378764,-1.753585,0.051526\H,0,0.728955,-0.210607,
 0.034576\\Version=ES64L-G09RevD.01\State=1-A\HF=-155.6993473\MP2=-155.
 9253199\RMSD=3.733e-09\PG=C01 [X(C4H6)]\\@

 Normal termination of Gaussian 09 at Wed Aug 26 22:00:02 2020.
