 Gaussian 09, Revision D.01,
 Gaussian 09:  ES64L-G09RevD.01 24-Apr-2013

 --------------------
 #p B2PLYPD3/Def2QZVP
 --------------------

 ---------
 butadiene
 ---------
 Symbolic Z-matrix:
 Charge =  0 Multiplicity = 1

                         Standard orientation:
 ---------------------------------------------------------------------
 Center     Atomic      Atomic             Coordinates (Angstroms)
 Number     Number       Type             X           Y           Z
 ---------------------------------------------------------------------
      1          6           0        1.841106    0.112790    0.016099
      2          6           0        0.604702   -0.397078   -0.032348
      3          6           0       -0.602823    0.409889   -0.033196
      4          6           0       -1.840316   -0.117840    0.024118
      5          1           0        2.640459   -0.571831    0.055438
      6          1           0        2.058582    1.150930    0.036757
      7          1           0        0.457922   -1.459073    0.015293
      8          1           0       -0.482973    1.494407   -0.008526
      9          1           0       -1.969203   -1.186583   -0.004280
     10          1           0       -2.720798    0.525584    0.057274
 ---------------------------------------------------------------------

 SCF Done:  E(RB2PLYPD3) =  -155.699577812     A.U. after   11 cycles
 E2(B2PLYPD3) =    -0.2257701209D+00 E(B2PLYPD3) =    -0.15592534793289D+03

 The electronic state is 1-A.
 Alpha  occ. eigenvalues --  -10.62604 -10.62382 -10.61667 -10.60987  -0.92921
 Alpha  occ. eigenvalues --   -0.84864  -0.70347  -0.64258  -0.54375  -0.54335
 Alpha  occ. eigenvalues --   -0.46561  -0.46014  -0.41427  -0.37990  -0.27496
 Alpha virt. eigenvalues --    0.01630   0.07024   0.07460   0.08101   0.09507
 Alpha virt. eigenvalues --    0.11750   0.12378   0.14883   0.15890   0.16020
 Alpha virt. eigenvalues --    0.18736   0.20433   0.21594   0.23045   0.24079

 Mulliken charges:
               1
     1  C   -0.180222
     2  C   -0.031768
     3  C   -0.029780
     4  C   -0.180180
     5  H    0.084216
     6  H    0.073532
     7  H    0.056279
     8  H    0.054203
     9  H    0.067169
    10  H    0.086551
 Sum of Mulliken charges =   0.00000

 Dipole moment (field-independent basis, Debye):
    X=              0.0192    Y=              0.0059    Z=              0.0920  Tot=              0.0942
 Quadrupole moment (field-independent basis, Debye-Ang):
   XX=            -23.6840   YY=            -22.9233   ZZ=            -29.2764
   XY=              0.1873   XZ=              0.0920   YZ=              0.0224

 1\1\GINC-NODE06\SP\RB2PLYPD3-FC\def2QZVP\C4H6\BOITTIER\26-Aug-2020\0\\
 #p B2PLYPD3/Def2QZVP\\butadiene\\0,1\C,0,-3.842385,0.227424,-0.002201\
 C,0,-2.718394,-0.495922,0.064295\C,0,-1.384886,0.079127,0.044604\C,0,-
 0.263347,-0.665067,0.00591\H,0,-4.752438,-0.302263,-0.023524\H,0,-3.86
 8664,1.286719,-0.053783\H,0,-2.766149,-1.567885,0.048127\H,0,-1.306774
 ,1.16625,-0.012097\H,0,-0.329708,-1.738206,0.0659\H,0,0.718848,-0.1926
 67,-0.043817\\Version=ES64L-G09RevD.01\State=1-A\HF=-155.6995778\MP2=-
 155.9253479\RMSD=3.655e-09\PG=C01 [X(C4H6)]\\@

 Normal termination of Gaussian 09 at Wed Aug 26 15:44:17 2020.
