 Gaussian 09, Revision D.01,
 Gaussian 09:  ES64L-G09RevD.01 24-Apr-2013

 --------------------
 #p B2PLYPD3/Def2QZVP
 --------------------

 ---------
 butadiene
 ---------
 Symbolic Z-matrix:
 Charge =  0 Multiplicity = 1

                         Standard orientation:
 ---------------------------------------------------------------------
 Center     Atomic      Atomic             Coordinates (Angstroms)
 Number     Number       Type             X           Y           Z
 ---------------------------------------------------------------------
      1          6           0        1.844017   -0.103144    0.033701
      2          6           0        0.593764    0.401322   -0.054083
      3          6           0       -0.603993   -0.408631   -0.014774
      4          6           0       -1.838875    0.107806    0.007882
      5          1           0        2.691261    0.546015    0.020618
      6          1           0        2.049818   -1.150993    0.095559
      7          1           0        0.394779    1.449229   -0.048457
      8          1           0       -0.453276   -1.491235   -0.097036
      9          1           0       -1.992471    1.236320    0.135192
     10          1           0       -2.659585   -0.573457    0.057765
 ---------------------------------------------------------------------

 SCF Done:  E(RB2PLYPD3) =  -155.695389445     A.U. after   11 cycles
 E2(B2PLYPD3) =    -0.2264069914D+00 E(B2PLYPD3) =    -0.15592179643636D+03

 The electronic state is 1-A.
 Alpha  occ. eigenvalues --  -10.62523 -10.62460 -10.62053 -10.61533  -0.92980
 Alpha  occ. eigenvalues --   -0.84616  -0.70429  -0.63910  -0.54697  -0.53435
 Alpha  occ. eigenvalues --   -0.46690  -0.45712  -0.41162  -0.38042  -0.27470
 Alpha virt. eigenvalues --    0.01452   0.07026   0.07274   0.08126   0.09438
 Alpha virt. eigenvalues --    0.11727   0.12276   0.14785   0.15582   0.16222
 Alpha virt. eigenvalues --    0.18689   0.19986   0.21781   0.22834   0.23817

 Mulliken charges:
               1
     1  C   -0.178088
     2  C   -0.033597
     3  C   -0.025865
     4  C   -0.179521
     5  H    0.084946
     6  H    0.069642
     7  H    0.057717
     8  H    0.053111
     9  H    0.063253
    10  H    0.088401
 Sum of Mulliken charges =   0.00000

 Dipole moment (field-independent basis, Debye):
    X=              0.0384    Y=             -0.0449    Z=              0.1101  Tot=              0.1249
 Quadrupole moment (field-independent basis, Debye-Ang):
   XX=            -23.7808   YY=            -23.0016   ZZ=            -29.3260
   XY=             -0.2304   XZ=             -0.1316   YZ=              0.1009

 1\1\GINC-NODE24\SP\RB2PLYPD3-FC\def2QZVP\C4H6\BOITTIER\26-Aug-2020\0\\
 #p B2PLYPD3/Def2QZVP\\butadiene\\0,1\C,0,-3.845536,0.22988,0.05115\C,0
 ,-2.711064,-0.501021,-0.012723\C,0,-1.383597,0.073349,-0.00157\C,0,-0.
 265986,-0.66211,0.045335\H,0,-4.798623,-0.250672,0.060976\H,0,-3.85294
 8,1.299328,0.071011\H,0,-2.710076,-1.566607,0.034828\H,0,-1.331037,1.1
 61026,-0.126911\H,0,-0.324052,-1.793626,0.217507\H,0,0.667143,-0.14366
 3,0.07093\\Version=ES64L-G09RevD.01\State=1-A\HF=-155.6953894\MP2=-155
 .9217964\RMSD=7.089e-09\PG=C01 [X(C4H6)]\\@

 Normal termination of Gaussian 09 at Wed Aug 26 09:32:24 2020.
