 Gaussian 09, Revision D.01,
 Gaussian 09:  ES64L-G09RevD.01 24-Apr-2013

 --------------------
 #p B2PLYPD3/Def2QZVP
 --------------------

 ---------
 butadiene
 ---------
 Symbolic Z-matrix:
 Charge =  0 Multiplicity = 1

                         Standard orientation:
 ---------------------------------------------------------------------
 Center     Atomic      Atomic             Coordinates (Angstroms)
 Number     Number       Type             X           Y           Z
 ---------------------------------------------------------------------
      1          6           0        1.833355   -0.126828    0.006890
      2          6           0        0.609281    0.416835   -0.015483
      3          6           0       -0.603093   -0.398927   -0.037030
      4          6           0       -1.837503    0.105527    0.013315
      5          1           0        2.717254    0.495520    0.058939
      6          1           0        1.913998   -1.194694    0.028917
      7          1           0        0.509662    1.518896    0.007272
      8          1           0       -0.463971   -1.455383    0.017026
      9          1           0       -1.979378    1.176962    0.005025
     10          1           0       -2.709807   -0.520946    0.076665
 ---------------------------------------------------------------------

 SCF Done:  E(RB2PLYPD3) =  -155.700078393     A.U. after   11 cycles
 E2(B2PLYPD3) =    -0.2257585359D+00 E(B2PLYPD3) =    -0.15592583692899D+03

 The electronic state is 1-A.
 Alpha  occ. eigenvalues --  -10.62790 -10.62356 -10.61399 -10.61360  -0.92932
 Alpha  occ. eigenvalues --   -0.84938  -0.69879  -0.64174  -0.54435  -0.54185
 Alpha  occ. eigenvalues --   -0.46427  -0.45704  -0.41449  -0.38022  -0.27654
 Alpha virt. eigenvalues --    0.01847   0.07052   0.07399   0.08065   0.09432
 Alpha virt. eigenvalues --    0.11724   0.12502   0.14612   0.15855   0.16137
 Alpha virt. eigenvalues --    0.18706   0.20405   0.21476   0.23183   0.24032

 Mulliken charges:
               1
     1  C   -0.179062
     2  C   -0.028278
     3  C   -0.031670
     4  C   -0.176685
     5  H    0.088565
     6  H    0.066489
     7  H    0.051314
     8  H    0.056813
     9  H    0.065778
    10  H    0.086738
 Sum of Mulliken charges =   0.00000

 Dipole moment (field-independent basis, Debye):
    X=             -0.0009    Y=             -0.0049    Z=              0.1434  Tot=              0.1434
 Quadrupole moment (field-independent basis, Debye-Ang):
   XX=            -23.6313   YY=            -23.0183   ZZ=            -29.2825
   XY=              0.0457   XZ=             -0.0269   YZ=             -0.0656

 1\1\GINC-NODE19\SP\RB2PLYPD3-FC\def2QZVP\C4H6\BOITTIER\26-Aug-2020\0\\
 #p B2PLYPD3/Def2QZVP\\butadiene\\0,1\C,0,-3.833891,0.23378,0.029113\C,
 0,-2.725357,-0.518236,0.02203\C,0,-1.387851,0.069422,-0.016949\C,0,-0.
 262028,-0.6441,0.04774\H,0,-4.813812,-0.22095,0.094524\H,0,-3.724299,1
 .299286,0.025302\H,0,-2.82221,-1.61967,0.071467\H,0,-1.337755,1.134814
 ,0.011428\H,0,-0.31195,-1.72362,0.06548\H,0,0.707498,-0.180491,0.09757
 4\\Version=ES64L-G09RevD.01\State=1-A\HF=-155.7000784\MP2=-155.9258369
 \RMSD=3.921e-09\PG=C01 [X(C4H6)]\\@

 Normal termination of Gaussian 09 at Wed Aug 26 08:49:31 2020.
