 Gaussian 09, Revision D.01,
 Gaussian 09:  ES64L-G09RevD.01 24-Apr-2013

 --------------------
 #p B2PLYPD3/Def2QZVP
 --------------------

 ---------
 butadiene
 ---------
 Symbolic Z-matrix:
 Charge =  0 Multiplicity = 1

                         Standard orientation:
 ---------------------------------------------------------------------
 Center     Atomic      Atomic             Coordinates (Angstroms)
 Number     Number       Type             X           Y           Z
 ---------------------------------------------------------------------
      1          6           0        1.861242   -0.145869   -0.059903
      2          6           0        0.637990    0.438681    0.051904
      3          6           0       -0.616751   -0.358927    0.042163
      4          6           0       -1.869566    0.085006   -0.045709
      5          1           0        2.765544    0.450487   -0.102603
      6          1           0        1.930388   -1.254476   -0.124223
      7          1           0        0.660244    1.561972    0.328957
      8          1           0       -0.520935   -1.493785    0.227066
      9          1           0       -2.165244    1.119144   -0.302185
     10          1           0       -2.747480   -0.496684    0.042255
 ---------------------------------------------------------------------

 SCF Done:  E(RB2PLYPD3) =  -155.683173510     A.U. after   11 cycles
 E2(B2PLYPD3) =    -0.2275131726D+00 E(B2PLYPD3) =    -0.15591068668214D+03

 The electronic state is 1-A.
 Alpha  occ. eigenvalues --  -10.64190 -10.63867 -10.62460 -10.61524  -0.91906
 Alpha  occ. eigenvalues --   -0.84729  -0.69836  -0.62597  -0.54736  -0.52999
 Alpha  occ. eigenvalues --   -0.46745  -0.44602  -0.40615  -0.36899  -0.27887
 Alpha virt. eigenvalues --    0.01451   0.06955   0.07155   0.07597   0.09184
 Alpha virt. eigenvalues --    0.11165   0.12461   0.14273   0.15484   0.16544
 Alpha virt. eigenvalues --    0.18955   0.19733   0.21409   0.22111   0.23204

 Mulliken charges:
               1
     1  C   -0.170105
     2  C   -0.050392
     3  C   -0.034074
     4  C   -0.168157
     5  H    0.090836
     6  H    0.066510
     7  H    0.067219
     8  H    0.053111
     9  H    0.060359
    10  H    0.084693
 Sum of Mulliken charges =   0.00000

 Dipole moment (field-independent basis, Debye):
    X=              0.0310    Y=              0.0058    Z=              0.1116  Tot=              0.1160
 Quadrupole moment (field-independent basis, Debye-Ang):
   XX=            -22.9453   YY=            -23.5424   ZZ=            -29.3569
   XY=              0.0817   XZ=              0.0711   YZ=             -0.0958

 1\1\GINC-NODE38\SP\RB2PLYPD3-FC\def2QZVP\C4H6\BOITTIER\26-Aug-2020\0\\
 #p B2PLYPD3/Def2QZVP\\butadiene\\0,1\C,0,-3.85985,0.243735,-0.036492\C
 ,0,-2.752698,-0.535655,0.095081\C,0,-1.381007,0.036772,0.057137\C,0,-0
 .222141,-0.615961,-0.015746\H,0,-4.852397,-0.191706,-0.058088\H,0,-3.7
 40494,1.345151,-0.139271\H,0,-2.963283,-1.62876,0.411011\H,0,-1.28192,
 1.177086,0.202528\H,0,-0.10764,-1.693419,-0.236246\H,0,0.742199,-0.188
 942,0.051606\\Version=ES64L-G09RevD.01\State=1-A\HF=-155.6831735\MP2=-
 155.9106867\RMSD=9.762e-09\PG=C01 [X(C4H6)]\\@

 Normal termination of Gaussian 09 at Wed Aug 26 12:53:45 2020.
