 Gaussian 09, Revision D.01,
 Gaussian 09:  ES64L-G09RevD.01 24-Apr-2013

 --------------------
 #p B2PLYPD3/Def2QZVP
 --------------------

 ---------
 butadiene
 ---------
 Symbolic Z-matrix:
 Charge =  0 Multiplicity = 1

                         Standard orientation:
 ---------------------------------------------------------------------
 Center     Atomic      Atomic             Coordinates (Angstroms)
 Number     Number       Type             X           Y           Z
 ---------------------------------------------------------------------
      1          6           0       -1.838596   -0.116909   -0.000449
      2          6           0       -0.616482    0.389317   -0.012718
      3          6           0        0.610657   -0.399591   -0.009302
      4          6           0        1.841757    0.114865    0.001949
      5          1           0       -2.676014    0.562631    0.051950
      6          1           0       -2.046952   -1.163789    0.018955
      7          1           0       -0.504023    1.468707    0.024067
      8          1           0        0.524326   -1.470542   -0.024093
      9          1           0        1.989285    1.172463   -0.027765
     10          1           0        2.729361   -0.495559    0.080005
 ---------------------------------------------------------------------

 SCF Done:  E(RB2PLYPD3) =  -155.700999391     A.U. after   11 cycles
 E2(B2PLYPD3) =    -0.2251055664D+00 E(B2PLYPD3) =    -0.15592610495759D+03

 The electronic state is 1-A.
 Alpha  occ. eigenvalues --  -10.62403 -10.62341 -10.61267 -10.61131  -0.93012
 Alpha  occ. eigenvalues --   -0.85260  -0.70172  -0.64252  -0.54540  -0.54442
 Alpha  occ. eigenvalues --   -0.46753  -0.45745  -0.41112  -0.38116  -0.27850
 Alpha virt. eigenvalues --    0.01894   0.06992   0.07544   0.08040   0.09714
 Alpha virt. eigenvalues --    0.11693   0.12446   0.14792   0.15829   0.16247
 Alpha virt. eigenvalues --    0.18850   0.20458   0.21713   0.22730   0.23967

 Mulliken charges:
               1
     1  C   -0.174731
     2  C   -0.030670
     3  C   -0.032674
     4  C   -0.174855
     5  H    0.082273
     6  H    0.070984
     7  H    0.054425
     8  H    0.056290
     9  H    0.063677
    10  H    0.085281
 Sum of Mulliken charges =   0.00000

 Dipole moment (field-independent basis, Debye):
    X=             -0.0023    Y=             -0.0093    Z=              0.0964  Tot=              0.0969
 Quadrupole moment (field-independent basis, Debye-Ang):
   XX=            -23.4453   YY=            -23.0597   ZZ=            -29.1733
   XY=              0.1046   XZ=             -0.0343   YZ=             -0.0094

 1\1\GINC-NODE26\SP\RB2PLYPD3-FC\def2QZVP\C4H6\BOITTIER\26-Aug-2020\0\\
 #p B2PLYPD3/Def2QZVP\\butadiene\\0,1\C,0,-3.841094,0.223141,0.015719\C
 ,0,-2.727444,-0.490236,0.044959\C,0,-1.380376,0.069332,0.02154\C,0,-0.
 259403,-0.654397,0.027522\H,0,-4.785429,-0.299179,-0.018974\H,0,-3.861
 523,1.289375,-0.034006\H,0,-2.807313,-1.573135,0.03925\H,0,-1.276344,1
 .138691,0.005559\H,0,-0.300708,-1.72015,0.087735\H,0,0.721741,-0.21265
 1,-0.066108\\Version=ES64L-G09RevD.01\State=1-A\HF=-155.7009994\MP2=-1
 55.926105\RMSD=3.323e-09\PG=C01 [X(C4H6)]\\@

 Normal termination of Gaussian 09 at Wed Aug 26 18:45:38 2020.
