 Gaussian 09, Revision D.01,
 Gaussian 09:  ES64L-G09RevD.01 24-Apr-2013

 --------------------
 #p B2PLYPD3/Def2QZVP
 --------------------

 ---------
 butadiene
 ---------
 Symbolic Z-matrix:
 Charge =  0 Multiplicity = 1

                         Standard orientation:
 ---------------------------------------------------------------------
 Center     Atomic      Atomic             Coordinates (Angstroms)
 Number     Number       Type             X           Y           Z
 ---------------------------------------------------------------------
      1          6           0       -1.849210   -0.118388   -0.002044
      2          6           0       -0.614006    0.400152   -0.054858
      3          6           0        0.613702   -0.370335   -0.022866
      4          6           0        1.845090    0.106588    0.015520
      5          1           0       -2.693822    0.484288    0.147206
      6          1           0       -2.010362   -1.187094    0.062993
      7          1           0       -0.475634    1.493461    0.064848
      8          1           0        0.550067   -1.459799    0.014426
      9          1           0        2.026854    1.160852    0.031132
     10          1           0        2.629440   -0.599807    0.064883
 ---------------------------------------------------------------------

 SCF Done:  E(RB2PLYPD3) =  -155.696685379     A.U. after   11 cycles
 E2(B2PLYPD3) =    -0.2254519070D+00 E(B2PLYPD3) =    -0.15592213728600D+03

 The electronic state is 1-A.
 Alpha  occ. eigenvalues --  -10.62918 -10.62133 -10.61377 -10.60817  -0.93062
 Alpha  occ. eigenvalues --   -0.85415  -0.70591  -0.63639  -0.54988  -0.54291
 Alpha  occ. eigenvalues --   -0.46774  -0.45783  -0.41007  -0.38118  -0.27842
 Alpha virt. eigenvalues --    0.01632   0.07055   0.07418   0.08037   0.09792
 Alpha virt. eigenvalues --    0.11700   0.12433   0.14845   0.15718   0.16243
 Alpha virt. eigenvalues --    0.18880   0.20202   0.21675   0.22819   0.24079

 Mulliken charges:
               1
     1  C   -0.169707
     2  C   -0.036380
     3  C   -0.014334
     4  C   -0.181578
     5  H    0.086718
     6  H    0.064947
     7  H    0.050572
     8  H    0.043665
     9  H    0.067594
    10  H    0.088503
 Sum of Mulliken charges =   0.00000

 Dipole moment (field-independent basis, Debye):
    X=             -0.0152    Y=             -0.0233    Z=              0.3006  Tot=              0.3019
 Quadrupole moment (field-independent basis, Debye-Ang):
   XX=            -23.5518   YY=            -23.1091   ZZ=            -29.1419
   XY=              0.0212   XZ=             -0.3846   YZ=              0.0806

 1\1\GINC-NODE05\SP\RB2PLYPD3-FC\def2QZVP\C4H6\BOITTIER\26-Aug-2020\0\\
 #p B2PLYPD3/Def2QZVP\\butadiene\\0,1\C,0,-3.850121,0.230943,0.007813\C
 ,0,-2.726521,-0.496925,0.079456\C,0,-1.381583,0.042478,0.033322\C,0,-0
 .254362,-0.646139,0.012714\H,0,-4.788281,-0.216029,-0.129792\H,0,-3.81
 9093,1.309232,-0.085263\H,0,-2.784349,-1.600176,-0.011622\H,0,-1.2509,
 1.124611,-0.032108\H,0,-0.26255,-1.71597,0.024892\H,0,0.642878,-0.0915
 98,-0.051152\\Version=ES64L-G09RevD.01\State=1-A\HF=-155.6966854\MP2=-
 155.9221373\RMSD=5.535e-09\PG=C01 [X(C4H6)]\\@

 Normal termination of Gaussian 09 at Wed Aug 26 10:00:57 2020.
