 Gaussian 09, Revision D.01,
 Gaussian 09:  ES64L-G09RevD.01 24-Apr-2013

 --------------------
 #p B2PLYPD3/Def2QZVP
 --------------------

 ---------
 butadiene
 ---------
 Symbolic Z-matrix:
 Charge =  0 Multiplicity = 1

                         Standard orientation:
 ---------------------------------------------------------------------
 Center     Atomic      Atomic             Coordinates (Angstroms)
 Number     Number       Type             X           Y           Z
 ---------------------------------------------------------------------
      1          6           0       -1.831526    0.099465    0.008029
      2          6           0       -0.598119   -0.399196   -0.012619
      3          6           0        0.593799    0.421856   -0.030361
      4          6           0        1.829151   -0.110782    0.017281
      5          1           0       -2.666530   -0.547314    0.074637
      6          1           0       -2.056888    1.150846    0.045872
      7          1           0       -0.429802   -1.466714   -0.062572
      8          1           0        0.467458    1.518225   -0.046886
      9          1           0        1.975734   -1.200297    0.014626
     10          1           0        2.750196    0.477194    0.080344
 ---------------------------------------------------------------------

 SCF Done:  E(RB2PLYPD3) =  -155.699332001     A.U. after   11 cycles
 E2(B2PLYPD3) =    -0.2259686110D+00 E(B2PLYPD3) =    -0.15592530061246D+03

 The electronic state is 1-A.
 Alpha  occ. eigenvalues --  -10.62842 -10.62424 -10.61976 -10.61069  -0.93045
 Alpha  occ. eigenvalues --   -0.84707  -0.70226  -0.64051  -0.54766  -0.53730
 Alpha  occ. eigenvalues --   -0.46678  -0.45395  -0.41264  -0.38128  -0.27531
 Alpha virt. eigenvalues --    0.01695   0.07037   0.07321   0.08085   0.09461
 Alpha virt. eigenvalues --    0.11638   0.12502   0.14728   0.15854   0.16198
 Alpha virt. eigenvalues --    0.18737   0.20493   0.21859   0.22832   0.23653

 Mulliken charges:
               1
     1  C   -0.175868
     2  C   -0.028436
     3  C   -0.031205
     4  C   -0.173230
     5  H    0.082862
     6  H    0.067477
     7  H    0.058158
     8  H    0.056011
     9  H    0.060085
    10  H    0.084145
 Sum of Mulliken charges =   0.00000

 Dipole moment (field-independent basis, Debye):
    X=             -0.0023    Y=              0.0014    Z=              0.0699  Tot=              0.0699
 Quadrupole moment (field-independent basis, Debye-Ang):
   XX=            -23.4657   YY=            -23.0897   ZZ=            -29.2864
   XY=             -0.3042   XZ=             -0.0278   YZ=              0.0631

 1\1\GINC-NODE34\SP\RB2PLYPD3-FC\def2QZVP\C4H6\BOITTIER\26-Aug-2020\0\\
 #p B2PLYPD3/Def2QZVP\\butadiene\\0,1\C,0,-3.833206,0.220135,0.02922\C,
 0,-2.71318,-0.498122,0.023508\C,0,-1.390201,0.087913,-0.013873\C,0,-0.
 274312,-0.662309,0.049574\H,0,-4.773066,-0.259339,0.11144\H,0,-3.86039
 9,1.295673,0.039211\H,0,-2.745071,-1.579293,0.001746\H,0,-1.31195,1.18
 7949,-0.059256\H,0,-0.331467,-1.759847,0.075636\H,0,0.73968,-0.253129,
 0.09865\\Version=ES64L-G09RevD.01\State=1-A\HF=-155.699332\MP2=-155.92
 53006\RMSD=3.785e-09\PG=C01 [X(C4H6)]\\@

 Normal termination of Gaussian 09 at Wed Aug 26 21:58:20 2020.
