 Gaussian 09, Revision D.01,
 Gaussian 09:  ES64L-G09RevD.01 24-Apr-2013

 --------------------
 #p B2PLYPD3/Def2QZVP
 --------------------

 ---------
 butadiene
 ---------
 Symbolic Z-matrix:
 Charge =  0 Multiplicity = 1

                         Standard orientation:
 ---------------------------------------------------------------------
 Center     Atomic      Atomic             Coordinates (Angstroms)
 Number     Number       Type             X           Y           Z
 ---------------------------------------------------------------------
      1          6           0        1.855119   -0.166260    0.031999
      2          6           0        0.644000    0.435494   -0.106433
      3          6           0       -0.626166   -0.346360   -0.091770
      4          6           0       -1.873006    0.101979    0.071434
      5          1           0        2.686575    0.520705    0.279051
      6          1           0        1.881160   -1.278067    0.160385
      7          1           0        0.689200    1.503900   -0.054745
      8          1           0       -0.452344   -1.394050   -0.048430
      9          1           0       -2.076567    1.090925    0.170948
     10          1           0       -2.727707   -0.592531    0.061412
 ---------------------------------------------------------------------

 SCF Done:  E(RB2PLYPD3) =  -155.685510402     A.U. after   11 cycles
 E2(B2PLYPD3) =    -0.2266599897D+00 E(B2PLYPD3) =    -0.15591217039161D+03

 The electronic state is 1-A.
 Alpha  occ. eigenvalues --  -10.63044 -10.62751 -10.62541 -10.61050  -0.92368
 Alpha  occ. eigenvalues --   -0.85055  -0.69794  -0.64320  -0.54990  -0.53284
 Alpha  occ. eigenvalues --   -0.46386  -0.45592  -0.41380  -0.37466  -0.27770
 Alpha virt. eigenvalues --    0.01423   0.06851   0.07624   0.07863   0.09267
 Alpha virt. eigenvalues --    0.11748   0.12326   0.14568   0.15740   0.16198
 Alpha virt. eigenvalues --    0.18900   0.19847   0.21113   0.23024   0.23841

 Mulliken charges:
               1
     1  C   -0.165848
     2  C   -0.042160
     3  C   -0.033387
     4  C   -0.176545
     5  H    0.080839
     6  H    0.062849
     7  H    0.057199
     8  H    0.059624
     9  H    0.073867
    10  H    0.083562
 Sum of Mulliken charges =   0.00000

 Dipole moment (field-independent basis, Debye):
    X=             -0.0414    Y=              0.0855    Z=              0.4001  Tot=              0.4113
 Quadrupole moment (field-independent basis, Debye-Ang):
   XX=            -24.0027   YY=            -23.0097   ZZ=            -29.2754
   XY=              0.2663   XZ=              0.6116   YZ=              0.1466

 1\1\GINC-NODE35\SP\RB2PLYPD3-FC\def2QZVP\C4H6\BOITTIER\26-Aug-2020\0\\
 #p B2PLYPD3/Def2QZVP\\butadiene\\0,1\C,0,-3.853037,0.258667,0.067786\C
 ,0,-2.758852,-0.537768,-0.060791\C,0,-1.376848,0.023373,-0.065088\C,0,
 -0.220392,-0.621647,0.104652\H,0,-4.785229,-0.27622,0.330821\H,0,-3.69
 4204,1.361817,0.173175\H,0,-2.979766,-1.582728,0.013111\H,0,-1.374834,
 1.086038,-0.043076\H,0,-0.182569,-1.628442,0.224182\H,0,0.737293,-0.07
 8409,0.078389\\Version=ES64L-G09RevD.01\State=1-A\HF=-155.6855104\MP2=
 -155.9121704\RMSD=9.242e-09\PG=C01 [X(C4H6)]\\@

 Normal termination of Gaussian 09 at Wed Aug 26 11:08:23 2020.
