 Gaussian 09, Revision D.01,
 Gaussian 09:  ES64L-G09RevD.01 24-Apr-2013

 --------------------
 #p B2PLYPD3/Def2QZVP
 --------------------

 ---------
 butadiene
 ---------
 Symbolic Z-matrix:
 Charge =  0 Multiplicity = 1

                         Standard orientation:
 ---------------------------------------------------------------------
 Center     Atomic      Atomic             Coordinates (Angstroms)
 Number     Number       Type             X           Y           Z
 ---------------------------------------------------------------------
      1          6           0        1.844826   -0.127454   -0.001064
      2          6           0        0.606748    0.418810   -0.001913
      3          6           0       -0.608618   -0.385339    0.004370
      4          6           0       -1.849744    0.097734   -0.011671
      5          1           0        2.739615    0.505274    0.034654
      6          1           0        1.996979   -1.178968   -0.088798
      7          1           0        0.473582    1.481423    0.035005
      8          1           0       -0.462693   -1.447502    0.089634
      9          1           0       -2.001423    1.182494   -0.016226
     10          1           0       -2.705335   -0.565225    0.007401
 ---------------------------------------------------------------------

 SCF Done:  E(RB2PLYPD3) =  -155.699721591     A.U. after   11 cycles
 E2(B2PLYPD3) =    -0.2259745676D+00 E(B2PLYPD3) =    -0.15592569615832D+03

 The electronic state is 1-A.
 Alpha  occ. eigenvalues --  -10.62750 -10.62287 -10.61855 -10.61575  -0.92851
 Alpha  occ. eigenvalues --   -0.84731  -0.70132  -0.64318  -0.54454  -0.53838
 Alpha  occ. eigenvalues --   -0.46780  -0.45732  -0.41286  -0.37902  -0.27579
 Alpha virt. eigenvalues --    0.01570   0.06996   0.07472   0.08065   0.09490
 Alpha virt. eigenvalues --    0.11704   0.12391   0.14685   0.15782   0.16099
 Alpha virt. eigenvalues --    0.18769   0.20444   0.21463   0.22957   0.23878

 Mulliken charges:
               1
     1  C   -0.177702
     2  C   -0.038814
     3  C   -0.025089
     4  C   -0.180008
     5  H    0.083339
     6  H    0.071855
     7  H    0.058696
     8  H    0.054589
     9  H    0.063917
    10  H    0.089218
 Sum of Mulliken charges =   0.00000

 Dipole moment (field-independent basis, Debye):
    X=              0.0275    Y=             -0.0183    Z=              0.0518  Tot=              0.0614
 Quadrupole moment (field-independent basis, Debye-Ang):
   XX=            -23.5567   YY=            -23.0711   ZZ=            -29.3166
   XY=             -0.1095   XZ=             -0.0973   YZ=              0.0525

 1\1\GINC-NODE07\SP\RB2PLYPD3-FC\def2QZVP\C4H6\BOITTIER\26-Aug-2020\0\\
 #p B2PLYPD3/Def2QZVP\\butadiene\\0,1\C,0,-3.844941,0.240904,0.016431\C
 ,0,-2.7247,-0.517989,0.036014\C,0,-1.384968,0.055315,0.020175\C,0,-0.2
 50459,-0.642463,0.022592\H,0,-4.838454,-0.219923,0.069697\H,0,-3.80661
 1,1.299383,-0.104744\H,0,-2.783852,-1.585579,0.106698\H,0,-1.338075,1.
 128587,0.071593\H,0,-0.295491,-1.736449,0.052569\H,0,0.71007,-0.143168
 ,0.023036\\Version=ES64L-G09RevD.01\State=1-A\HF=-155.6997216\MP2=-155
 .9256962\RMSD=5.692e-09\PG=C01 [X(C4H6)]\\@

 Normal termination of Gaussian 09 at Wed Aug 26 19:15:15 2020.
