 Gaussian 09, Revision D.01,
 Gaussian 09:  ES64L-G09RevD.01 24-Apr-2013

 --------------------
 #p B2PLYPD3/Def2QZVP
 --------------------

 ---------
 butadiene
 ---------
 Symbolic Z-matrix:
 Charge =  0 Multiplicity = 1

                         Standard orientation:
 ---------------------------------------------------------------------
 Center     Atomic      Atomic             Coordinates (Angstroms)
 Number     Number       Type             X           Y           Z
 ---------------------------------------------------------------------
      1          6           0       -1.798865   -0.087791    0.067590
      2          6           0       -0.588062    0.382717   -0.077702
      3          6           0        0.565177   -0.418344   -0.049364
      4          6           0        1.820314    0.087270    0.005555
      5          1           0       -2.608170    0.570829    0.030144
      6          1           0       -2.053098   -1.100504    0.098485
      7          1           0       -0.455839    1.465143   -0.023144
      8          1           0        0.315558   -1.506704   -0.123046
      9          1           0        2.011725    1.226003    0.105934
     10          1           0        2.798436   -0.437883    0.235153
 ---------------------------------------------------------------------

 SCF Done:  E(RB2PLYPD3) =  -155.682503324     A.U. after   12 cycles
 E2(B2PLYPD3) =    -0.2267300505D+00 E(B2PLYPD3) =    -0.15590923337404D+03

 The electronic state is 1-A.
 Alpha  occ. eigenvalues --  -10.63266 -10.63101 -10.61677 -10.60263  -0.94084
 Alpha  occ. eigenvalues --   -0.84680  -0.70646  -0.63969  -0.55334  -0.53368
 Alpha  occ. eigenvalues --   -0.46947  -0.44490  -0.40541  -0.38909  -0.27502
 Alpha virt. eigenvalues --    0.01301   0.06927   0.07213   0.08002   0.09667
 Alpha virt. eigenvalues --    0.11573   0.12546   0.14775   0.15431   0.16735
 Alpha virt. eigenvalues --    0.18685   0.19232   0.22339   0.23111   0.23394

 Mulliken charges:
               1
     1  C   -0.171737
     2  C   -0.006489
     3  C   -0.033760
     4  C   -0.159951
     5  H    0.078734
     6  H    0.061621
     7  H    0.053279
     8  H    0.052998
     9  H    0.047186
    10  H    0.078120
 Sum of Mulliken charges =   0.00000

 Dipole moment (field-independent basis, Debye):
    X=             -0.1358    Y=             -0.0008    Z=              0.2015  Tot=              0.2430
 Quadrupole moment (field-independent basis, Debye-Ang):
   XX=            -23.3827   YY=            -23.4583   ZZ=            -29.1247
   XY=              0.5506   XZ=              0.6251   YZ=              0.0603

 1\1\GINC-NODE11\SP\RB2PLYPD3-FC\def2QZVP\C4H6\BOITTIER\26-Aug-2020\0\\
 #p B2PLYPD3/Def2QZVP\\butadiene\\0,1\C,0,-3.800598,0.216885,-0.042575\
 C,0,-2.703564,-0.478305,0.104933\C,0,-1.416684,0.082383,0.059889\C,0,-
 0.284374,-0.658675,0.007563\H,0,-4.722343,-0.270947,0.008047\H,0,-3.85
 3058,1.259184,-0.087717\H,0,-2.784935,-1.566414,0.066174\H,0,-1.449175
 ,1.19944,0.118153\H,0,-0.318965,-1.814175,-0.076401\H,0,0.775656,-0.33
 7306,-0.233853\\Version=ES64L-G09RevD.01\State=1-A\HF=-155.6825033\MP2
 =-155.9092334\RMSD=5.329e-09\PG=C01 [X(C4H6)]\\@

 Normal termination of Gaussian 09 at Wed Aug 26 14:15:12 2020.
