 Gaussian 09, Revision D.01,
 Gaussian 09:  ES64L-G09RevD.01 24-Apr-2013

 --------------------
 #p B2PLYPD3/Def2QZVP
 --------------------

 ---------
 butadiene
 ---------
 Symbolic Z-matrix:
 Charge =  0 Multiplicity = 1

                         Standard orientation:
 ---------------------------------------------------------------------
 Center     Atomic      Atomic             Coordinates (Angstroms)
 Number     Number       Type             X           Y           Z
 ---------------------------------------------------------------------
      1          6           0       -1.846981    0.101598    0.005666
      2          6           0       -0.582964   -0.378039   -0.000109
      3          6           0        0.607274    0.352930   -0.003085
      4          6           0        1.826192   -0.119198   -0.012532
      5          1           0       -2.798690   -0.483434   -0.051661
      6          1           0       -2.012609    1.193014   -0.159497
      7          1           0       -0.482555   -1.396608    0.252000
      8          1           0        0.582937    1.438575    0.154771
      9          1           0        2.035239   -1.088344   -0.219271
     10          1           0        2.654552    0.593056    0.084018
 ---------------------------------------------------------------------

 SCF Done:  E(RB2PLYPD3) =  -155.683493376     A.U. after   12 cycles
 E2(B2PLYPD3) =    -0.2259935616D+00 E(B2PLYPD3) =    -0.15590948693750D+03

 The electronic state is 1-A.
 Alpha  occ. eigenvalues --  -10.62649 -10.62137 -10.61660 -10.60499  -0.94083
 Alpha  occ. eigenvalues --   -0.85231  -0.70916  -0.64336  -0.55077  -0.54533
 Alpha  occ. eigenvalues --   -0.46816  -0.44956  -0.41204  -0.38191  -0.27679
 Alpha virt. eigenvalues --    0.01093   0.07031   0.07694   0.07756   0.09785
 Alpha virt. eigenvalues --    0.11684   0.12459   0.14829   0.15365   0.16503
 Alpha virt. eigenvalues --    0.18713   0.19138   0.21908   0.22892   0.23736

 Mulliken charges:
               1
     1  C   -0.169108
     2  C   -0.049375
     3  C   -0.009452
     4  C   -0.178026
     5  H    0.084240
     6  H    0.055003
     7  H    0.067118
     8  H    0.047891
     9  H    0.074162
    10  H    0.077546
 Sum of Mulliken charges =   0.00000

 Dipole moment (field-independent basis, Debye):
    X=              0.0366    Y=             -0.0340    Z=              0.0187  Tot=              0.0533
 Quadrupole moment (field-independent basis, Debye-Ang):
   XX=            -23.2018   YY=            -23.5923   ZZ=            -28.9118
   XY=              0.0742   XZ=              0.1890   YZ=              0.0410

 1\1\GINC-NODE28\SP\RB2PLYPD3-FC\def2QZVP\C4H6\BOITTIER\26-Aug-2020\0\\
 #p B2PLYPD3/Def2QZVP\\butadiene\\0,1\C,0,-3.851264,0.217484,0.022614\C
 ,0,-2.69254,-0.478923,0.036706\C,0,-1.391411,0.028606,0.015047\C,0,-0.
 275742,-0.652523,0.025064\H,0,-4.891856,-0.190774,-0.019726\H,0,-3.820
 746,1.315158,-0.177589\H,0,-2.774133,-1.490601,0.321265\H,0,-1.22224,1
 .105778,0.138407\H,0,-0.242544,-1.64946,-0.150151\H,0,0.666134,-0.0959
 81,0.102126\\Version=ES64L-G09RevD.01\State=1-A\HF=-155.6834934\MP2=-1
 55.9094869\RMSD=3.427e-09\PG=C01 [X(C4H6)]\\@

 Normal termination of Gaussian 09 at Wed Aug 26 13:34:44 2020.
