 Gaussian 09, Revision D.01,
 Gaussian 09:  ES64L-G09RevD.01 24-Apr-2013

 --------------------
 #p B2PLYPD3/Def2QZVP
 --------------------

 ---------
 butadiene
 ---------
 Symbolic Z-matrix:
 Charge =  0 Multiplicity = 1

                         Standard orientation:
 ---------------------------------------------------------------------
 Center     Atomic      Atomic             Coordinates (Angstroms)
 Number     Number       Type             X           Y           Z
 ---------------------------------------------------------------------
      1          6           0        1.852229    0.094458   -0.034192
      2          6           0        0.609921   -0.366333    0.013082
      3          6           0       -0.619128    0.414024    0.021146
      4          6           0       -1.853245   -0.125644   -0.035754
      5          1           0        2.671826   -0.579912    0.075954
      6          1           0        2.069172    1.174282   -0.101505
      7          1           0        0.467683   -1.420101    0.093159
      8          1           0       -0.525767    1.465012    0.175702
      9          1           0       -1.884359   -1.213696   -0.012178
     10          1           0       -2.737211    0.475384   -0.016828
 ---------------------------------------------------------------------

 SCF Done:  E(RB2PLYPD3) =  -155.697323086     A.U. after   11 cycles
 E2(B2PLYPD3) =    -0.2257019006D+00 E(B2PLYPD3) =    -0.15592302498609D+03

 The electronic state is 1-A.
 Alpha  occ. eigenvalues --  -10.62442 -10.62160 -10.61732 -10.61444  -0.92990
 Alpha  occ. eigenvalues --   -0.85093  -0.70252  -0.64200  -0.54818  -0.53964
 Alpha  occ. eigenvalues --   -0.46992  -0.45691  -0.41349  -0.37704  -0.27767
 Alpha virt. eigenvalues --    0.01575   0.07045   0.07531   0.08060   0.09688
 Alpha virt. eigenvalues --    0.11674   0.12406   0.14651   0.15619   0.16273
 Alpha virt. eigenvalues --    0.18808   0.20096   0.21612   0.22498   0.24268

 Mulliken charges:
               1
     1  C   -0.177424
     2  C   -0.026861
     3  C   -0.036275
     4  C   -0.179214
     5  H    0.087814
     6  H    0.065664
     7  H    0.051123
     8  H    0.057826
     9  H    0.063696
    10  H    0.093652
 Sum of Mulliken charges =   0.00000

 Dipole moment (field-independent basis, Debye):
    X=             -0.0218    Y=              0.0205    Z=              0.2200  Tot=              0.2220
 Quadrupole moment (field-independent basis, Debye-Ang):
   XX=            -23.4828   YY=            -23.2042   ZZ=            -29.2032
   XY=             -0.1383   XZ=              0.0416   YZ=             -0.0808

 1\1\GINC-NODE25\SP\RB2PLYPD3-FC\def2QZVP\C4H6\BOITTIER\26-Aug-2020\0\\
 #p B2PLYPD3/Def2QZVP\\butadiene\\0,1\C,0,-3.860102,0.204083,0.048341\C
 ,0,-2.718658,-0.4697,0.016486\C,0,-1.371323,0.081165,-0.012159\C,0,-0.
 251484,-0.665779,0.062388\H,0,-4.786128,-0.3181,-0.04357\H,0,-3.883047
 ,1.306725,0.083981\H,0,-2.764699,-1.5339,-0.032791\H,0,-1.278479,1.127
 253,-0.197255\H,0,-0.412755,-1.742491,0.070399\H,0,0.724522,-0.230827,
 0.027513\\Version=ES64L-G09RevD.01\State=1-A\HF=-155.6973231\MP2=-155.
 923025\RMSD=6.970e-09\PG=C01 [X(C4H6)]\\@

 Normal termination of Gaussian 09 at Wed Aug 26 10:55:13 2020.
