 Gaussian 09, Revision D.01,
 Gaussian 09:  ES64L-G09RevD.01 24-Apr-2013

 --------------------
 #p B2PLYPD3/Def2QZVP
 --------------------

 ---------
 butadiene
 ---------
 Symbolic Z-matrix:
 Charge =  0 Multiplicity = 1

                         Standard orientation:
 ---------------------------------------------------------------------
 Center     Atomic      Atomic             Coordinates (Angstroms)
 Number     Number       Type             X           Y           Z
 ---------------------------------------------------------------------
      1          6           0        1.864288    0.081484   -0.079293
      2          6           0        0.595374   -0.360300    0.083249
      3          6           0       -0.641036    0.464795    0.021816
      4          6           0       -1.852000   -0.145742   -0.025515
      5          1           0        2.759648   -0.575874    0.026598
      6          1           0        2.178920    1.035076   -0.221939
      7          1           0        0.484555   -1.435509    0.279612
      8          1           0       -0.475595    1.579028    0.289692
      9          1           0       -1.947205   -1.218693   -0.292000
     10          1           0       -2.800081    0.374554   -0.083513
 ---------------------------------------------------------------------

 SCF Done:  E(RB2PLYPD3) =  -155.681491521     A.U. after   11 cycles
 E2(B2PLYPD3) =    -0.2275523381D+00 E(B2PLYPD3) =    -0.15590904385937D+03

 The electronic state is 1-A.
 Alpha  occ. eigenvalues --  -10.64399 -10.63337 -10.62528 -10.61333  -0.91970
 Alpha  occ. eigenvalues --   -0.84374  -0.70364  -0.63763  -0.54421  -0.52984
 Alpha  occ. eigenvalues --   -0.47006  -0.45071  -0.40534  -0.36932  -0.27796
 Alpha virt. eigenvalues --    0.01220   0.07050   0.07247   0.07574   0.08981
 Alpha virt. eigenvalues --    0.11290   0.12589   0.14622   0.15325   0.16534
 Alpha virt. eigenvalues --    0.18909   0.19603   0.21787   0.22127   0.23137

 Mulliken charges:
               1
     1  C   -0.171276
     2  C   -0.035724
     3  C   -0.050793
     4  C   -0.164526
     5  H    0.069818
     6  H    0.067656
     7  H    0.066554
     8  H    0.069696
     9  H    0.066344
    10  H    0.082250
 Sum of Mulliken charges =   0.00000

 Dipole moment (field-independent basis, Debye):
    X=             -0.0451    Y=              0.0473    Z=              0.0420  Tot=              0.0777
 Quadrupole moment (field-independent basis, Debye-Ang):
   XX=            -23.0835   YY=            -23.5208   ZZ=            -29.2738
   XY=              0.5761   XZ=              0.3557   YZ=              0.1244

 1\1\GINC-NODE10\SP\RB2PLYPD3-FC\def2QZVP\C4H6\BOITTIER\26-Aug-2020\0\\
 #p B2PLYPD3/Def2QZVP\\butadiene\\0,1\C,0,-3.876988,0.196831,0.089036\C
 ,0,-2.707405,-0.471435,-0.04223\C,0,-1.343984,0.12349,-0.021906\C,0,-0
 .260205,-0.688413,0.065662\H,0,-4.875271,-0.296279,0.01641\H,0,-4.0167
 91,1.197627,0.175879\H,0,-2.790037,-1.558627,-0.176759\H,0,-1.310719,1
 .232405,-0.353333\H,0,-0.355281,-1.744393,0.39303\H,0,0.765402,-0.3420
 31,0.098496\\Version=ES64L-G09RevD.01\State=1-A\HF=-155.6814915\MP2=-1
 55.9090439\RMSD=7.193e-09\PG=C01 [X(C4H6)]\\@

 Normal termination of Gaussian 09 at Wed Aug 26 16:11:21 2020.
