 Gaussian 09, Revision D.01,
 Gaussian 09:  ES64L-G09RevD.01 24-Apr-2013

 --------------------
 #p B2PLYPD3/Def2QZVP
 --------------------

 ---------
 butadiene
 ---------
 Symbolic Z-matrix:
 Charge =  0 Multiplicity = 1

                         Standard orientation:
 ---------------------------------------------------------------------
 Center     Atomic      Atomic             Coordinates (Angstroms)
 Number     Number       Type             X           Y           Z
 ---------------------------------------------------------------------
      1          6           0        1.812841   -0.156830    0.052272
      2          6           0        0.617009    0.441102   -0.039902
      3          6           0       -0.586046   -0.373639   -0.052144
      4          6           0       -1.858924    0.086370   -0.003562
      5          1           0        2.725746    0.497187   -0.089159
      6          1           0        1.808499   -1.208132    0.221915
      7          1           0        0.561977    1.527089   -0.061656
      8          1           0       -0.386897   -1.476980   -0.185082
      9          1           0       -1.881167    1.145301    0.215551
     10          1           0       -2.737434   -0.466478    0.158437
 ---------------------------------------------------------------------

 SCF Done:  E(RB2PLYPD3) =  -155.685783068     A.U. after   11 cycles
 E2(B2PLYPD3) =    -0.2273419830D+00 E(B2PLYPD3) =    -0.15591312505065D+03

 The electronic state is 1-A.
 Alpha  occ. eigenvalues --  -10.63353 -10.62683 -10.62065 -10.61266  -0.93089
 Alpha  occ. eigenvalues --   -0.84747  -0.69748  -0.64010  -0.54359  -0.53902
 Alpha  occ. eigenvalues --   -0.46612  -0.45018  -0.41318  -0.37886  -0.27459
 Alpha virt. eigenvalues --    0.01251   0.07053   0.07301   0.07879   0.09113
 Alpha virt. eigenvalues --    0.11757   0.12595   0.14541   0.15539   0.16299
 Alpha virt. eigenvalues --    0.18681   0.18994   0.21596   0.22906   0.23556

 Mulliken charges:
               1
     1  C   -0.177859
     2  C   -0.032382
     3  C   -0.023253
     4  C   -0.173885
     5  H    0.087719
     6  H    0.074503
     7  H    0.058084
     8  H    0.045469
     9  H    0.052554
    10  H    0.089051
 Sum of Mulliken charges =   0.00000

 Dipole moment (field-independent basis, Debye):
    X=              0.1351    Y=              0.0155    Z=              0.2012  Tot=              0.2428
 Quadrupole moment (field-independent basis, Debye-Ang):
   XX=            -23.9873   YY=            -23.2635   ZZ=            -29.2425
   XY=              0.3941   XZ=             -0.7622   YZ=             -0.0590

 1\1\GINC-NODE26\SP\RB2PLYPD3-FC\def2QZVP\C4H6\BOITTIER\26-Aug-2020\0\\
 #p B2PLYPD3/Def2QZVP\\butadiene\\0,1\C,0,-3.811703,0.254728,0.06188\C,
 0,-2.737393,-0.54372,-0.004235\C,0,-1.411227,0.049562,-0.028609\C,0,-0
 .237598,-0.622503,0.042879\H,0,-4.823717,-0.234917,-0.069317\H,0,-3.62
 5668,1.293715,0.203049\H,0,-2.871475,-1.622991,0.003853\H,0,-1.415538,
 1.166548,-0.192983\H,0,-0.400103,-1.662695,0.290735\H,0,0.722925,-0.22
 592,0.197089\\Version=ES64L-G09RevD.01\State=1-A\HF=-155.6857831\MP2=-
 155.9131251\RMSD=7.073e-09\PG=C01 [X(C4H6)]\\@

 Normal termination of Gaussian 09 at Wed Aug 26 13:44:24 2020.
