 Gaussian 09, Revision D.01,
 Gaussian 09:  ES64L-G09RevD.01 24-Apr-2013

 --------------------
 #p B2PLYPD3/Def2QZVP
 --------------------

 ---------
 butadiene
 ---------
 Symbolic Z-matrix:
 Charge =  0 Multiplicity = 1

                         Standard orientation:
 ---------------------------------------------------------------------
 Center     Atomic      Atomic             Coordinates (Angstroms)
 Number     Number       Type             X           Y           Z
 ---------------------------------------------------------------------
      1          6           0        1.848279    0.112857    0.021036
      2          6           0        0.615814   -0.411989   -0.014469
      3          6           0       -0.606673    0.381471   -0.029343
      4          6           0       -1.842186   -0.098657    0.010771
      5          1           0        2.730016   -0.481388   -0.002394
      6          1           0        1.957954    1.208149    0.017304
      7          1           0        0.447347   -1.478956   -0.020574
      8          1           0       -0.483755    1.475954   -0.001275
      9          1           0       -2.028822   -1.175444    0.040856
     10          1           0       -2.714140    0.549587    0.038115
 ---------------------------------------------------------------------

 SCF Done:  E(RB2PLYPD3) =  -155.700169926     A.U. after   11 cycles
 E2(B2PLYPD3) =    -0.2257696240D+00 E(B2PLYPD3) =    -0.15592593955009D+03

 The electronic state is 1-A.
 Alpha  occ. eigenvalues --  -10.62688 -10.62516 -10.61733 -10.61560  -0.92930
 Alpha  occ. eigenvalues --   -0.84981  -0.70175  -0.63801  -0.54869  -0.53597
 Alpha  occ. eigenvalues --   -0.47054  -0.45358  -0.40829  -0.38134  -0.27823
 Alpha virt. eigenvalues --    0.01723   0.07002   0.07360   0.08079   0.09672
 Alpha virt. eigenvalues --    0.11654   0.12446   0.14600   0.15859   0.16097
 Alpha virt. eigenvalues --    0.18825   0.20523   0.21513   0.22681   0.23853

 Mulliken charges:
               1
     1  C   -0.172203
     2  C   -0.037328
     3  C   -0.018621
     4  C   -0.176328
     5  H    0.091441
     6  H    0.063853
     7  H    0.054092
     8  H    0.047029
     9  H    0.060938
    10  H    0.087128
 Sum of Mulliken charges =   0.00000

 Dipole moment (field-independent basis, Debye):
    X=              0.0069    Y=             -0.0198    Z=              0.0349  Tot=              0.0407
 Quadrupole moment (field-independent basis, Debye-Ang):
   XX=            -23.3409   YY=            -23.2195   ZZ=            -29.2930
   XY=              0.0670   XZ=             -0.1988   YZ=              0.0318

 1\1\GINC-NODE25\SP\RB2PLYPD3-FC\def2QZVP\C4H6\BOITTIER\26-Aug-2020\0\\
 #p B2PLYPD3/Def2QZVP\\butadiene\\0,1\C,0,-3.848115,0.228382,-0.001761\
 C,0,-2.729655,-0.507793,0.051041\C,0,-1.384569,0.053376,0.040638\C,0,-
 0.255504,-0.641785,0.016417\H,0,-4.822029,-0.196865,0.040592\H,0,-3.75
 9449,1.325123,-0.033442\H,0,-2.755347,-1.586926,0.091657\H,0,-1.309252
 ,1.150687,-0.022805\H,0,-0.265283,-1.734987,0.021184\H,0,0.718454,-0.1
 61813,-0.031595\\Version=ES64L-G09RevD.01\State=1-A\HF=-155.7001699\MP
 2=-155.9259396\RMSD=5.308e-09\PG=C01 [X(C4H6)]\\@

 Normal termination of Gaussian 09 at Wed Aug 26 21:27:38 2020.
