 Gaussian 09, Revision D.01,
 Gaussian 09:  ES64L-G09RevD.01 24-Apr-2013

 --------------------
 #p B2PLYPD3/Def2QZVP
 --------------------

 ---------
 butadiene
 ---------
 Symbolic Z-matrix:
 Charge =  0 Multiplicity = 1

                         Standard orientation:
 ---------------------------------------------------------------------
 Center     Atomic      Atomic             Coordinates (Angstroms)
 Number     Number       Type             X           Y           Z
 ---------------------------------------------------------------------
      1          6           0        1.869876    0.143292   -0.044770
      2          6           0        0.616651   -0.444388    0.017866
      3          6           0       -0.619676    0.359503    0.031685
      4          6           0       -1.877270   -0.099775   -0.054817
      5          1           0        2.790003   -0.426779    0.137148
      6          1           0        2.043661    1.152895   -0.196067
      7          1           0        0.503018   -1.491908    0.151883
      8          1           0       -0.544082    1.503968    0.229685
      9          1           0       -2.070268   -1.103435   -0.095786
     10          1           0       -2.659814    0.613459    0.073362
 ---------------------------------------------------------------------

 SCF Done:  E(RB2PLYPD3) =  -155.684363577     A.U. after   12 cycles
 E2(B2PLYPD3) =    -0.2270322533D+00 E(B2PLYPD3) =    -0.15591139582992D+03

 The electronic state is 1-A.
 Alpha  occ. eigenvalues --  -10.63638 -10.63447 -10.62208 -10.60728  -0.92090
 Alpha  occ. eigenvalues --   -0.84622  -0.70854  -0.63913  -0.54791  -0.53749
 Alpha  occ. eigenvalues --   -0.47391  -0.45423  -0.41268  -0.36952  -0.27421
 Alpha virt. eigenvalues --    0.00949   0.06990   0.07486   0.07815   0.09307
 Alpha virt. eigenvalues --    0.11566   0.12439   0.14783   0.15821   0.16157
 Alpha virt. eigenvalues --    0.18962   0.20076   0.21602   0.22382   0.23856

 Mulliken charges:
               1
     1  C   -0.171828
     2  C   -0.057889
     3  C   -0.019796
     4  C   -0.181898
     5  H    0.078771
     6  H    0.078724
     7  H    0.070712
     8  H    0.045532
     9  H    0.069989
    10  H    0.087683
 Sum of Mulliken charges =   0.00000

 Dipole moment (field-independent basis, Debye):
    X=              0.0589    Y=             -0.0285    Z=              0.2765  Tot=              0.2842
 Quadrupole moment (field-independent basis, Debye-Ang):
   XX=            -23.3902   YY=            -23.1473   ZZ=            -29.3298
   XY=              0.3582   XZ=             -0.0486   YZ=             -0.0913

 1\1\GINC-NODE03\SP\RB2PLYPD3-FC\def2QZVP\C4H6\BOITTIER\26-Aug-2020\0\\
 #p B2PLYPD3/Def2QZVP\\butadiene\\0,1\C,0,-3.868306,0.25744,0.056531\C,
 0,-2.737095,-0.541375,0.010481\C,0,-1.379496,0.033752,-0.022544\C,0,-0
 .221077,-0.635634,0.077201\H,0,-4.874404,-0.14772,-0.111755\H,0,-3.862
 717,1.285403,0.181633\H,0,-2.808472,-1.595721,-0.096443\H,0,-1.254852,
 1.168414,-0.249974\H,0,-0.206069,-1.656198,0.14417\H,0,0.673502,-0.073
 45,-0.068347\\Version=ES64L-G09RevD.01\State=1-A\HF=-155.6843636\MP2=-
 155.9113958\RMSD=2.913e-09\PG=C01 [X(C4H6)]\\@

 Normal termination of Gaussian 09 at Wed Aug 26 12:41:00 2020.
