 Gaussian 09, Revision D.01,
 Gaussian 09:  ES64L-G09RevD.01 24-Apr-2013

 --------------------
 #p B2PLYPD3/Def2QZVP
 --------------------

 ---------
 butadiene
 ---------
 Symbolic Z-matrix:
 Charge =  0 Multiplicity = 1

                         Standard orientation:
 ---------------------------------------------------------------------
 Center     Atomic      Atomic             Coordinates (Angstroms)
 Number     Number       Type             X           Y           Z
 ---------------------------------------------------------------------
      1          6           0       -1.836956    0.112358   -0.041440
      2          6           0       -0.612174   -0.395461    0.021602
      3          6           0        0.605215    0.407051    0.034954
      4          6           0        1.833805   -0.114120   -0.018085
      5          1           0       -2.699936   -0.504576    0.109407
      6          1           0       -2.006897    1.136641   -0.070298
      7          1           0       -0.501174   -1.464931    0.003415
      8          1           0        0.512613    1.511873    0.052512
      9          1           0        1.934382   -1.189340   -0.046941
     10          1           0        2.821675    0.451364   -0.030279
 ---------------------------------------------------------------------

 SCF Done:  E(RB2PLYPD3) =  -155.695093623     A.U. after   11 cycles
 E2(B2PLYPD3) =    -0.2257561818D+00 E(B2PLYPD3) =    -0.15592084980490D+03

 The electronic state is 1-A.
 Alpha  occ. eigenvalues --  -10.62908 -10.62466 -10.62117 -10.60752  -0.93040
 Alpha  occ. eigenvalues --   -0.85063  -0.69959  -0.64259  -0.54498  -0.54087
 Alpha  occ. eigenvalues --   -0.46716  -0.45346  -0.41070  -0.38080  -0.27792
 Alpha virt. eigenvalues --    0.01735   0.06968   0.07491   0.07940   0.09553
 Alpha virt. eigenvalues --    0.11624   0.12657   0.14523   0.15810   0.16327
 Alpha virt. eigenvalues --    0.18842   0.20042   0.22023   0.22745   0.23706

 Mulliken charges:
               1
     1  C   -0.170502
     2  C   -0.031304
     3  C   -0.033784
     4  C   -0.166641
     5  H    0.081656
     6  H    0.065995
     7  H    0.059149
     8  H    0.053544
     9  H    0.059107
    10  H    0.082779
 Sum of Mulliken charges =   0.00000

 Dipole moment (field-independent basis, Debye):
    X=              0.0089    Y=             -0.0059    Z=              0.0559  Tot=              0.0569
 Quadrupole moment (field-independent basis, Debye-Ang):
   XX=            -23.2797   YY=            -23.2562   ZZ=            -29.2308
   XY=             -0.1102   XZ=             -0.3644   YZ=             -0.0600

 1\1\GINC-NODE30\SP\RB2PLYPD3-FC\def2QZVP\C4H6\BOITTIER\26-Aug-2020\0\\
 #p B2PLYPD3/Def2QZVP\\butadiene\\0,1\C,0,-3.8401,0.215903,-0.017377\C,
 0,-2.723081,-0.49706,0.059415\C,0,-1.383686,0.079243,0.047706\C,0,-0.2
 65985,-0.650894,0.008861\H,0,-4.797001,-0.235261,0.152589\H,0,-3.82781
 8,1.252837,-0.076407\H,0,-2.801611,-1.569474,0.072822\H,0,-1.280844,1.
 183195,0.032604\H,0,-0.355851,-1.727445,0.011784\H,0,0.8057,-0.26827,-
 0.021118\\Version=ES64L-G09RevD.01\State=1-A\HF=-155.6950936\MP2=-155.
 9208498\RMSD=6.267e-09\PG=C01 [X(C4H6)]\\@

 Normal termination of Gaussian 09 at Wed Aug 26 09:11:47 2020.
