 Gaussian 09, Revision D.01,
 Gaussian 09:  ES64L-G09RevD.01 24-Apr-2013

 --------------------
 #p B2PLYPD3/Def2QZVP
 --------------------

 ---------
 butadiene
 ---------
 Symbolic Z-matrix:
 Charge =  0 Multiplicity = 1

                         Standard orientation:
 ---------------------------------------------------------------------
 Center     Atomic      Atomic             Coordinates (Angstroms)
 Number     Number       Type             X           Y           Z
 ---------------------------------------------------------------------
      1          6           0        1.835785    0.094852   -0.020816
      2          6           0        0.591008   -0.378006    0.028326
      3          6           0       -0.591045    0.445924    0.101359
      4          6           0       -1.844890   -0.122949   -0.062159
      5          1           0        2.657298   -0.672298   -0.072214
      6          1           0        1.991389    1.131447   -0.084571
      7          1           0        0.414720   -1.358132    0.017555
      8          1           0       -0.353033    1.480451   -0.099855
      9          1           0       -1.858899   -1.236000    0.003048
     10          1           0       -2.796621    0.415605   -0.044219
 ---------------------------------------------------------------------

 SCF Done:  E(RB2PLYPD3) =  -155.679643573     A.U. after   12 cycles
 E2(B2PLYPD3) =    -0.2274930131D+00 E(B2PLYPD3) =    -0.15590713658570D+03

 The electronic state is 1-A.
 Alpha  occ. eigenvalues --  -10.63163 -10.63068 -10.61473 -10.61120  -0.93342
 Alpha  occ. eigenvalues --   -0.84147  -0.70202  -0.65521  -0.53967  -0.53599
 Alpha  occ. eigenvalues --   -0.46800  -0.45613  -0.41698  -0.37822  -0.27206
 Alpha virt. eigenvalues --    0.00914   0.06990   0.07450   0.08192   0.08956
 Alpha virt. eigenvalues --    0.11781   0.12493   0.14571   0.15253   0.16225
 Alpha virt. eigenvalues --    0.18236   0.19581   0.22110   0.22935   0.24870

 Mulliken charges:
               1
     1  C   -0.188984
     2  C   -0.013318
     3  C   -0.042215
     4  C   -0.176129
     5  H    0.082026
     6  H    0.071410
     7  H    0.059167
     8  H    0.059708
     9  H    0.059179
    10  H    0.089156
 Sum of Mulliken charges =   0.00000

 Dipole moment (field-independent basis, Debye):
    X=             -0.0742    Y=             -0.0495    Z=             -0.1698  Tot=              0.1919
 Quadrupole moment (field-independent basis, Debye-Ang):
   XX=            -23.8263   YY=            -23.1886   ZZ=            -29.3468
   XY=              0.1278   XZ=             -0.1360   YZ=             -0.2578

 1\1\GINC-NODE21\SP\RB2PLYPD3-FC\def2QZVP\C4H6\BOITTIER\26-Aug-2020\0\\
 #p B2PLYPD3/Def2QZVP\\butadiene\\0,1\C,0,-3.840577,0.214207,0.049437\C
 ,0,-2.704698,-0.481195,0.008536\C,0,-1.391052,0.108866,-0.078682\C,0,-
 0.263323,-0.678944,0.094707\H,0,-4.789468,-0.38702,0.114057\H,0,-3.801
 868,1.262639,0.095249\H,0,-2.712415,-1.476691,0.036263\H,0,-1.433283,1
 .172824,0.104601\H,0,-0.455315,-1.776377,0.048759\H,0,0.771434,-0.3258
 29,0.067499\\Version=ES64L-G09RevD.01\State=1-A\HF=-155.6796436\MP2=-1
 55.9071366\RMSD=3.969e-09\PG=C01 [X(C4H6)]\\@

 Normal termination of Gaussian 09 at Wed Aug 26 14:42:16 2020.
