 Gaussian 09, Revision D.01,
 Gaussian 09:  ES64L-G09RevD.01 24-Apr-2013

 --------------------
 #p B2PLYPD3/Def2QZVP
 --------------------

 ---------
 butadiene
 ---------
 Symbolic Z-matrix:
 Charge =  0 Multiplicity = 1

                         Standard orientation:
 ---------------------------------------------------------------------
 Center     Atomic      Atomic             Coordinates (Angstroms)
 Number     Number       Type             X           Y           Z
 ---------------------------------------------------------------------
      1          6           0        1.834847   -0.125529   -0.028323
      2          6           0        0.595299    0.441966    0.053155
      3          6           0       -0.576187   -0.382163    0.021077
      4          6           0       -1.826895    0.080798   -0.016866
      5          1           0        2.755482    0.462862   -0.042519
      6          1           0        1.919866   -1.187471   -0.008844
      7          1           0        0.405010    1.478283   -0.059101
      8          1           0       -0.450193   -1.436274    0.004358
      9          1           0       -2.070910    1.134987   -0.023823
     10          1           0       -2.721636   -0.542813   -0.044330
 ---------------------------------------------------------------------

 SCF Done:  E(RB2PLYPD3) =  -155.695877627     A.U. after   11 cycles
 E2(B2PLYPD3) =    -0.2263435422D+00 E(B2PLYPD3) =    -0.15592222116936D+03

 The electronic state is 1-A.
 Alpha  occ. eigenvalues --  -10.62673 -10.62085 -10.62016 -10.61411  -0.93300
 Alpha  occ. eigenvalues --   -0.84393  -0.70513  -0.64943  -0.54806  -0.53720
 Alpha  occ. eigenvalues --   -0.46650  -0.45658  -0.41596  -0.38170  -0.27217
 Alpha virt. eigenvalues --    0.01289   0.07032   0.07488   0.08169   0.09341
 Alpha virt. eigenvalues --    0.11676   0.12623   0.14741   0.15624   0.16361
 Alpha virt. eigenvalues --    0.18751   0.20171   0.22024   0.22795   0.24067

 Mulliken charges:
               1
     1  C   -0.176018
     2  C   -0.041765
     3  C   -0.018647
     4  C   -0.178319
     5  H    0.085005
     6  H    0.070278
     7  H    0.067320
     8  H    0.056475
     9  H    0.056548
    10  H    0.079124
 Sum of Mulliken charges =   0.00000

 Dipole moment (field-independent basis, Debye):
    X=              0.0191    Y=             -0.0028    Z=             -0.1055  Tot=              0.1072
 Quadrupole moment (field-independent basis, Debye-Ang):
   XX=            -23.3682   YY=            -23.1976   ZZ=            -29.2823
   XY=             -0.3040   XZ=             -0.0216   YZ=             -0.1047

 1\1\GINC-NODE10\SP\RB2PLYPD3-FC\def2QZVP\C4H6\BOITTIER\26-Aug-2020\0\\
 #p B2PLYPD3/Def2QZVP\\butadiene\\0,1\C,0,-3.827953,0.250191,-0.013229\
 C,0,-2.715614,-0.536177,0.084223\C,0,-1.41119,0.054209,0.034041\C,0,-0
 .268752,-0.634471,0.009574\H,0,-4.842131,-0.156523,-0.014633\H,0,-3.71
 3572,1.309531,-0.019844\H,0,-2.722061,-1.59222,-0.002356\H,0,-1.338629
 ,1.112612,-0.00864\H,0,-0.225442,-1.715517,0.028791\H,0,0.726428,-0.18
 9353,-0.031574\\Version=ES64L-G09RevD.01\State=1-A\HF=-155.6958776\MP2
 =-155.9222212\RMSD=5.944e-09\PG=C01 [X(C4H6)]\\@

 Normal termination of Gaussian 09 at Wed Aug 26 10:13:06 2020.
