 Gaussian 09, Revision D.01,
 Gaussian 09:  ES64L-G09RevD.01 24-Apr-2013

 --------------------
 #p B2PLYPD3/Def2QZVP
 --------------------

 ---------
 butadiene
 ---------
 Symbolic Z-matrix:
 Charge =  0 Multiplicity = 1

                         Standard orientation:
 ---------------------------------------------------------------------
 Center     Atomic      Atomic             Coordinates (Angstroms)
 Number     Number       Type             X           Y           Z
 ---------------------------------------------------------------------
      1          6           0        1.834545    0.099894    0.042387
      2          6           0        0.613509   -0.363167   -0.026845
      3          6           0       -0.604600    0.407696   -0.049649
      4          6           0       -1.838437   -0.122266    0.027584
      5          1           0        2.612203   -0.597239    0.039491
      6          1           0        2.056988    1.128757    0.000889
      7          1           0        0.483227   -1.449214   -0.086068
      8          1           0       -0.448224    1.483805   -0.040257
      9          1           0       -1.958040   -1.184953    0.027175
     10          1           0       -2.776256    0.485899    0.097907
 ---------------------------------------------------------------------

 SCF Done:  E(RB2PLYPD3) =  -155.696681057     A.U. after   11 cycles
 E2(B2PLYPD3) =    -0.2252557688D+00 E(B2PLYPD3) =    -0.15592193682549D+03

 The electronic state is 1-A.
 Alpha  occ. eigenvalues --  -10.62610 -10.62075 -10.61939 -10.60314  -0.93369
 Alpha  occ. eigenvalues --   -0.85304  -0.70528  -0.64014  -0.54866  -0.54190
 Alpha  occ. eigenvalues --   -0.46972  -0.45825  -0.40845  -0.38298  -0.27841
 Alpha virt. eigenvalues --    0.01747   0.06982   0.07487   0.08041   0.09911
 Alpha virt. eigenvalues --    0.11710   0.12442   0.14886   0.15752   0.16170
 Alpha virt. eigenvalues --    0.18779   0.20417   0.21731   0.22637   0.24141

 Mulliken charges:
               1
     1  C   -0.181889
     2  C   -0.010179
     3  C   -0.037502
     4  C   -0.172062
     5  H    0.086103
     6  H    0.067893
     7  H    0.042915
     8  H    0.052450
     9  H    0.067177
    10  H    0.085094
 Sum of Mulliken charges =   0.00000

 Dipole moment (field-independent basis, Debye):
    X=              0.0051    Y=             -0.0078    Z=             -0.0189  Tot=              0.0211
 Quadrupole moment (field-independent basis, Debye-Ang):
   XX=            -23.4248   YY=            -23.1810   ZZ=            -29.1300
   XY=              0.1882   XZ=             -0.2981   YZ=              0.0582

 1\1\GINC-NODE09\SP\RB2PLYPD3-FC\def2QZVP\C4H6\BOITTIER\26-Aug-2020\0\\
 #p B2PLYPD3/Def2QZVP\\butadiene\\0,1\C,0,-3.838916,0.210047,-0.020071\
 C,0,-2.720695,-0.462871,0.063068\C,0,-1.383665,0.076466,0.06081\C,0,-0
 .265803,-0.66907,-0.000336\H,0,-4.729265,-0.335288,0.005295\H,0,-3.872
 377,1.262928,-0.010982\H,0,-2.787548,-1.552265,0.15651\H,0,-1.343957,1
 .16233,0.017503\H,0,-0.339325,-1.735396,0.033589\H,0,0.765665,-0.24212
 6,-0.090374\\Version=ES64L-G09RevD.01\State=1-A\HF=-155.6966811\MP2=-1
 55.9219368\RMSD=8.541e-09\PG=C01 [X(C4H6)]\\@

 Normal termination of Gaussian 09 at Wed Aug 26 11:20:57 2020.
