 Gaussian 09, Revision D.01,
 Gaussian 09:  ES64L-G09RevD.01 24-Apr-2013

 --------------------
 #p B2PLYPD3/Def2QZVP
 --------------------

 ---------
 butadiene
 ---------
 Symbolic Z-matrix:
 Charge =  0 Multiplicity = 1

                         Standard orientation:
 ---------------------------------------------------------------------
 Center     Atomic      Atomic             Coordinates (Angstroms)
 Number     Number       Type             X           Y           Z
 ---------------------------------------------------------------------
      1          6           0       -1.803348    0.111093   -0.071571
      2          6           0       -0.587370   -0.457121    0.030027
      3          6           0        0.555375    0.355401    0.051902
      4          6           0        1.809892   -0.063067   -0.063533
      5          1           0       -2.726716   -0.439993    0.031501
      6          1           0       -1.994723    1.238255   -0.067917
      7          1           0       -0.318802   -1.506540    0.302189
      8          1           0        0.404205    1.513784    0.161441
      9          1           0        2.133123   -1.058909   -0.224191
     10          1           0        2.655623    0.575560    0.116024
 ---------------------------------------------------------------------

 SCF Done:  E(RB2PLYPD3) =  -155.679512689     A.U. after   12 cycles
 E2(B2PLYPD3) =    -0.2273537068D+00 E(B2PLYPD3) =    -0.15590686639590D+03

 The electronic state is 1-A.
 Alpha  occ. eigenvalues --  -10.63016 -10.62670 -10.62653 -10.60829  -0.93750
 Alpha  occ. eigenvalues --   -0.84488  -0.70916  -0.63028  -0.55344  -0.53007
 Alpha  occ. eigenvalues --   -0.47361  -0.44198  -0.40595  -0.38011  -0.27420
 Alpha virt. eigenvalues --    0.01109   0.06758   0.07256   0.07871   0.09569
 Alpha virt. eigenvalues --    0.11446   0.12550   0.14900   0.15277   0.16458
 Alpha virt. eigenvalues --    0.18725   0.19448   0.21703   0.22483   0.23416

 Mulliken charges:
               1
     1  C   -0.163329
     2  C   -0.040036
     3  C   -0.005188
     4  C   -0.182373
     5  H    0.079510
     6  H    0.064419
     7  H    0.067463
     8  H    0.042252
     9  H    0.057790
    10  H    0.079493
 Sum of Mulliken charges =   0.00000

 Dipole moment (field-independent basis, Debye):
    X=             -0.0494    Y=             -0.0454    Z=              0.3275  Tot=              0.3343
 Quadrupole moment (field-independent basis, Debye-Ang):
   XX=            -23.3333   YY=            -23.5322   ZZ=            -29.1516
   XY=             -0.8228   XZ=             -0.1731   YZ=              0.0082

 1\1\GINC-NODE34\SP\RB2PLYPD3-FC\def2QZVP\C4H6\BOITTIER\26-Aug-2020\0\\
 #p B2PLYPD3/Def2QZVP\\butadiene\\0,1\C,0,-3.793615,0.253312,-0.044747\
 C,0,-2.713463,-0.540171,0.079543\C,0,-1.432379,0.030163,0.07049\C,0,-0
 .286362,-0.632573,-0.027885\H,0,-4.80703,-0.099636,0.079128\H,0,-3.758
 079,1.395349,-0.084992\H,0,-2.655979,-1.610818,0.392419\H,0,-1.350501,
 1.198861,0.13486\H,0,-0.167782,-1.6781,-0.149552\H,0,0.670298,-0.16771
 4,0.12721\\Version=ES64L-G09RevD.01\State=1-A\HF=-155.6795127\MP2=-155
 .9068664\RMSD=4.154e-09\PG=C01 [X(C4H6)]\\@

 Normal termination of Gaussian 09 at Wed Aug 26 13:08:22 2020.
