 Gaussian 09, Revision D.01,
 Gaussian 09:  ES64L-G09RevD.01 24-Apr-2013

 --------------------
 #p B2PLYPD3/Def2QZVP
 --------------------

 ---------
 butadiene
 ---------
 Symbolic Z-matrix:
 Charge =  0 Multiplicity = 1

                         Standard orientation:
 ---------------------------------------------------------------------
 Center     Atomic      Atomic             Coordinates (Angstroms)
 Number     Number       Type             X           Y           Z
 ---------------------------------------------------------------------
      1          6           0        1.843237   -0.140791    0.055360
      2          6           0        0.607032    0.465638   -0.080811
      3          6           0       -0.584662   -0.402658   -0.032227
      4          6           0       -1.834775    0.088255    0.021161
      5          1           0        2.642099    0.475989    0.174940
      6          1           0        1.889921   -1.257611   -0.013118
      7          1           0        0.423195    1.566470   -0.060257
      8          1           0       -0.446877   -1.443008   -0.149242
      9          1           0       -1.977443    1.149532    0.064891
     10          1           0       -2.715890   -0.554041    0.201889
 ---------------------------------------------------------------------

 SCF Done:  E(RB2PLYPD3) =  -155.685374291     A.U. after   11 cycles
 E2(B2PLYPD3) =    -0.2275453473D+00 E(B2PLYPD3) =    -0.15591291963862D+03

 The electronic state is 1-A.
 Alpha  occ. eigenvalues --  -10.63792 -10.62390 -10.62051 -10.61461  -0.92414
 Alpha  occ. eigenvalues --   -0.84237  -0.69873  -0.64330  -0.54659  -0.53198
 Alpha  occ. eigenvalues --   -0.46205  -0.45802  -0.41894  -0.37311  -0.27092
 Alpha virt. eigenvalues --    0.01418   0.07069   0.07191   0.08150   0.08690
 Alpha virt. eigenvalues --    0.11674   0.12472   0.14466   0.15410   0.16291
 Alpha virt. eigenvalues --    0.18675   0.19770   0.21646   0.23138   0.24360

 Mulliken charges:
               1
     1  C   -0.182227
     2  C   -0.051115
     3  C   -0.021931
     4  C   -0.180751
     5  H    0.094078
     6  H    0.076481
     7  H    0.059790
     8  H    0.064267
     9  H    0.060691
    10  H    0.080717
 Sum of Mulliken charges =   0.00000

 Dipole moment (field-independent basis, Debye):
    X=              0.0627    Y=              0.0201    Z=              0.1349  Tot=              0.1501
 Quadrupole moment (field-independent basis, Debye-Ang):
   XX=            -24.1961   YY=            -22.7765   ZZ=            -29.4372
   XY=             -0.0897   XZ=             -0.1304   YZ=              0.2019

 1\1\GINC-NODE21\SP\RB2PLYPD3-FC\def2QZVP\C4H6\BOITTIER\26-Aug-2020\0\\
 #p B2PLYPD3/Def2QZVP\\butadiene\\0,1\C,0,-3.834507,0.261931,0.071983\C
 ,0,-2.730122,-0.564238,-0.038831\C,0,-1.399819,0.07307,-0.015015\C,0,-
 0.260221,-0.635697,0.059771\H,0,-4.732262,-0.194237,0.209251\H,0,-3.67
 6669,1.365529,-0.034386\H,0,-2.750306,-1.678789,0.019632\H,0,-1.345628
 ,1.116511,-0.16766\H,0,-0.313606,-1.703079,0.139899\H,0,0.723775,-0.15
 9279,0.222092\\Version=ES64L-G09RevD.01\State=1-A\HF=-155.6853743\MP2=
 -155.9129196\RMSD=9.616e-09\PG=C01 [X(C4H6)]\\@

 Normal termination of Gaussian 09 at Wed Aug 26 15:07:13 2020.
