 Gaussian 09, Revision D.01,
 Gaussian 09:  ES64L-G09RevD.01 24-Apr-2013

 --------------------
 #p B2PLYPD3/Def2QZVP
 --------------------

 ---------
 butadiene
 ---------
 Symbolic Z-matrix:
 Charge =  0 Multiplicity = 1

                         Standard orientation:
 ---------------------------------------------------------------------
 Center     Atomic      Atomic             Coordinates (Angstroms)
 Number     Number       Type             X           Y           Z
 ---------------------------------------------------------------------
      1          6           0       -1.855176   -0.111033   -0.016534
      2          6           0       -0.606779    0.424651    0.005913
      3          6           0        0.602866   -0.368725    0.071410
      4          6           0        1.874589    0.070295   -0.061079
      5          1           0       -2.803851    0.414013   -0.055261
      6          1           0       -2.094059   -1.198041   -0.281345
      7          1           0       -0.470739    1.514448    0.314590
      8          1           0        0.426002   -1.404151    0.237446
      9          1           0        2.093868    1.192281   -0.238530
     10          1           0        2.755780   -0.609675    0.024841
 ---------------------------------------------------------------------

 SCF Done:  E(RB2PLYPD3) =  -155.680751548     A.U. after   11 cycles
 E2(B2PLYPD3) =    -0.2282839150D+00 E(B2PLYPD3) =    -0.15590903546299D+03

 The electronic state is 1-A.
 Alpha  occ. eigenvalues --  -10.63924 -10.63101 -10.62946 -10.62705  -0.92554
 Alpha  occ. eigenvalues --   -0.84028  -0.70254  -0.63216  -0.54795  -0.52192
 Alpha  occ. eigenvalues --   -0.47351  -0.44069  -0.40527  -0.37243  -0.27694
 Alpha virt. eigenvalues --    0.00842   0.07051   0.07178   0.07585   0.09172
 Alpha virt. eigenvalues --    0.11181   0.12254   0.14382   0.15250   0.16308
 Alpha virt. eigenvalues --    0.18723   0.19642   0.21619   0.22292   0.23006

 Mulliken charges:
               1
     1  C   -0.166035
     2  C   -0.040432
     3  C   -0.038644
     4  C   -0.171518
     5  H    0.080789
     6  H    0.053294
     7  H    0.067168
     8  H    0.064394
     9  H    0.061042
    10  H    0.089942
 Sum of Mulliken charges =   0.00000

 Dipole moment (field-independent basis, Debye):
    X=             -0.0866    Y=             -0.0669    Z=              0.0592  Tot=              0.1244
 Quadrupole moment (field-independent basis, Debye-Ang):
   XX=            -22.9962   YY=            -23.7735   ZZ=            -29.3571
   XY=              0.3183   XZ=              0.2660   YZ=              0.1281

 1\1\GINC-NODE38\SP\RB2PLYPD3-FC\def2QZVP\C4H6\BOITTIER\26-Aug-2020\0\\
 #p B2PLYPD3/Def2QZVP\\butadiene\\0,1\C,0,-3.856208,0.238444,0.039525\C
 ,0,-2.728343,-0.518873,0.020872\C,0,-1.393057,0.036756,-0.051684\C,0,-
 0.2241,-0.628642,0.083793\H,0,-4.885488,-0.101924,0.082993\H,0,-3.8895
 91,1.352946,0.295547\H,0,-2.796634,-1.61746,-0.278943\H,0,-1.375872,1.
 085679,-0.226101\H,0,-0.215573,-1.770379,0.270313\H,0,0.767393,-0.1239
 28,-0.008103\\Version=ES64L-G09RevD.01\State=1-A\HF=-155.6807515\MP2=-
 155.9090355\RMSD=5.806e-09\PG=C01 [X(C4H6)]\\@

 Normal termination of Gaussian 09 at Wed Aug 26 12:18:30 2020.
