 Gaussian 09, Revision D.01,
 Gaussian 09:  ES64L-G09RevD.01 24-Apr-2013

 --------------------
 #p B2PLYPD3/Def2QZVP
 --------------------

 ---------
 butadiene
 ---------
 Symbolic Z-matrix:
 Charge =  0 Multiplicity = 1

                         Standard orientation:
 ---------------------------------------------------------------------
 Center     Atomic      Atomic             Coordinates (Angstroms)
 Number     Number       Type             X           Y           Z
 ---------------------------------------------------------------------
      1          6           0       -1.831538   -0.123101   -0.005710
      2          6           0       -0.613292    0.419808   -0.022071
      3          6           0        0.598921   -0.395509    0.001526
      4          6           0        1.832299    0.108072    0.007009
      5          1           0       -2.729148    0.492364    0.070551
      6          1           0       -1.917438   -1.192127    0.006503
      7          1           0       -0.475466    1.479003    0.051001
      8          1           0        0.490872   -1.472488   -0.005106
      9          1           0        2.011632    1.179432   -0.036911
     10          1           0        2.701202   -0.541799    0.029436
 ---------------------------------------------------------------------

 SCF Done:  E(RB2PLYPD3) =  -155.700605429     A.U. after   11 cycles
 E2(B2PLYPD3) =    -0.2255671147D+00 E(B2PLYPD3) =    -0.15592617254418D+03

 The electronic state is 1-A.
 Alpha  occ. eigenvalues --  -10.62420 -10.62363 -10.61478 -10.61418  -0.93020
 Alpha  occ. eigenvalues --   -0.84962  -0.69785  -0.64352  -0.54430  -0.54057
 Alpha  occ. eigenvalues --   -0.46554  -0.45685  -0.41290  -0.38082  -0.27725
 Alpha virt. eigenvalues --    0.01927   0.07028   0.07435   0.08067   0.09450
 Alpha virt. eigenvalues --    0.11740   0.12462   0.14658   0.15729   0.16215
 Alpha virt. eigenvalues --    0.18716   0.20351   0.21569   0.22978   0.24147

 Mulliken charges:
               1
     1  C   -0.174268
     2  C   -0.034040
     3  C   -0.028833
     4  C   -0.178237
     5  H    0.086009
     6  H    0.067364
     7  H    0.059920
     8  H    0.053575
     9  H    0.064576
    10  H    0.083933
 Sum of Mulliken charges =   0.00000

 Dipole moment (field-independent basis, Debye):
    X=             -0.0096    Y=              0.0054    Z=              0.0908  Tot=              0.0915
 Quadrupole moment (field-independent basis, Debye-Ang):
   XX=            -23.6548   YY=            -23.0117   ZZ=            -29.2537
   XY=              0.0320   XZ=             -0.2744   YZ=              0.0513

 1\1\GINC-NODE17\SP\RB2PLYPD3-FC\def2QZVP\C4H6\BOITTIER\26-Aug-2020\0\\
 #p B2PLYPD3/Def2QZVP\\butadiene\\0,1\C,0,-3.830769,0.232497,0.017943\C
 ,0,-2.728483,-0.517761,0.052867\C,0,-1.390615,0.068137,0.012973\C,0,-0
 .266462,-0.64669,0.02511\H,0,-4.823589,-0.215329,-0.045918\H,0,-3.7251
 91,1.29908,-0.022024\H,0,-2.781285,-1.586118,0.007523\H,0,-1.305403,1.
 146971,-0.008443\H,0,-0.280486,-1.73136,0.097188\H,0,0.704146,-0.16247
 3,-0.010677\\Version=ES64L-G09RevD.01\State=1-A\HF=-155.7006054\MP2=-1
 55.9261725\RMSD=4.528e-09\PG=C01 [X(C4H6)]\\@

 Normal termination of Gaussian 09 at Wed Aug 26 16:21:28 2020.
