 Gaussian 09, Revision D.01,
 Gaussian 09:  ES64L-G09RevD.01 24-Apr-2013

 --------------------
 #p B2PLYPD3/Def2QZVP
 --------------------

 ---------
 butadiene
 ---------
 Symbolic Z-matrix:
 Charge =  0 Multiplicity = 1

                         Standard orientation:
 ---------------------------------------------------------------------
 Center     Atomic      Atomic             Coordinates (Angstroms)
 Number     Number       Type             X           Y           Z
 ---------------------------------------------------------------------
      1          6           0       -1.818111   -0.123891   -0.035430
      2          6           0       -0.593873    0.418358    0.003931
      3          6           0        0.598091   -0.361134    0.036866
      4          6           0        1.833488    0.082190   -0.027420
      5          1           0       -2.707465    0.445281    0.021565
      6          1           0       -2.000395   -1.183713   -0.024765
      7          1           0       -0.506203    1.491777    0.130356
      8          1           0        0.449338   -1.452113    0.082663
      9          1           0        1.947703    1.142054   -0.058217
     10          1           0        2.699451   -0.536427   -0.019282
 ---------------------------------------------------------------------

 SCF Done:  E(RB2PLYPD3) =  -155.697640367     A.U. after   11 cycles
 E2(B2PLYPD3) =    -0.2252247089D+00 E(B2PLYPD3) =    -0.15592286507602D+03

 The electronic state is 1-A.
 Alpha  occ. eigenvalues --  -10.62471 -10.61942 -10.61316 -10.60725  -0.93621
 Alpha  occ. eigenvalues --   -0.85289  -0.70813  -0.64035  -0.55419  -0.54120
 Alpha  occ. eigenvalues --   -0.47396  -0.45112  -0.41205  -0.38380  -0.27716
 Alpha virt. eigenvalues --    0.01670   0.07101   0.07453   0.08057   0.09911
 Alpha virt. eigenvalues --    0.11677   0.12658   0.14800   0.15716   0.16433
 Alpha virt. eigenvalues --    0.18766   0.20287   0.21985   0.22746   0.23804

 Mulliken charges:
               1
     1  C   -0.172168
     2  C   -0.033371
     3  C   -0.014257
     4  C   -0.176754
     5  H    0.081831
     6  H    0.063375
     7  H    0.055951
     8  H    0.043955
     9  H    0.058416
    10  H    0.093022
 Sum of Mulliken charges =   0.00000

 Dipole moment (field-independent basis, Debye):
    X=             -0.0655    Y=             -0.0124    Z=              0.1470  Tot=              0.1614
 Quadrupole moment (field-independent basis, Debye-Ang):
   XX=            -23.1907   YY=            -23.3135   ZZ=            -29.0640
   XY=              0.0536   XZ=             -0.2483   YZ=              0.0775

 1\1\GINC-NODE31\SP\RB2PLYPD3-FC\def2QZVP\C4H6\BOITTIER\26-Aug-2020\0\\
 #p B2PLYPD3/Def2QZVP\\butadiene\\0,1\C,0,-3.819109,0.239464,0.047504\C
 ,0,-2.713838,-0.51697,0.02457\C,0,-1.400054,0.032008,-0.020893\C,0,-0.
 2658,-0.626907,0.057679\H,0,-4.79712,-0.159731,-0.000394\H,0,-3.80572,
 1.314265,0.013039\H,0,-2.822775,-1.590978,-0.078079\H,0,-1.348039,1.13
 0568,-0.091036\H,0,-0.346126,-1.688933,0.112017\H,0,0.698179,-0.176294
 ,0.039294\\Version=ES64L-G09RevD.01\State=1-A\HF=-155.6976404\MP2=-155
 .9228651\RMSD=6.559e-09\PG=C01 [X(C4H6)]\\@

 Normal termination of Gaussian 09 at Wed Aug 26 08:49:04 2020.
