 Gaussian 09, Revision D.01,
 Gaussian 09:  ES64L-G09RevD.01 24-Apr-2013

 --------------------
 #p B2PLYPD3/Def2QZVP
 --------------------

 ---------
 butadiene
 ---------
 Symbolic Z-matrix:
 Charge =  0 Multiplicity = 1

                         Standard orientation:
 ---------------------------------------------------------------------
 Center     Atomic      Atomic             Coordinates (Angstroms)
 Number     Number       Type             X           Y           Z
 ---------------------------------------------------------------------
      1          6           0        1.824198   -0.123899    0.027312
      2          6           0        0.600122    0.392444   -0.045358
      3          6           0       -0.582523   -0.398719   -0.082512
      4          6           0       -1.813463    0.114745    0.053068
      5          1           0        2.646386    0.557863   -0.022933
      6          1           0        1.780591   -1.163075    0.432053
      7          1           0        0.472294    1.504635   -0.145811
      8          1           0       -0.437061   -1.458916   -0.263822
      9          1           0       -1.984356    1.161899    0.232401
     10          1           0       -2.647858   -0.509827    0.053054
 ---------------------------------------------------------------------

 SCF Done:  E(RB2PLYPD3) =  -155.686534389     A.U. after   11 cycles
 E2(B2PLYPD3) =    -0.2265461794D+00 E(B2PLYPD3) =    -0.15591308056857D+03

 The electronic state is 1-A.
 Alpha  occ. eigenvalues --  -10.62327 -10.62251 -10.61351 -10.61162  -0.93646
 Alpha  occ. eigenvalues --   -0.85082  -0.70477  -0.63406  -0.55192  -0.53651
 Alpha  occ. eigenvalues --   -0.47012  -0.45058  -0.41489  -0.38016  -0.27417
 Alpha virt. eigenvalues --    0.01360   0.07161   0.07332   0.07839   0.09319
 Alpha virt. eigenvalues --    0.11898   0.12325   0.14877   0.15626   0.16144
 Alpha virt. eigenvalues --    0.18487   0.19611   0.21148   0.22597   0.23911

 Mulliken charges:
               1
     1  C   -0.191074
     2  C   -0.011293
     3  C   -0.040161
     4  C   -0.178454
     5  H    0.090637
     6  H    0.068450
     7  H    0.045200
     8  H    0.060913
     9  H    0.068940
    10  H    0.086844
 Sum of Mulliken charges =   0.00000

 Dipole moment (field-independent basis, Debye):
    X=             -0.1787    Y=              0.1059    Z=              0.1999  Tot=              0.2883
 Quadrupole moment (field-independent basis, Debye-Ang):
   XX=            -24.2430   YY=            -23.2508   ZZ=            -28.9231
   XY=              0.3856   XZ=              0.0793   YZ=             -0.1560

 1\1\GINC-NODE13\SP\RB2PLYPD3-FC\def2QZVP\C4H6\BOITTIER\26-Aug-2020\0\\
 #p B2PLYPD3/Def2QZVP\\butadiene\\0,1\C,0,-3.821388,0.233248,0.051406\C
 ,0,-2.71022,-0.496032,-0.009489\C,0,-1.404734,0.06879,-0.060979\C,0,-0
 .285796,-0.654765,0.086286\H,0,-4.752835,-0.290496,0.013768\H,0,-3.590
 757,1.255477,0.435412\H,0,-2.7846,-1.614856,-0.087606\H,0,-1.357721,1.
 134062,-0.263553\H,0,-0.305453,-1.711819,0.286655\H,0,0.64726,-0.19045
 9,0.07483\\Version=ES64L-G09RevD.01\State=1-A\HF=-155.6865344\MP2=-155
 .9130806\RMSD=8.590e-09\PG=C01 [X(C4H6)]\\@

 Normal termination of Gaussian 09 at Wed Aug 26 11:49:50 2020.
