 Gaussian 09, Revision D.01,
 Gaussian 09:  ES64L-G09RevD.01 24-Apr-2013

 --------------------
 #p B2PLYPD3/Def2QZVP
 --------------------

 ---------
 butadiene
 ---------
 Symbolic Z-matrix:
 Charge =  0 Multiplicity = 1

                         Standard orientation:
 ---------------------------------------------------------------------
 Center     Atomic      Atomic             Coordinates (Angstroms)
 Number     Number       Type             X           Y           Z
 ---------------------------------------------------------------------
      1          6           0        1.804267   -0.141739   -0.062891
      2          6           0        0.587838    0.424297    0.083017
      3          6           0       -0.568265   -0.362700    0.042557
      4          6           0       -1.819294    0.087238   -0.089572
      5          1           0        2.689920    0.478605   -0.006944
      6          1           0        1.803227   -1.197671   -0.215101
      7          1           0        0.472461    1.549095    0.138919
      8          1           0       -0.391654   -1.381326    0.277760
      9          1           0       -1.996750    1.115365   -0.134350
     10          1           0       -2.604476   -0.606647    0.101047
 ---------------------------------------------------------------------

 SCF Done:  E(RB2PLYPD3) =  -155.688797554     A.U. after   11 cycles
 E2(B2PLYPD3) =    -0.2264227078D+00 E(B2PLYPD3) =    -0.15591522026133D+03

 The electronic state is 1-A.
 Alpha  occ. eigenvalues --  -10.62488 -10.61639 -10.61503 -10.60640  -0.94021
 Alpha  occ. eigenvalues --   -0.84874  -0.70745  -0.64115  -0.54814  -0.54125
 Alpha  occ. eigenvalues --   -0.46722  -0.45917  -0.41913  -0.37962  -0.27253
 Alpha virt. eigenvalues --    0.01168   0.07161   0.07328   0.08020   0.09701
 Alpha virt. eigenvalues --    0.11915   0.12414   0.15030   0.15360   0.16140
 Alpha virt. eigenvalues --    0.18656   0.19997   0.21339   0.22340   0.24535

 Mulliken charges:
               1
     1  C   -0.180008
     2  C   -0.031166
     3  C   -0.015359
     4  C   -0.189865
     5  H    0.093645
     6  H    0.069641
     7  H    0.045764
     8  H    0.056578
     9  H    0.068077
    10  H    0.082693
 Sum of Mulliken charges =   0.00000

 Dipole moment (field-independent basis, Debye):
    X=              0.0984    Y=              0.0355    Z=              0.2217  Tot=              0.2451
 Quadrupole moment (field-independent basis, Debye-Ang):
   XX=            -24.1365   YY=            -23.0836   ZZ=            -29.0321
   XY=             -0.0074   XZ=             -0.5489   YZ=             -0.1395

 1\1\GINC-NODE17\SP\RB2PLYPD3-FC\def2QZVP\C4H6\BOITTIER\26-Aug-2020\0\\
 #p B2PLYPD3/Def2QZVP\\butadiene\\0,1\C,0,-3.798686,0.254691,-0.047329\
 C,0,-2.707215,-0.520793,0.122083\C,0,-1.425984,0.038322,0.06366\C,0,-0
 .279266,-0.638068,-0.048191\H,0,-4.783397,-0.190002,0.022899\H,0,-3.60
 3302,1.28717,-0.231647\H,0,-2.800903,-1.645334,0.212843\H,0,-1.411886,
 1.078829,0.266784\H,0,-0.294187,-1.682176,-0.060687\H,0,0.620358,-0.09
 501,0.125265\\Version=ES64L-G09RevD.01\State=1-A\HF=-155.6887976\MP2=-
 155.9152203\RMSD=7.411e-09\PG=C01 [X(C4H6)]\\@

 Normal termination of Gaussian 09 at Wed Aug 26 12:58:02 2020.
