 Gaussian 09, Revision D.01,
 Gaussian 09:  ES64L-G09RevD.01 24-Apr-2013

 --------------------
 #p B2PLYPD3/Def2QZVP
 --------------------

 ---------
 butadiene
 ---------
 Symbolic Z-matrix:
 Charge =  0 Multiplicity = 1

                         Standard orientation:
 ---------------------------------------------------------------------
 Center     Atomic      Atomic             Coordinates (Angstroms)
 Number     Number       Type             X           Y           Z
 ---------------------------------------------------------------------
      1          6           0       -1.831374   -0.126092    0.007804
      2          6           0       -0.603407    0.416928   -0.003127
      3          6           0        0.594121   -0.391938   -0.026081
      4          6           0        1.836028    0.103159    0.007213
      5          1           0       -2.700123    0.525408    0.047275
      6          1           0       -1.942443   -1.189970    0.026521
      7          1           0       -0.484031    1.498574   -0.063053
      8          1           0        0.439368   -1.444013   -0.027666
      9          1           0        2.031454    1.153443    0.038565
     10          1           0        2.683570   -0.555782    0.063500
 ---------------------------------------------------------------------

 SCF Done:  E(RB2PLYPD3) =  -155.700342090     A.U. after   11 cycles
 E2(B2PLYPD3) =    -0.2257096302D+00 E(B2PLYPD3) =    -0.15592605172033D+03

 The electronic state is 1-A.
 Alpha  occ. eigenvalues --  -10.62486 -10.62169 -10.61507 -10.61235  -0.93135
 Alpha  occ. eigenvalues --   -0.84831  -0.70252  -0.64434  -0.54491  -0.54179
 Alpha  occ. eigenvalues --   -0.46361  -0.46108  -0.41543  -0.38103  -0.27480
 Alpha virt. eigenvalues --    0.01668   0.07027   0.07458   0.08095   0.09528
 Alpha virt. eigenvalues --    0.11776   0.12424   0.14848   0.15753   0.16121
 Alpha virt. eigenvalues --    0.18686   0.20473   0.21638   0.23018   0.24021

 Mulliken charges:
               1
     1  C   -0.182131
     2  C   -0.028407
     3  C   -0.030391
     4  C   -0.179233
     5  H    0.086699
     6  H    0.069530
     7  H    0.055629
     8  H    0.056554
     9  H    0.068101
    10  H    0.083649
 Sum of Mulliken charges =   0.00000

 Dipole moment (field-independent basis, Debye):
    X=             -0.0066    Y=              0.0043    Z=              0.0618  Tot=              0.0623
 Quadrupole moment (field-independent basis, Debye-Ang):
   XX=            -23.7290   YY=            -22.9518   ZZ=            -29.2466
   XY=              0.1364   XZ=              0.1155   YZ=             -0.0548

 1\1\GINC-NODE27\SP\RB2PLYPD3-FC\def2QZVP\C4H6\BOITTIER\26-Aug-2020\0\\
 #p B2PLYPD3/Def2QZVP\\butadiene\\0,1\C,0,-3.829735,0.240416,0.009467\C
 ,0,-2.720398,-0.515437,0.040268\C,0,-1.396063,0.063344,0.036514\C,0,-0
 .26457,-0.649439,0.021481\H,0,-4.802318,-0.243836,-0.008387\H,0,-3.746
 364,1.305544,-0.045972\H,0,-2.7986,-1.598132,0.137512\H,0,-1.357682,1.
 125479,0.001729\H,0,-0.262784,-1.718196,0.026494\H,0,0.687998,-0.15728
 9,-0.056643\\Version=ES64L-G09RevD.01\State=1-A\HF=-155.7003421\MP2=-1
 55.9260517\RMSD=4.230e-09\PG=C01 [X(C4H6)]\\@

 Normal termination of Gaussian 09 at Wed Aug 26 21:38:32 2020.
