 Gaussian 09, Revision D.01,
 Gaussian 09:  ES64L-G09RevD.01 24-Apr-2013

 --------------------
 #p B2PLYPD3/Def2QZVP
 --------------------

 ---------
 butadiene
 ---------
 Symbolic Z-matrix:
 Charge =  0 Multiplicity = 1

                         Standard orientation:
 ---------------------------------------------------------------------
 Center     Atomic      Atomic             Coordinates (Angstroms)
 Number     Number       Type             X           Y           Z
 ---------------------------------------------------------------------
      1          6           0        1.854134   -0.146989   -0.010119
      2          6           0        0.625979    0.440620   -0.000623
      3          6           0       -0.613003   -0.341560   -0.038568
      4          6           0       -1.860422    0.067712    0.027253
      5          1           0        2.736863    0.479851   -0.094080
      6          1           0        2.059209   -1.274420    0.323823
      7          1           0        0.588361    1.529784   -0.014148
      8          1           0       -0.564739   -1.473201   -0.190045
      9          1           0       -2.089239    1.136920    0.095126
     10          1           0       -2.770586   -0.517634    0.011669
 ---------------------------------------------------------------------

 SCF Done:  E(RB2PLYPD3) =  -155.680228985     A.U. after   11 cycles
 E2(B2PLYPD3) =    -0.2273666037D+00 E(B2PLYPD3) =    -0.15590759558855D+03

 The electronic state is 1-A.
 Alpha  occ. eigenvalues --  -10.63734 -10.63311 -10.63028 -10.61340  -0.92494
 Alpha  occ. eigenvalues --   -0.84867  -0.69695  -0.63011  -0.54731  -0.53156
 Alpha  occ. eigenvalues --   -0.46876  -0.44161  -0.40166  -0.37725  -0.27785
 Alpha virt. eigenvalues --    0.01210   0.06924   0.07287   0.07647   0.09333
 Alpha virt. eigenvalues --    0.11341   0.12278   0.14242   0.15945   0.16559
 Alpha virt. eigenvalues --    0.18864   0.19996   0.21623   0.22167   0.23199

 Mulliken charges:
               1
     1  C   -0.163240
     2  C   -0.061201
     3  C   -0.016621
     4  C   -0.163508
     5  H    0.080614
     6  H    0.072610
     7  H    0.066519
     8  H    0.049916
     9  H    0.047376
    10  H    0.087535
 Sum of Mulliken charges =   0.00000

 Dipole moment (field-independent basis, Debye):
    X=              0.0045    Y=              0.1068    Z=              0.1050  Tot=              0.1499
 Quadrupole moment (field-independent basis, Debye-Ang):
   XX=            -23.1035   YY=            -23.4851   ZZ=            -29.3470
   XY=              0.1790   XZ=              0.2456   YZ=             -0.1961

 1\1\GINC-NODE04\SP\RB2PLYPD3-FC\def2QZVP\C4H6\BOITTIER\26-Aug-2020\0\\
 #p B2PLYPD3/Def2QZVP\\butadiene\\0,1\C,0,-3.850877,0.252888,0.015916\C
 ,0,-2.743323,-0.5388,0.033073\C,0,-1.387532,0.015777,-0.017875\C,0,-0.
 229852,-0.602819,0.052892\H,0,-4.8293,-0.212359,-0.057719\H,0,-3.85596
 1,1.403582,0.333016\H,0,-2.895364,-1.618036,0.03594\H,0,-1.239193,1.13
 6266,-0.186355\H,0,-0.189842,-1.694401,0.13666\H,0,0.768031,-0.184656,
 0.027593\\Version=ES64L-G09RevD.01\State=1-A\HF=-155.680229\MP2=-155.9
 075956\RMSD=9.562e-09\PG=C01 [X(C4H6)]\\@

 Normal termination of Gaussian 09 at Wed Aug 26 12:40:38 2020.
