 Gaussian 09, Revision D.01,
 Gaussian 09:  ES64L-G09RevD.01 24-Apr-2013

 --------------------
 #p B2PLYPD3/Def2QZVP
 --------------------

 ---------
 butadiene
 ---------
 Symbolic Z-matrix:
 Charge =  0 Multiplicity = 1

                         Standard orientation:
 ---------------------------------------------------------------------
 Center     Atomic      Atomic             Coordinates (Angstroms)
 Number     Number       Type             X           Y           Z
 ---------------------------------------------------------------------
      1          6           0       -1.846262   -0.148216    0.038584
      2          6           0       -0.617152    0.401433   -0.031808
      3          6           0        0.623849   -0.311315   -0.046503
      4          6           0        1.866490    0.079184    0.005395
      5          1           0       -2.628993    0.556025    0.026111
      6          1           0       -1.994497   -1.259997    0.072614
      7          1           0       -0.605697    1.496286   -0.153472
      8          1           0        0.405830   -1.392584   -0.013413
      9          1           0        2.009964    1.110882    0.276945
     10          1           0        2.651845   -0.637122   -0.002794
 ---------------------------------------------------------------------

 SCF Done:  E(RB2PLYPD3) =  -155.687679032     A.U. after   11 cycles
 E2(B2PLYPD3) =    -0.2259810072D+00 E(B2PLYPD3) =    -0.15591366003914D+03

 The electronic state is 1-A.
 Alpha  occ. eigenvalues --  -10.62639 -10.62081 -10.61907 -10.60853  -0.93427
 Alpha  occ. eigenvalues --   -0.85689  -0.70814  -0.63062  -0.54754  -0.54352
 Alpha  occ. eigenvalues --   -0.46951  -0.45953  -0.40223  -0.38270  -0.27888
 Alpha virt. eigenvalues --    0.01326   0.06991   0.07444   0.07951   0.10035
 Alpha virt. eigenvalues --    0.11728   0.12227   0.14798   0.15373   0.16349
 Alpha virt. eigenvalues --    0.18802   0.19762   0.21610   0.22236   0.24201

 Mulliken charges:
               1
     1  C   -0.181692
     2  C   -0.033223
     3  C   -0.005411
     4  C   -0.181825
     5  H    0.091542
     6  H    0.072335
     7  H    0.042703
     8  H    0.033312
     9  H    0.068177
    10  H    0.094081
 Sum of Mulliken charges =   0.00000

 Dipole moment (field-independent basis, Debye):
    X=             -0.1039    Y=             -0.0214    Z=              0.1560  Tot=              0.1886
 Quadrupole moment (field-independent basis, Debye-Ang):
   XX=            -23.7806   YY=            -23.2678   ZZ=            -29.0780
   XY=             -0.2952   XZ=              0.4452   YZ=              0.0755

 1\1\GINC-NODE28\SP\RB2PLYPD3-FC\def2QZVP\C4H6\BOITTIER\26-Aug-2020\0\\
 #p B2PLYPD3/Def2QZVP\\butadiene\\0,1\C,0,-3.84652,0.254731,-0.018219\C
 ,0,-2.731979,-0.498854,0.069455\C,0,-1.385331,-0.014456,0.055078\C,0,-
 0.230687,-0.618198,0.014669\H,0,-4.740261,-0.300603,0.021929\H,0,-3.79
 8228,1.373349,-0.092714\H,0,-2.91121,-1.573724,0.23122\H,0,-1.411074,1
 .0864,-0.017194\H,0,-0.272319,-1.668115,-0.21914\H,0,0.667928,-0.05071
 5,-0.005281\\Version=ES64L-G09RevD.01\State=1-A\HF=-155.687679\MP2=-15
 5.91366\RMSD=7.264e-09\PG=C01 [X(C4H6)]\\@

 Normal termination of Gaussian 09 at Wed Aug 26 12:46:36 2020.
