 Gaussian 09, Revision D.01,
 Gaussian 09:  ES64L-G09RevD.01 24-Apr-2013

 --------------------
 #p B2PLYPD3/Def2QZVP
 --------------------

 ---------
 butadiene
 ---------
 Symbolic Z-matrix:
 Charge =  0 Multiplicity = 1

                         Standard orientation:
 ---------------------------------------------------------------------
 Center     Atomic      Atomic             Coordinates (Angstroms)
 Number     Number       Type             X           Y           Z
 ---------------------------------------------------------------------
      1          6           0        1.836454   -0.120282   -0.016115
      2          6           0        0.614055    0.407758    0.023198
      3          6           0       -0.603308   -0.383846   -0.004085
      4          6           0       -1.851413    0.098058   -0.003746
      5          1           0        2.722520    0.511628    0.005304
      6          1           0        1.973834   -1.198321    0.016612
      7          1           0        0.539505    1.474640   -0.023245
      8          1           0       -0.461055   -1.458955    0.009661
      9          1           0       -2.020746    1.172787   -0.007118
     10          1           0       -2.728786   -0.511908    0.003270
 ---------------------------------------------------------------------

 SCF Done:  E(RB2PLYPD3) =  -155.700644799     A.U. after   11 cycles
 E2(B2PLYPD3) =    -0.2256230694D+00 E(B2PLYPD3) =    -0.15592626786866D+03

 The electronic state is 1-A.
 Alpha  occ. eigenvalues --  -10.62592 -10.62323 -10.61620 -10.61475  -0.93015
 Alpha  occ. eigenvalues --   -0.84995  -0.70181  -0.64206  -0.54726  -0.54001
 Alpha  occ. eigenvalues --   -0.46821  -0.45384  -0.41212  -0.38151  -0.27729
 Alpha virt. eigenvalues --    0.01681   0.07011   0.07490   0.08046   0.09657
 Alpha virt. eigenvalues --    0.11650   0.12493   0.14632   0.15779   0.16309
 Alpha virt. eigenvalues --    0.18847   0.20301   0.21758   0.22748   0.23801

 Mulliken charges:
               1
     1  C   -0.172188
     2  C   -0.030197
     3  C   -0.031560
     4  C   -0.175077
     5  H    0.084312
     6  H    0.064422
     7  H    0.057398
     8  H    0.052557
     9  H    0.061722
    10  H    0.088611
 Sum of Mulliken charges =   0.00000

 Dipole moment (field-independent basis, Debye):
    X=              0.0249    Y=              0.0146    Z=              0.0192  Tot=              0.0347
 Quadrupole moment (field-independent basis, Debye-Ang):
   XX=            -23.3229   YY=            -23.1765   ZZ=            -29.2572
   XY=              0.0046   XZ=              0.0175   YZ=             -0.0835

 1\1\GINC-NODE14\SP\RB2PLYPD3-FC\def2QZVP\C4H6\BOITTIER\26-Aug-2020\0\\
 #p B2PLYPD3/Def2QZVP\\butadiene\\0,1\C,0,-3.838334,0.229333,0.003372\C
 ,0,-2.729063,-0.5064,0.056739\C,0,-1.390529,0.055501,0.012608\C,0,-0.2
 47876,-0.640316,0.025967\H,0,-4.822491,-0.234448,0.038359\H,0,-3.78194
 7,1.315095,0.010645\H,0,-2.845337,-1.570344,0.035405\H,0,-1.339511,1.1
 38805,0.000967\H,0,-0.272148,-1.727814,0.048007\H,0,0.723908,-0.195917
 ,0.019909\\Version=ES64L-G09RevD.01\State=1-A\HF=-155.7006448\MP2=-155
 .9262679\RMSD=3.029e-09\PG=C01 [X(C4H6)]\\@

 Normal termination of Gaussian 09 at Wed Aug 26 11:24:59 2020.
