 Gaussian 09, Revision D.01,
 Gaussian 09:  ES64L-G09RevD.01 24-Apr-2013

 --------------------
 #p B2PLYPD3/Def2QZVP
 --------------------

 ---------
 butadiene
 ---------
 Symbolic Z-matrix:
 Charge =  0 Multiplicity = 1

                         Standard orientation:
 ---------------------------------------------------------------------
 Center     Atomic      Atomic             Coordinates (Angstroms)
 Number     Number       Type             X           Y           Z
 ---------------------------------------------------------------------
      1          6           0       -1.858760    0.073180   -0.040594
      2          6           0       -0.612072   -0.334913    0.048061
      3          6           0        0.602098    0.448322    0.008594
      4          6           0        1.859870   -0.148570   -0.032962
      5          1           0       -2.643031   -0.686510   -0.080655
      6          1           0       -2.050609    1.142480   -0.111962
      7          1           0       -0.420355   -1.384219    0.292655
      8          1           0        0.506604    1.451780    0.187785
      9          1           0        1.984715   -1.225180   -0.209097
     10          1           0        2.675860    0.473537    0.022679
 ---------------------------------------------------------------------

 SCF Done:  E(RB2PLYPD3) =  -155.685867811     A.U. after   12 cycles
 E2(B2PLYPD3) =    -0.2265413468D+00 E(B2PLYPD3) =    -0.15591240915806D+03

 The electronic state is 1-A.
 Alpha  occ. eigenvalues --  -10.62628 -10.62104 -10.61906 -10.61333  -0.92937
 Alpha  occ. eigenvalues --   -0.84728  -0.70906  -0.64217  -0.54385  -0.54127
 Alpha  occ. eigenvalues --   -0.46897  -0.46290  -0.41810  -0.36920  -0.27415
 Alpha virt. eigenvalues --    0.01088   0.07073   0.07582   0.08009   0.09414
 Alpha virt. eigenvalues --    0.11706   0.12208   0.14782   0.15328   0.16016
 Alpha virt. eigenvalues --    0.18528   0.19821   0.21399   0.22676   0.24173

 Mulliken charges:
               1
     1  C   -0.187917
     2  C   -0.015629
     3  C   -0.059774
     4  C   -0.187316
     5  H    0.092100
     6  H    0.067736
     7  H    0.053750
     8  H    0.067347
     9  H    0.079131
    10  H    0.090571
 Sum of Mulliken charges =   0.00000

 Dipole moment (field-independent basis, Debye):
    X=              0.0771    Y=              0.0321    Z=              0.1116  Tot=              0.1394
 Quadrupole moment (field-independent basis, Debye-Ang):
   XX=            -23.8176   YY=            -23.0721   ZZ=            -29.1657
   XY=             -0.0606   XZ=              0.1271   YZ=              0.1854

 1\1\GINC-NODE23\SP\RB2PLYPD3-FC\def2QZVP\C4H6\BOITTIER\26-Aug-2020\0\\
 #p B2PLYPD3/Def2QZVP\\butadiene\\0,1\C,0,-3.866888,0.189805,-0.017975\
 C,0,-2.714765,-0.436109,0.079369\C,0,-1.378784,0.113561,0.03203\C,0,-0
 .249982,-0.701847,0.001816\H,0,-4.775827,-0.415714,-0.049432\H,0,-3.86
 1827,1.275057,-0.104609\H,0,-2.716315,-1.49924,0.338934\H,0,-1.290866,
 1.120133,0.197077\H,0,-0.322289,-1.785628,-0.159091\H,0,0.665225,-0.23
 7148,0.050834\\Version=ES64L-G09RevD.01\State=1-A\HF=-155.6858678\MP2=
 -155.9124092\RMSD=3.977e-09\PG=C01 [X(C4H6)]\\@

 Normal termination of Gaussian 09 at Wed Aug 26 14:09:26 2020.
