 Gaussian 09, Revision D.01,
 Gaussian 09:  ES64L-G09RevD.01 24-Apr-2013

 --------------------
 #p B2PLYPD3/Def2QZVP
 --------------------

 ---------
 butadiene
 ---------
 Symbolic Z-matrix:
 Charge =  0 Multiplicity = 1

                         Standard orientation:
 ---------------------------------------------------------------------
 Center     Atomic      Atomic             Coordinates (Angstroms)
 Number     Number       Type             X           Y           Z
 ---------------------------------------------------------------------
      1          6           0       -1.842548    0.130066   -0.043622
      2          6           0       -0.621982   -0.421937    0.042397
      3          6           0        0.598325    0.385820    0.015900
      4          6           0        1.843271   -0.111125   -0.019279
      5          1           0       -2.764685   -0.454679   -0.054478
      6          1           0       -1.894868    1.182200    0.041661
      7          1           0       -0.508930   -1.499419    0.066000
      8          1           0        0.561819    1.498313    0.074662
      9          1           0        2.042329   -1.166883   -0.034644
     10          1           0        2.701941    0.543522   -0.065573
 ---------------------------------------------------------------------

 SCF Done:  E(RB2PLYPD3) =  -155.697195511     A.U. after   11 cycles
 E2(B2PLYPD3) =    -0.2261429891D+00 E(B2PLYPD3) =    -0.15592333850047D+03

 The electronic state is 1-A.
 Alpha  occ. eigenvalues --  -10.62977 -10.62880 -10.61502 -10.61360  -0.92731
 Alpha  occ. eigenvalues --   -0.84916  -0.69922  -0.63990  -0.54582  -0.53984
 Alpha  occ. eigenvalues --   -0.46302  -0.45508  -0.41505  -0.37823  -0.27623
 Alpha virt. eigenvalues --    0.01680   0.07017   0.07440   0.07942   0.09401
 Alpha virt. eigenvalues --    0.11630   0.12526   0.14552   0.15859   0.16314
 Alpha virt. eigenvalues --    0.18774   0.20288   0.21542   0.22534   0.24332

 Mulliken charges:
               1
     1  C   -0.168629
     2  C   -0.040580
     3  C   -0.024232
     4  C   -0.179258
     5  H    0.085730
     6  H    0.069306
     7  H    0.060130
     8  H    0.049405
     9  H    0.064569
    10  H    0.083561
 Sum of Mulliken charges =   0.00000

 Dipole moment (field-independent basis, Debye):
    X=             -0.0150    Y=             -0.0270    Z=              0.0678  Tot=              0.0746
 Quadrupole moment (field-independent basis, Debye-Ang):
   XX=            -23.4541   YY=            -23.0881   ZZ=            -29.3321
   XY=              0.1057   XZ=             -0.1559   YZ=              0.1072

 1\1\GINC-NODE11\SP\RB2PLYPD3-FC\def2QZVP\C4H6\BOITTIER\26-Aug-2020\0\\
 #p B2PLYPD3/Def2QZVP\\butadiene\\0,1\C,0,-3.841516,0.232248,-0.02138\C
 ,0,-2.734521,-0.520473,0.077923\C,0,-1.392984,0.063075,0.032366\C,0,-0
 .252935,-0.642497,0.009197\H,0,-4.850947,-0.18419,-0.018434\H,0,-3.710
 683,1.27927,0.038821\H,0,-2.809489,-1.600407,0.12719\H,0,-1.236239,1.1
 66169,0.064617\H,0,-0.239592,-1.71684,0.019001\H,0,0.705853,-0.14759,-
 0.052555\\Version=ES64L-G09RevD.01\State=1-A\HF=-155.6971955\MP2=-155.
 9233385\RMSD=6.369e-09\PG=C01 [X(C4H6)]\\@

 Normal termination of Gaussian 09 at Wed Aug 26 09:13:14 2020.
