 Gaussian 09, Revision D.01,
 Gaussian 09:  ES64L-G09RevD.01 24-Apr-2013

 --------------------
 #p B2PLYPD3/Def2QZVP
 --------------------

 ---------
 butadiene
 ---------
 Symbolic Z-matrix:
 Charge =  0 Multiplicity = 1

                         Standard orientation:
 ---------------------------------------------------------------------
 Center     Atomic      Atomic             Coordinates (Angstroms)
 Number     Number       Type             X           Y           Z
 ---------------------------------------------------------------------
      1          6           0        1.823890   -0.121226    0.052393
      2          6           0        0.596731    0.426500   -0.055174
      3          6           0       -0.600867   -0.398547   -0.063477
      4          6           0       -1.831402    0.103228    0.035883
      5          1           0        2.749297    0.468799    0.032787
      6          1           0        1.951117   -1.242647    0.020267
      7          1           0        0.559583    1.534678    0.028799
      8          1           0       -0.456532   -1.474294   -0.033004
      9          1           0       -1.981874    1.168787   -0.005374
     10          1           0       -2.751702   -0.515052    0.138779
 ---------------------------------------------------------------------

 SCF Done:  E(RB2PLYPD3) =  -155.694620836     A.U. after   11 cycles
 E2(B2PLYPD3) =    -0.2267951214D+00 E(B2PLYPD3) =    -0.15592141595761D+03

 The electronic state is 1-A.
 Alpha  occ. eigenvalues --  -10.63119 -10.62705 -10.62271 -10.61735  -0.92914
 Alpha  occ. eigenvalues --   -0.84556  -0.69440  -0.63810  -0.54201  -0.53697
 Alpha  occ. eigenvalues --   -0.46239  -0.44632  -0.41325  -0.38136  -0.27564
 Alpha virt. eigenvalues --    0.01678   0.07022   0.07268   0.07876   0.09232
 Alpha virt. eigenvalues --    0.11639   0.12479   0.14328   0.15735   0.16345
 Alpha virt. eigenvalues --    0.18800   0.19719   0.21673   0.23157   0.23703

 Mulliken charges:
               1
     1  C   -0.168705
     2  C   -0.035610
     3  C   -0.030643
     4  C   -0.170931
     5  H    0.082977
     6  H    0.055548
     7  H    0.058259
     8  H    0.060088
     9  H    0.066902
    10  H    0.082115
 Sum of Mulliken charges =   0.00000

 Dipole moment (field-independent basis, Debye):
    X=              0.0012    Y=              0.0261    Z=              0.0773  Tot=              0.0816
 Quadrupole moment (field-independent basis, Debye-Ang):
   XX=            -23.5476   YY=            -23.1345   ZZ=            -29.4159
   XY=              0.0363   XZ=             -0.2460   YZ=             -0.0174

 1\1\GINC-NODE30\SP\RB2PLYPD3-FC\def2QZVP\C4H6\BOITTIER\26-Aug-2020\0\\
 #p B2PLYPD3/Def2QZVP\\butadiene\\0,1\C,0,-3.826484,0.230419,0.070503\C
 ,0,-2.716163,-0.529123,-0.017672\C,0,-1.391137,0.069743,-0.043721\C,0,
 -0.269109,-0.639569,0.073728\H,0,-4.841953,-0.186311,0.063339\H,0,-3.7
 52658,1.355323,0.007696\H,0,-2.87623,-1.623603,0.096269\H,0,-1.342186,
 1.154453,-0.042786\H,0,-0.310224,-1.715639,0.061761\H,0,0.746441,-0.19
 1873,0.163371\\Version=ES64L-G09RevD.01\State=1-A\HF=-155.6946208\MP2=
 -155.921416\RMSD=5.047e-09\PG=C01 [X(C4H6)]\\@

 Normal termination of Gaussian 09 at Wed Aug 26 10:11:11 2020.
