 Gaussian 09, Revision D.01,
 Gaussian 09:  ES64L-G09RevD.01 24-Apr-2013

 --------------------
 #p B2PLYPD3/Def2QZVP
 --------------------

 ---------
 butadiene
 ---------
 Symbolic Z-matrix:
 Charge =  0 Multiplicity = 1

                         Standard orientation:
 ---------------------------------------------------------------------
 Center     Atomic      Atomic             Coordinates (Angstroms)
 Number     Number       Type             X           Y           Z
 ---------------------------------------------------------------------
      1          6           0       -1.820177   -0.116927   -0.051336
      2          6           0       -0.599424    0.428032    0.042030
      3          6           0        0.585145   -0.381036    0.033782
      4          6           0        1.840369    0.078714   -0.025996
      5          1           0       -2.740523    0.423515    0.043191
      6          1           0       -1.914469   -1.218468   -0.053985
      7          1           0       -0.539272    1.502850    0.036385
      8          1           0        0.394543   -1.438251    0.090424
      9          1           0        1.984671    1.190971   -0.069248
     10          1           0        2.779575   -0.513317   -0.037646
 ---------------------------------------------------------------------

 SCF Done:  E(RB2PLYPD3) =  -155.695712408     A.U. after   11 cycles
 E2(B2PLYPD3) =    -0.2264663562D+00 E(B2PLYPD3) =    -0.15592217876416D+03

 The electronic state is 1-A.
 Alpha  occ. eigenvalues --  -10.62524 -10.62462 -10.62289 -10.61732  -0.93345
 Alpha  occ. eigenvalues --   -0.84593  -0.69999  -0.64291  -0.54897  -0.53383
 Alpha  occ. eigenvalues --   -0.46965  -0.44536  -0.41275  -0.38325  -0.27548
 Alpha virt. eigenvalues --    0.01464   0.07016   0.07359   0.08026   0.09578
 Alpha virt. eigenvalues --    0.11598   0.12627   0.14367   0.15773   0.16453
 Alpha virt. eigenvalues --    0.18830   0.19992   0.21718   0.22799   0.23499

 Mulliken charges:
               1
     1  C   -0.165959
     2  C   -0.028299
     3  C   -0.029441
     4  C   -0.170377
     5  H    0.084679
     6  H    0.052647
     7  H    0.058141
     8  H    0.055442
     9  H    0.054833
    10  H    0.088334
 Sum of Mulliken charges =   0.00000

 Dipole moment (field-independent basis, Debye):
    X=             -0.0569    Y=              0.0119    Z=              0.0683  Tot=              0.0897
 Quadrupole moment (field-independent basis, Debye-Ang):
   XX=            -23.2484   YY=            -23.3668   ZZ=            -29.3135
   XY=             -0.0434   XZ=             -0.2713   YZ=             -0.0404

 1\1\GINC-NODE16\SP\RB2PLYPD3-FC\def2QZVP\C4H6\BOITTIER\26-Aug-2020\0\\
 #p B2PLYPD3/Def2QZVP\\butadiene\\0,1\C,0,-3.820939,0.233199,0.063833\C
 ,0,-2.719791,-0.527297,-0.007276\C,0,-1.407815,0.052743,-0.018878\C,0,
 -0.257071,-0.625492,0.060597\H,0,-4.824355,-0.133566,-0.017956\H,0,-3.
 713303,1.333058,0.03198\H,0,-2.856127,-1.594425,0.03189\H,0,-1.403022,
 1.124699,-0.109043\H,0,-0.31742,-1.743543,0.138879\H,0,0.774164,-0.214
 041,0.058036\\Version=ES64L-G09RevD.01\State=1-A\HF=-155.6957124\MP2=-
 155.9221788\RMSD=6.710e-09\PG=C01 [X(C4H6)]\\@

 Normal termination of Gaussian 09 at Wed Aug 26 08:56:09 2020.
