 Gaussian 09, Revision D.01,
 Gaussian 09:  ES64L-G09RevD.01 24-Apr-2013

 --------------------
 #p B2PLYPD3/Def2QZVP
 --------------------

 ---------
 butadiene
 ---------
 Symbolic Z-matrix:
 Charge =  0 Multiplicity = 1

                         Standard orientation:
 ---------------------------------------------------------------------
 Center     Atomic      Atomic             Coordinates (Angstroms)
 Number     Number       Type             X           Y           Z
 ---------------------------------------------------------------------
      1          6           0        1.850997    0.103212   -0.007706
      2          6           0        0.604470   -0.377054    0.020080
      3          6           0       -0.601848    0.392993    0.007379
      4          6           0       -1.836693   -0.126025   -0.032320
      5          1           0        2.686385   -0.574459    0.003687
      6          1           0        2.040789    1.164893   -0.051068
      7          1           0        0.492358   -1.412940    0.056969
      8          1           0       -0.546055    1.491366   -0.008866
      9          1           0       -2.044708   -1.146520   -0.075014
     10          1           0       -2.730324    0.518910    0.149698
 ---------------------------------------------------------------------

 SCF Done:  E(RB2PLYPD3) =  -155.695732094     A.U. after   11 cycles
 E2(B2PLYPD3) =    -0.2256887465D+00 E(B2PLYPD3) =    -0.15592142084065D+03

 The electronic state is 1-A.
 Alpha  occ. eigenvalues --  -10.62609 -10.61895 -10.61510 -10.61445  -0.93284
 Alpha  occ. eigenvalues --   -0.85011  -0.70582  -0.64532  -0.55061  -0.53928
 Alpha  occ. eigenvalues --   -0.46459  -0.45804  -0.41440  -0.38180  -0.27506
 Alpha virt. eigenvalues --    0.01331   0.06923   0.07641   0.07949   0.09850
 Alpha virt. eigenvalues --    0.11709   0.12414   0.14854   0.15762   0.16280
 Alpha virt. eigenvalues --    0.18932   0.20058   0.21872   0.22531   0.23928

 Mulliken charges:
               1
     1  C   -0.177187
     2  C   -0.036154
     3  C   -0.026544
     4  C   -0.173280
     5  H    0.086218
     6  H    0.068913
     7  H    0.060288
     8  H    0.055081
     9  H    0.067102
    10  H    0.075561
 Sum of Mulliken charges =   0.00000

 Dipole moment (field-independent basis, Debye):
    X=              0.0050    Y=             -0.0642    Z=              0.0778  Tot=              0.1010
 Quadrupole moment (field-independent basis, Debye-Ang):
   XX=            -23.4932   YY=            -23.1195   ZZ=            -29.1699
   XY=              0.1351   XZ=             -0.3626   YZ=              0.0443

 1\1\GINC-NODE32\SP\RB2PLYPD3-FC\def2QZVP\C4H6\BOITTIER\26-Aug-2020\0\\
 #p B2PLYPD3/Def2QZVP\\butadiene\\0,1\C,0,-3.853038,0.216913,0.029579\C
 ,0,-2.712062,-0.478238,0.015528\C,0,-1.387928,0.064751,0.002529\C,0,-0
 .264887,-0.664352,0.057165\H,0,-4.795724,-0.301221,0.040542\H,0,-3.850
 614,1.296247,0.039631\H,0,-2.786292,-1.518171,0.011221\H,0,-1.247301,1
 .155479,-0.015835\H,0,-0.241471,-1.703767,0.131806\H,0,0.727981,-0.194
 751,-0.146146\\Version=ES64L-G09RevD.01\State=1-A\HF=-155.6957321\MP2=
 -155.9214208\RMSD=3.681e-09\PG=C01 [X(C4H6)]\\@

 Normal termination of Gaussian 09 at Wed Aug 26 09:28:07 2020.
