 Gaussian 09, Revision D.01,
 Gaussian 09:  ES64L-G09RevD.01 24-Apr-2013

 --------------------
 #p B2PLYPD3/Def2QZVP
 --------------------

 ---------
 butadiene
 ---------
 Symbolic Z-matrix:
 Charge =  0 Multiplicity = 1

                         Standard orientation:
 ---------------------------------------------------------------------
 Center     Atomic      Atomic             Coordinates (Angstroms)
 Number     Number       Type             X           Y           Z
 ---------------------------------------------------------------------
      1          6           0       -1.848930    0.107276   -0.015070
      2          6           0       -0.600441   -0.407982    0.033603
      3          6           0        0.603688    0.383579   -0.010227
      4          6           0        1.857239   -0.099134    0.000515
      5          1           0       -2.756765   -0.521536    0.000154
      6          1           0       -2.029517    1.186022    0.012412
      7          1           0       -0.433769   -1.438557   -0.051389
      8          1           0        0.453288    1.451812   -0.005860
      9          1           0        2.071885   -1.166888   -0.023140
     10          1           0        2.625547    0.586713    0.014895
 ---------------------------------------------------------------------

 SCF Done:  E(RB2PLYPD3) =  -155.695870884     A.U. after   11 cycles
 E2(B2PLYPD3) =    -0.2260613492D+00 E(B2PLYPD3) =    -0.15592193223318D+03

 The electronic state is 1-A.
 Alpha  occ. eigenvalues --  -10.62368 -10.62320 -10.62233 -10.61158  -0.93026
 Alpha  occ. eigenvalues --   -0.84715  -0.70753  -0.64417  -0.54854  -0.53759
 Alpha  occ. eigenvalues --   -0.46962  -0.45821  -0.41340  -0.38002  -0.27425
 Alpha virt. eigenvalues --    0.01275   0.06995   0.07492   0.08184   0.09601
 Alpha virt. eigenvalues --    0.11677   0.12351   0.14824   0.15647   0.16227
 Alpha virt. eigenvalues --    0.18787   0.20200   0.21911   0.22719   0.23952

 Mulliken charges:
               1
     1  C   -0.173364
     2  C   -0.036645
     3  C   -0.025057
     4  C   -0.185701
     5  H    0.082516
     6  H    0.065220
     7  H    0.063037
     8  H    0.050483
     9  H    0.069029
    10  H    0.090482
 Sum of Mulliken charges =   0.00000

 Dipole moment (field-independent basis, Debye):
    X=             -0.0153    Y=              0.0081    Z=             -0.0306  Tot=              0.0352
 Quadrupole moment (field-independent basis, Debye-Ang):
   XX=            -23.4483   YY=            -23.1020   ZZ=            -29.2889
   XY=             -0.2683   XZ=              0.0197   YZ=              0.1337

 1\1\GINC-NODE29\SP\RB2PLYPD3-FC\def2QZVP\C4H6\BOITTIER\26-Aug-2020\0\\
 #p B2PLYPD3/Def2QZVP\\butadiene\\0,1\C,0,-3.850436,0.233222,0.003382\C
 ,0,-2.718448,-0.502624,0.06436\C,0,-1.388965,0.051971,0.006765\C,0,-0.
 246071,-0.653585,0.02918\H,0,-4.858729,-0.21673,0.029625\H,0,-3.828689
 ,1.327094,0.009085\H,0,-2.745095,-1.547736,0.000176\H,0,-1.339538,1.12
 9479,-0.010383\H,0,-0.232307,-1.742868,0.02714\H,0,0.635686,-0.12124,0
 .03117\\Version=ES64L-G09RevD.01\State=1-A\HF=-155.6958709\MP2=-155.92
 19322\RMSD=5.116e-09\PG=C01 [X(C4H6)]\\@

 Normal termination of Gaussian 09 at Wed Aug 26 10:25:32 2020.
