 Gaussian 09, Revision D.01,
 Gaussian 09:  ES64L-G09RevD.01 24-Apr-2013

 --------------------
 #p B2PLYPD3/Def2QZVP
 --------------------

 ---------
 butadiene
 ---------
 Symbolic Z-matrix:
 Charge =  0 Multiplicity = 1

                         Standard orientation:
 ---------------------------------------------------------------------
 Center     Atomic      Atomic             Coordinates (Angstroms)
 Number     Number       Type             X           Y           Z
 ---------------------------------------------------------------------
      1          6           0       -1.861073   -0.101257   -0.050620
      2          6           0       -0.597413    0.391391    0.020232
      3          6           0        0.586604   -0.389506    0.079116
      4          6           0        1.854368    0.088646   -0.042485
      5          1           0       -2.643401    0.532594   -0.068377
      6          1           0       -2.044754   -1.129292   -0.142026
      7          1           0       -0.520044    1.452952    0.272735
      8          1           0        0.358413   -1.414480    0.186704
      9          1           0        2.154247    1.122304   -0.166516
     10          1           0        2.800628   -0.499726   -0.119977
 ---------------------------------------------------------------------

 SCF Done:  E(RB2PLYPD3) =  -155.684107530     A.U. after   11 cycles
 E2(B2PLYPD3) =    -0.2267287310D+00 E(B2PLYPD3) =    -0.15591083626109D+03

 The electronic state is 1-A.
 Alpha  occ. eigenvalues --  -10.62784 -10.62593 -10.62525 -10.60733  -0.93181
 Alpha  occ. eigenvalues --   -0.84500  -0.71790  -0.64479  -0.55827  -0.53444
 Alpha  occ. eigenvalues --   -0.47943  -0.45187  -0.41482  -0.37371  -0.27210
 Alpha virt. eigenvalues --    0.00769   0.07046   0.07599   0.08003   0.09506
 Alpha virt. eigenvalues --    0.11437   0.12619   0.14873   0.15445   0.16503
 Alpha virt. eigenvalues --    0.18990   0.20131   0.22207   0.22433   0.23106

 Mulliken charges:
               1
     1  C   -0.192780
     2  C   -0.019478
     3  C   -0.047691
     4  C   -0.161580
     5  H    0.091602
     6  H    0.065456
     7  H    0.061848
     8  H    0.063555
     9  H    0.065157
    10  H    0.073911
 Sum of Mulliken charges =   0.00000

 Dipole moment (field-independent basis, Debye):
    X=             -0.0077    Y=              0.0126    Z=              0.0241  Tot=              0.0283
 Quadrupole moment (field-independent basis, Debye-Ang):
   XX=            -22.8666   YY=            -23.5643   ZZ=            -29.1278
   XY=              0.5402   XZ=             -0.3590   YZ=              0.1173

 1\1\GINC-NODE11\SP\RB2PLYPD3-FC\def2QZVP\C4H6\BOITTIER\26-Aug-2020\0\\
 #p B2PLYPD3/Def2QZVP\\butadiene\\0,1\C,0,-3.859265,0.233787,0.063441\C
 ,0,-2.71069,-0.488873,0.007789\C,0,-1.400828,0.054277,-0.058653\C,0,-0
 .24584,-0.651416,0.077882\H,0,-4.746877,-0.241238,0.088264\H,0,-3.8464
 77,1.279513,0.135844\H,0,-2.83391,-1.550466,-0.225646\H,0,-1.431976,1.
 101743,-0.185388\H,0,-0.145946,-1.720589,0.221581\H,0,0.794054,-0.2501
 39,0.14994\\Version=ES64L-G09RevD.01\State=1-A\HF=-155.6841075\MP2=-15
 5.9108363\RMSD=8.122e-09\PG=C01 [X(C4H6)]\\@

 Normal termination of Gaussian 09 at Wed Aug 26 11:34:58 2020.
