 Gaussian 09, Revision D.01,
 Gaussian 09:  ES64L-G09RevD.01 24-Apr-2013

 --------------------
 #p B2PLYPD3/Def2QZVP
 --------------------

 ---------
 butadiene
 ---------
 Symbolic Z-matrix:
 Charge =  0 Multiplicity = 1

                         Standard orientation:
 ---------------------------------------------------------------------
 Center     Atomic      Atomic             Coordinates (Angstroms)
 Number     Number       Type             X           Y           Z
 ---------------------------------------------------------------------
      1          6           0        1.832393    0.102461   -0.013354
      2          6           0        0.606338   -0.391419    0.012345
      3          6           0       -0.597498    0.400886    0.035847
      4          6           0       -1.831641   -0.108725   -0.031347
      5          1           0        2.679634   -0.519500   -0.032266
      6          1           0        2.007013    1.163553   -0.024326
      7          1           0        0.462181   -1.444022    0.034726
      8          1           0       -0.490372    1.473250    0.001453
      9          1           0       -1.974059   -1.188148    0.005735
     10          1           0       -2.741952    0.495644   -0.006269
 ---------------------------------------------------------------------

 SCF Done:  E(RB2PLYPD3) =  -155.700238575     A.U. after   11 cycles
 E2(B2PLYPD3) =    -0.2252004946D+00 E(B2PLYPD3) =    -0.15592543906958D+03

 The electronic state is 1-A.
 Alpha  occ. eigenvalues --  -10.62310 -10.61965 -10.61690 -10.60896  -0.93366
 Alpha  occ. eigenvalues --   -0.85122  -0.70415  -0.64427  -0.55002  -0.54098
 Alpha  occ. eigenvalues --   -0.46973  -0.45490  -0.41237  -0.38360  -0.27733
 Alpha virt. eigenvalues --    0.01761   0.07032   0.07508   0.08127   0.09746
 Alpha virt. eigenvalues --    0.11701   0.12566   0.14745   0.15765   0.16363
 Alpha virt. eigenvalues --    0.18809   0.20215   0.21969   0.22864   0.23864

 Mulliken charges:
               1
     1  C   -0.175975
     2  C   -0.027047
     3  C   -0.030325
     4  C   -0.172297
     5  H    0.086885
     6  H    0.064760
     7  H    0.055453
     8  H    0.055056
     9  H    0.059519
    10  H    0.083971
 Sum of Mulliken charges =   0.00000

 Dipole moment (field-independent basis, Debye):
    X=              0.0201    Y=             -0.0045    Z=              0.0167  Tot=              0.0265
 Quadrupole moment (field-independent basis, Debye-Ang):
   XX=            -23.3282   YY=            -23.1857   ZZ=            -29.1454
   XY=              0.0789   XZ=             -0.1117   YZ=             -0.0742

 1\1\GINC-NODE39\SP\RB2PLYPD3-FC\def2QZVP\C4H6\BOITTIER\26-Aug-2020\0\\
 #p B2PLYPD3/Def2QZVP\\butadiene\\0,1\C,0,-3.834596,0.217403,0.034586\C
 ,0,-2.718285,-0.490743,0.021684\C,0,-1.391018,0.069749,-0.019926\C,0,-
 0.269265,-0.653121,0.060422\H,0,-4.780345,-0.240274,0.067787\H,0,-3.81
 4234,1.29253,0.019939\H,0,-2.767111,-1.552281,0.024699\H,0,-1.302152,1
 .144297,-0.011378\H,0,-0.324709,-1.741062,0.049382\H,0,0.735305,-0.224
 305,0.021527\\Version=ES64L-G09RevD.01\State=1-A\HF=-155.7002386\MP2=-
 155.9254391\RMSD=4.610e-09\PG=C01 [X(C4H6)]\\@

 Normal termination of Gaussian 09 at Wed Aug 26 21:50:48 2020.
