 Gaussian 09, Revision D.01,
 Gaussian 09:  ES64L-G09RevD.01 24-Apr-2013

 --------------------
 #p B2PLYPD3/Def2QZVP
 --------------------

 ---------
 butadiene
 ---------
 Symbolic Z-matrix:
 Charge =  0 Multiplicity = 1

                         Standard orientation:
 ---------------------------------------------------------------------
 Center     Atomic      Atomic             Coordinates (Angstroms)
 Number     Number       Type             X           Y           Z
 ---------------------------------------------------------------------
      1          6           0        1.827710    0.117940    0.010179
      2          6           0        0.605016   -0.411924   -0.032938
      3          6           0       -0.597317    0.382099   -0.009589
      4          6           0       -1.825244   -0.103258    0.021895
      5          1           0        2.720938   -0.506129    0.010197
      6          1           0        1.922461    1.225794    0.119872
      7          1           0        0.456242   -1.487291   -0.030803
      8          1           0       -0.463026    1.447430   -0.083678
      9          1           0       -2.014603   -1.152359    0.085145
     10          1           0       -2.683003    0.563415   -0.038018
 ---------------------------------------------------------------------

 SCF Done:  E(RB2PLYPD3) =  -155.699499533     A.U. after   11 cycles
 E2(B2PLYPD3) =    -0.2255343463D+00 E(B2PLYPD3) =    -0.15592503387963D+03

 The electronic state is 1-A.
 Alpha  occ. eigenvalues --  -10.62343 -10.61958 -10.61941 -10.61110  -0.93391
 Alpha  occ. eigenvalues --   -0.85041  -0.69976  -0.64100  -0.54600  -0.53896
 Alpha  occ. eigenvalues --   -0.46713  -0.45470  -0.41081  -0.38370  -0.27758
 Alpha virt. eigenvalues --    0.01857   0.07012   0.07369   0.08041   0.09717
 Alpha virt. eigenvalues --    0.11766   0.12369   0.14750   0.15725   0.16113
 Alpha virt. eigenvalues --    0.18664   0.20400   0.21463   0.22707   0.24098

 Mulliken charges:
               1
     1  C   -0.173443
     2  C   -0.034826
     3  C   -0.018017
     4  C   -0.181089
     5  H    0.088970
     6  H    0.063027
     7  H    0.052955
     8  H    0.052471
     9  H    0.066261
    10  H    0.083690
 Sum of Mulliken charges =   0.00000

 Dipole moment (field-independent basis, Debye):
    X=             -0.0058    Y=             -0.0357    Z=              0.0343  Tot=              0.0498
 Quadrupole moment (field-independent basis, Debye-Ang):
   XX=            -23.6700   YY=            -23.1036   ZZ=            -29.1893
   XY=              0.0330   XZ=              0.2484   YZ=             -0.0580

 1\1\GINC-NODE02\SP\RB2PLYPD3-FC\def2QZVP\C4H6\BOITTIER\26-Aug-2020\0\\
 #p B2PLYPD3/Def2QZVP\\butadiene\\0,1\C,0,-3.826923,0.231953,0.004036\C
 ,0,-2.719991,-0.508652,0.065694\C,0,-1.394046,0.054272,0.025588\C,0,-0
 .27402,-0.645521,0.011506\H,0,-4.818179,-0.220322,0.017383\H,0,-3.7201
 5,1.335353,-0.135457\H,0,-2.7679,-1.592869,0.092731\H,0,-1.333617,1.12
 7938,0.070799\H,0,-0.277342,-1.712883,-0.023101\H,0,0.690119,-0.143345
 ,0.056769\\Version=ES64L-G09RevD.01\State=1-A\HF=-155.6994995\MP2=-155
 .9250339\RMSD=4.746e-09\PG=C01 [X(C4H6)]\\@

 Normal termination of Gaussian 09 at Wed Aug 26 20:06:01 2020.
