 Gaussian 09, Revision D.01,
 Gaussian 09:  ES64L-G09RevD.01 24-Apr-2013

 --------------------
 #p B2PLYPD3/Def2QZVP
 --------------------

 ---------
 butadiene
 ---------
 Symbolic Z-matrix:
 Charge =  0 Multiplicity = 1

                         Standard orientation:
 ---------------------------------------------------------------------
 Center     Atomic      Atomic             Coordinates (Angstroms)
 Number     Number       Type             X           Y           Z
 ---------------------------------------------------------------------
      1          6           0        1.820573    0.089514    0.018104
      2          6           0        0.600597   -0.399545   -0.038306
      3          6           0       -0.587410    0.443411   -0.036216
      4          6           0       -1.805583   -0.139163    0.012846
      5          1           0        2.744980   -0.491075    0.027870
      6          1           0        1.887357    1.202247    0.192144
      7          1           0        0.481466   -1.455283   -0.180238
      8          1           0       -0.510610    1.521641   -0.024483
      9          1           0       -1.966298   -1.203630    0.330599
     10          1           0       -2.805953    0.460800   -0.084460
 ---------------------------------------------------------------------

 SCF Done:  E(RB2PLYPD3) =  -155.685287365     A.U. after   11 cycles
 E2(B2PLYPD3) =    -0.2270034538D+00 E(B2PLYPD3) =    -0.15591229081899D+03

 The electronic state is 1-A.
 Alpha  occ. eigenvalues --  -10.63103 -10.62987 -10.62125 -10.61619  -0.93201
 Alpha  occ. eigenvalues --   -0.84505  -0.68763  -0.64198  -0.54469  -0.53145
 Alpha  occ. eigenvalues --   -0.46643  -0.44085  -0.41228  -0.37899  -0.27552
 Alpha virt. eigenvalues --    0.01686   0.06960   0.07238   0.07807   0.09044
 Alpha virt. eigenvalues --    0.11639   0.12363   0.14323   0.15583   0.16515
 Alpha virt. eigenvalues --    0.18672   0.19642   0.21439   0.22759   0.23476

 Mulliken charges:
               1
     1  C   -0.168526
     2  C   -0.026075
     3  C   -0.045224
     4  C   -0.169741
     5  H    0.087362
     6  H    0.050134
     7  H    0.065025
     8  H    0.068936
     9  H    0.070502
    10  H    0.067606
 Sum of Mulliken charges =   0.00000

 Dipole moment (field-independent basis, Debye):
    X=              0.0188    Y=             -0.0340    Z=              0.1873  Tot=              0.1913
 Quadrupole moment (field-independent basis, Debye-Ang):
   XX=            -23.8429   YY=            -23.2631   ZZ=            -29.2437
   XY=             -0.1337   XZ=             -0.0720   YZ=             -0.0593

 1\1\GINC-NODE13\SP\RB2PLYPD3-FC\def2QZVP\C4H6\BOITTIER\26-Aug-2020\0\\
 #p B2PLYPD3/Def2QZVP\\butadiene\\0,1\C,0,-3.824804,0.196397,-0.002034\
 C,0,-2.710879,-0.499909,0.068891\C,0,-1.392073,0.118284,0.045867\C,0,-
 0.296897,-0.672481,0.013841\H,0,-4.83765,-0.210825,0.00249\H,0,-3.6935
 31,1.298311,-0.205692\H,0,-2.780629,-1.5559,0.239002\H,0,-1.276217,1.1
 9232,0.005363\H,0,-0.32888,-1.756579,-0.275285\H,0,0.79445,-0.257381,0
 .096406\\Version=ES64L-G09RevD.01\State=1-A\HF=-155.6852874\MP2=-155.9
 122908\RMSD=8.778e-09\PG=C01 [X(C4H6)]\\@

 Normal termination of Gaussian 09 at Wed Aug 26 12:59:00 2020.
