 Gaussian 09, Revision D.01,
 Gaussian 09:  ES64L-G09RevD.01 24-Apr-2013

 --------------------
 #p B2PLYPD3/Def2QZVP
 --------------------

 ---------
 butadiene
 ---------
 Symbolic Z-matrix:
 Charge =  0 Multiplicity = 1

                         Standard orientation:
 ---------------------------------------------------------------------
 Center     Atomic      Atomic             Coordinates (Angstroms)
 Number     Number       Type             X           Y           Z
 ---------------------------------------------------------------------
      1          6           0       -1.826409   -0.125401    0.030949
      2          6           0       -0.601496    0.413588   -0.059907
      3          6           0        0.604299   -0.383385   -0.016216
      4          6           0        1.851847    0.096718    0.003554
      5          1           0       -2.777112    0.484055    0.060818
      6          1           0       -1.940586   -1.192798    0.061808
      7          1           0       -0.565673    1.477280   -0.017077
      8          1           0        0.413261   -1.437729   -0.055993
      9          1           0        1.958908    1.170768    0.133105
     10          1           0        2.741752   -0.510697    0.067051
 ---------------------------------------------------------------------

 SCF Done:  E(RB2PLYPD3) =  -155.696249302     A.U. after   11 cycles
 E2(B2PLYPD3) =    -0.2261359476D+00 E(B2PLYPD3) =    -0.15592238524970D+03

 The electronic state is 1-A.
 Alpha  occ. eigenvalues --  -10.62502 -10.62351 -10.62057 -10.61560  -0.93194
 Alpha  occ. eigenvalues --   -0.84809  -0.69986  -0.64575  -0.54530  -0.53889
 Alpha  occ. eigenvalues --   -0.46669  -0.45187  -0.41375  -0.38212  -0.27613
 Alpha virt. eigenvalues --    0.01530   0.06985   0.07528   0.07993   0.09508
 Alpha virt. eigenvalues --    0.11630   0.12605   0.14514   0.15708   0.16400
 Alpha virt. eigenvalues --    0.18767   0.20014   0.21898   0.22801   0.23630

 Mulliken charges:
               1
     1  C   -0.171727
     2  C   -0.027435
     3  C   -0.032439
     4  C   -0.173644
     5  H    0.080048
     6  H    0.061814
     7  H    0.058196
     8  H    0.054831
     9  H    0.062415
    10  H    0.087941
 Sum of Mulliken charges =   0.00000

 Dipole moment (field-independent basis, Debye):
    X=             -0.0734    Y=             -0.0157    Z=              0.1808  Tot=              0.1958
 Quadrupole moment (field-independent basis, Debye-Ang):
   XX=            -23.3854   YY=            -23.2813   ZZ=            -29.2619
   XY=             -0.0899   XZ=              0.1228   YZ=              0.1516

 1\1\GINC-NODE11\SP\RB2PLYPD3-FC\def2QZVP\C4H6\BOITTIER\26-Aug-2020\0\\
 #p B2PLYPD3/Def2QZVP\\butadiene\\0,1\C,0,-3.830833,0.230769,-0.01385\C
 ,0,-2.720115,-0.51423,0.088413\C,0,-1.39264,0.05611,0.028929\C,0,-0.24
 9599,-0.637166,0.019397\H,0,-4.874342,-0.201595,-0.031638\H,0,-3.75474
 8,1.300706,-0.066493\H,0,-2.872906,-1.568159,0.067279\H,0,-1.394283,1.
 128204,0.047145\H,0,-0.334384,-1.71562,-0.088203\H,0,0.733404,-0.19794
 6,-0.056141\\Version=ES64L-G09RevD.01\State=1-A\HF=-155.6962493\MP2=-1
 55.9223852\RMSD=4.718e-09\PG=C01 [X(C4H6)]\\@

 Normal termination of Gaussian 09 at Wed Aug 26 09:21:01 2020.
