 Gaussian 09, Revision D.01,
 Gaussian 09:  ES64L-G09RevD.01 24-Apr-2013

 --------------------
 #p B2PLYPD3/Def2QZVP
 --------------------

 ---------
 butadiene
 ---------
 Symbolic Z-matrix:
 Charge =  0 Multiplicity = 1

                         Standard orientation:
 ---------------------------------------------------------------------
 Center     Atomic      Atomic             Coordinates (Angstroms)
 Number     Number       Type             X           Y           Z
 ---------------------------------------------------------------------
      1          6           0       -1.836172    0.105482   -0.022020
      2          6           0       -0.603812   -0.398261    0.026179
      3          6           0        0.615179    0.442601   -0.001031
      4          6           0        1.840048   -0.126119    0.001573
      5          1           0       -2.700474   -0.585516   -0.037278
      6          1           0       -2.055102    1.143304   -0.009395
      7          1           0       -0.472760   -1.442119    0.038067
      8          1           0        0.433487    1.506727    0.096333
      9          1           0        1.931855   -1.227441   -0.019370
     10          1           0        2.771540    0.462817   -0.096563
 ---------------------------------------------------------------------

 SCF Done:  E(RB2PLYPD3) =  -155.696274990     A.U. after   11 cycles
 E2(B2PLYPD3) =    -0.2261818085D+00 E(B2PLYPD3) =    -0.15592245679817D+03

 The electronic state is 1-A.
 Alpha  occ. eigenvalues --  -10.63071 -10.62339 -10.62243 -10.61369  -0.92628
 Alpha  occ. eigenvalues --   -0.84576  -0.69548  -0.64653  -0.54103  -0.53626
 Alpha  occ. eigenvalues --   -0.46759  -0.45733  -0.41019  -0.37666  -0.27681
 Alpha virt. eigenvalues --    0.01846   0.06966   0.07384   0.08099   0.09100
 Alpha virt. eigenvalues --    0.11696   0.12411   0.14592   0.15548   0.16236
 Alpha virt. eigenvalues --    0.18672   0.20121   0.21838   0.22881   0.24094

 Mulliken charges:
               1
     1  C   -0.177670
     2  C   -0.029995
     3  C   -0.044066
     4  C   -0.170422
     5  H    0.077039
     6  H    0.069442
     7  H    0.062665
     8  H    0.064451
     9  H    0.064578
    10  H    0.083980
 Sum of Mulliken charges =   0.00000

 Dipole moment (field-independent basis, Debye):
    X=              0.0000    Y=              0.0091    Z=             -0.0081  Tot=              0.0122
 Quadrupole moment (field-independent basis, Debye-Ang):
   XX=            -23.7266   YY=            -22.9733   ZZ=            -29.3695
   XY=             -0.2905   XZ=             -0.1745   YZ=              0.0717

 1\1\GINC-NODE11\SP\RB2PLYPD3-FC\def2QZVP\C4H6\BOITTIER\26-Aug-2020\0\\
 #p B2PLYPD3/Def2QZVP\\butadiene\\0,1\C,0,-3.841874,0.216141,-0.000008\
 C,0,-2.719866,-0.499689,0.058944\C,0,-1.369778,0.107774,0.014443\C,0,-
 0.266971,-0.671554,0.029164\H,0,-4.816277,-0.308518,-0.00102\H,0,-3.87
 08,1.276445,-0.009087\H,0,-2.778386,-1.54964,0.092639\H,0,-1.357046,1.
 189001,0.089543\H,0,-0.374535,-1.771647,0.031226\H,0,0.754796,-0.26167
 7,-0.08105\\Version=ES64L-G09RevD.01\State=1-A\HF=-155.696275\MP2=-155
 .9224568\RMSD=5.693e-09\PG=C01 [X(C4H6)]\\@

 Normal termination of Gaussian 09 at Wed Aug 26 08:56:44 2020.
