 Gaussian 09, Revision D.01,
 Gaussian 09:  ES64L-G09RevD.01 24-Apr-2013

 --------------------
 #p B2PLYPD3/Def2QZVP
 --------------------

 ---------
 butadiene
 ---------
 Symbolic Z-matrix:
 Charge =  0 Multiplicity = 1

                         Standard orientation:
 ---------------------------------------------------------------------
 Center     Atomic      Atomic             Coordinates (Angstroms)
 Number     Number       Type             X           Y           Z
 ---------------------------------------------------------------------
      1          6           0       -1.839076    0.115526   -0.021715
      2          6           0       -0.622061   -0.395181    0.045060
      3          6           0        0.604764    0.382343    0.015385
      4          6           0        1.834926   -0.108450   -0.023943
      5          1           0       -2.702687   -0.506296   -0.061736
      6          1           0       -1.983312    1.167401    0.035474
      7          1           0       -0.545259   -1.455631   -0.054832
      8          1           0        0.557812    1.458056   -0.022766
      9          1           0        2.133104   -1.166360    0.033106
     10          1           0        2.669028    0.537403   -0.017973
 ---------------------------------------------------------------------

 SCF Done:  E(RB2PLYPD3) =  -155.697748423     A.U. after   11 cycles
 E2(B2PLYPD3) =    -0.2248156349D+00 E(B2PLYPD3) =    -0.15592256405779D+03

 The electronic state is 1-A.
 Alpha  occ. eigenvalues --  -10.62333 -10.62062 -10.61152 -10.60899  -0.93195
 Alpha  occ. eigenvalues --   -0.85537  -0.70420  -0.64262  -0.55145  -0.54373
 Alpha  occ. eigenvalues --   -0.46882  -0.45392  -0.41055  -0.38266  -0.27963
 Alpha virt. eigenvalues --    0.01917   0.07053   0.07619   0.08034   0.09757
 Alpha virt. eigenvalues --    0.11602   0.12517   0.14888   0.15700   0.16452
 Alpha virt. eigenvalues --    0.18946   0.20104   0.21903   0.22724   0.24090

 Mulliken charges:
               1
     1  C   -0.171453
     2  C   -0.032789
     3  C   -0.035761
     4  C   -0.168262
     5  H    0.084782
     6  H    0.066241
     7  H    0.061705
     8  H    0.055545
     9  H    0.061795
    10  H    0.078196
 Sum of Mulliken charges =   0.00000

 Dipole moment (field-independent basis, Debye):
    X=             -0.0044    Y=              0.0060    Z=             -0.0308  Tot=              0.0316
 Quadrupole moment (field-independent basis, Debye-Ang):
   XX=            -23.2022   YY=            -23.1561   ZZ=            -29.0763
   XY=             -0.0433   XZ=              0.1840   YZ=              0.0896

 1\1\GINC-NODE36\SP\RB2PLYPD3-FC\def2QZVP\C4H6\BOITTIER\26-Aug-2020\0\\
 #p B2PLYPD3/Def2QZVP\\butadiene\\0,1\C,0,-3.839251,0.223605,-0.007081\
 C,0,-2.731667,-0.492511,0.075633\C,0,-1.386701,0.054821,0.030722\C,0,-
 0.262802,-0.646612,0.006921\H,0,-4.799288,-0.236465,-0.034553\H,0,-3.7
 95078,1.285484,0.024164\H,0,-2.843787,-1.551942,0.001707\H,0,-1.242694
 ,1.120626,-0.033636\H,0,-0.156368,-1.738871,0.090478\H,0,0.672394,-0.1
 58509,-0.000318\\Version=ES64L-G09RevD.01\State=1-A\HF=-155.6977484\MP
 2=-155.9225641\RMSD=4.437e-09\PG=C01 [X(C4H6)]\\@

 Normal termination of Gaussian 09 at Wed Aug 26 09:33:18 2020.
