 Gaussian 09, Revision D.01,
 Gaussian 09:  ES64L-G09RevD.01 24-Apr-2013

 --------------------
 #p B2PLYPD3/Def2QZVP
 --------------------

 ---------
 butadiene
 ---------
 Symbolic Z-matrix:
 Charge =  0 Multiplicity = 1

                         Standard orientation:
 ---------------------------------------------------------------------
 Center     Atomic      Atomic             Coordinates (Angstroms)
 Number     Number       Type             X           Y           Z
 ---------------------------------------------------------------------
      1          6           0        1.845597   -0.104177   -0.022278
      2          6           0        0.612576    0.390228    0.016301
      3          6           0       -0.618901   -0.418477    0.016872
      4          6           0       -1.848409    0.122634   -0.013091
      5          1           0        2.709887    0.519904   -0.043668
      6          1           0        2.034366   -1.163679    0.057170
      7          1           0        0.505450    1.474845    0.044516
      8          1           0       -0.493286   -1.467496   -0.014615
      9          1           0       -1.973136    1.206533   -0.007814
     10          1           0       -2.728463   -0.511352   -0.022411
 ---------------------------------------------------------------------

 SCF Done:  E(RB2PLYPD3) =  -155.700065258     A.U. after   11 cycles
 E2(B2PLYPD3) =    -0.2255479890D+00 E(B2PLYPD3) =    -0.15592561324691D+03

 The electronic state is 1-A.
 Alpha  occ. eigenvalues --  -10.62603 -10.62547 -10.61819 -10.61139  -0.92702
 Alpha  occ. eigenvalues --   -0.84991  -0.69994  -0.64313  -0.54586  -0.53979
 Alpha  occ. eigenvalues --   -0.46807  -0.45696  -0.41188  -0.37840  -0.27778
 Alpha virt. eigenvalues --    0.01822   0.07004   0.07489   0.08100   0.09452
 Alpha virt. eigenvalues --    0.11674   0.12451   0.14630   0.15821   0.16236
 Alpha virt. eigenvalues --    0.18861   0.20434   0.21547   0.22965   0.23919

 Mulliken charges:
               1
     1  C   -0.175192
     2  C   -0.027498
     3  C   -0.042786
     4  C   -0.173137
     5  H    0.084590
     6  H    0.062758
     7  H    0.052734
     8  H    0.062840
     9  H    0.068879
    10  H    0.086812
 Sum of Mulliken charges =   0.00000

 Dipole moment (field-independent basis, Debye):
    X=              0.0030    Y=             -0.0204    Z=              0.0388  Tot=              0.0439
 Quadrupole moment (field-independent basis, Debye-Ang):
   XX=            -23.4367   YY=            -23.0607   ZZ=            -29.2812
   XY=             -0.0569   XZ=              0.1102   YZ=             -0.0204

 1\1\GINC-NODE02\SP\RB2PLYPD3-FC\def2QZVP\C4H6\BOITTIER\26-Aug-2020\0\\
 #p B2PLYPD3/Def2QZVP\\butadiene\\0,1\C,0,-3.851766,0.212197,-0.001578\
 C,0,-2.725316,-0.491015,0.051992\C,0,-1.37036,0.087061,0.030549\C,0,-0
 .25591,-0.663409,0.016928\H,0,-4.812789,-0.249699,-0.005905\H,0,-3.850
 07,1.29019,0.047593\H,0,-2.811349,-1.576267,0.11109\H,0,-1.308827,1.14
 0464,-0.030823\H,0,-0.324589,-1.751709,0.053091\H,0,0.722248,-0.195416
 ,-0.009711\\Version=ES64L-G09RevD.01\State=1-A\HF=-155.7000653\MP2=-15
 5.9256132\RMSD=5.896e-09\PG=C01 [X(C4H6)]\\@

 Normal termination of Gaussian 09 at Wed Aug 26 21:34:08 2020.
