 Gaussian 09, Revision D.01,
 Gaussian 09:  ES64L-G09RevD.01 24-Apr-2013

 --------------------
 #p B2PLYPD3/Def2QZVP
 --------------------

 ---------
 butadiene
 ---------
 Symbolic Z-matrix:
 Charge =  0 Multiplicity = 1

                         Standard orientation:
 ---------------------------------------------------------------------
 Center     Atomic      Atomic             Coordinates (Angstroms)
 Number     Number       Type             X           Y           Z
 ---------------------------------------------------------------------
      1          6           0        1.824144   -0.122474   -0.029116
      2          6           0        0.591877    0.430728    0.034622
      3          6           0       -0.581372   -0.397929    0.004312
      4          6           0       -1.826648    0.096358   -0.002214
      5          1           0        2.681779    0.516840   -0.024269
      6          1           0        1.994444   -1.221070   -0.080874
      7          1           0        0.493190    1.500218    0.110954
      8          1           0       -0.463434   -1.443156    0.142486
      9          1           0       -2.033233    1.121595   -0.150420
     10          1           0       -2.720756   -0.514529   -0.043499
 ---------------------------------------------------------------------

 SCF Done:  E(RB2PLYPD3) =  -155.696346625     A.U. after   11 cycles
 E2(B2PLYPD3) =    -0.2261364085D+00 E(B2PLYPD3) =    -0.15592248303374D+03

 The electronic state is 1-A.
 Alpha  occ. eigenvalues --  -10.62602 -10.62176 -10.61898 -10.61085  -0.93191
 Alpha  occ. eigenvalues --   -0.84564  -0.70315  -0.64629  -0.54785  -0.53932
 Alpha  occ. eigenvalues --   -0.46244  -0.45566  -0.41816  -0.38040  -0.27302
 Alpha virt. eigenvalues --    0.01511   0.07086   0.07463   0.08027   0.09283
 Alpha virt. eigenvalues --    0.11680   0.12510   0.14790   0.15715   0.16326
 Alpha virt. eigenvalues --    0.18693   0.20130   0.22020   0.22950   0.23642

 Mulliken charges:
               1
     1  C   -0.175536
     2  C   -0.042215
     3  C   -0.028836
     4  C   -0.175293
     5  H    0.083319
     6  H    0.068148
     7  H    0.064802
     8  H    0.067429
     9  H    0.062976
    10  H    0.075205
 Sum of Mulliken charges =   0.00000

 Dipole moment (field-independent basis, Debye):
    X=              0.0269    Y=              0.0299    Z=             -0.0202  Tot=              0.0450
 Quadrupole moment (field-independent basis, Debye-Ang):
   XX=            -23.6264   YY=            -23.0018   ZZ=            -29.2244
   XY=             -0.2110   XZ=              0.1825   YZ=             -0.1086

 1\1\GINC-NODE40\SP\RB2PLYPD3-FC\def2QZVP\C4H6\BOITTIER\26-Aug-2020\0\\
 #p B2PLYPD3/Def2QZVP\\butadiene\\0,1\C,0,-3.821258,0.241284,-0.007373\
 C,0,-2.711782,-0.527954,0.069526\C,0,-1.406057,0.069279,0.019513\C,0,-
 0.273246,-0.646112,0.024765\H,0,-4.781994,-0.228681,0.012681\H,0,-3.78
 6402,1.350929,-0.085267\H,0,-2.811551,-1.595223,0.171293\H,0,-1.328741
 ,1.121275,0.132768\H,0,-0.259794,-1.695043,-0.098994\H,0,0.71794,-0.21
 1655,-0.031039\\Version=ES64L-G09RevD.01\State=1-A\HF=-155.6963466\MP2
 =-155.922483\RMSD=6.339e-09\PG=C01 [X(C4H6)]\\@

 Normal termination of Gaussian 09 at Wed Aug 26 09:42:55 2020.
