 Gaussian 09, Revision D.01,
 Gaussian 09:  ES64L-G09RevD.01 24-Apr-2013

 --------------------
 #p B2PLYPD3/Def2QZVP
 --------------------

 ---------
 butadiene
 ---------
 Symbolic Z-matrix:
 Charge =  0 Multiplicity = 1

                         Standard orientation:
 ---------------------------------------------------------------------
 Center     Atomic      Atomic             Coordinates (Angstroms)
 Number     Number       Type             X           Y           Z
 ---------------------------------------------------------------------
      1          6           0        1.837054   -0.120323    0.004913
      2          6           0        0.606502    0.416901   -0.022707
      3          6           0       -0.605148   -0.382662   -0.025328
      4          6           0       -1.846915    0.093175    0.016981
      5          1           0        2.748316    0.491577    0.043149
      6          1           0        2.021905   -1.187198    0.080656
      7          1           0        0.457720    1.504133    0.011113
      8          1           0       -0.439811   -1.455685   -0.048083
      9          1           0       -2.008870    1.143406    0.010853
     10          1           0       -2.728219   -0.538774    0.059161
 ---------------------------------------------------------------------

 SCF Done:  E(RB2PLYPD3) =  -155.699794523     A.U. after   11 cycles
 E2(B2PLYPD3) =    -0.2258827472D+00 E(B2PLYPD3) =    -0.15592567727052D+03

 The electronic state is 1-A.
 Alpha  occ. eigenvalues --  -10.62940 -10.62394 -10.61993 -10.61271  -0.92975
 Alpha  occ. eigenvalues --   -0.84812  -0.70300  -0.64080  -0.54716  -0.53699
 Alpha  occ. eigenvalues --   -0.47047  -0.45411  -0.40898  -0.38146  -0.27678
 Alpha virt. eigenvalues --    0.01605   0.06980   0.07401   0.08062   0.09595
 Alpha virt. eigenvalues --    0.11647   0.12509   0.14688   0.15837   0.16177
 Alpha virt. eigenvalues --    0.18825   0.20526   0.21834   0.22866   0.23450

 Mulliken charges:
               1
     1  C   -0.170789
     2  C   -0.036001
     3  C   -0.021173
     4  C   -0.178144
     5  H    0.081455
     6  H    0.066468
     7  H    0.054636
     8  H    0.052269
     9  H    0.063586
    10  H    0.087694
 Sum of Mulliken charges =   0.00000

 Dipole moment (field-independent basis, Debye):
    X=              0.0247    Y=             -0.0062    Z=              0.1127  Tot=              0.1155
 Quadrupole moment (field-independent basis, Debye-Ang):
   XX=            -23.2828   YY=            -23.2391   ZZ=            -29.2839
   XY=             -0.2853   XZ=              0.1271   YZ=             -0.0337

 1\1\GINC-NODE13\SP\RB2PLYPD3-FC\def2QZVP\C4H6\BOITTIER\26-Aug-2020\0\\
 #p B2PLYPD3/Def2QZVP\\butadiene\\0,1\C,0,-3.837464,0.237496,0.027992\C
 ,0,-2.724938,-0.51468,0.01586\C,0,-1.38835,0.051343,-0.007666\C,0,-0.2
 5336,-0.640644,0.048442\H,0,-4.844453,-0.197608,0.082225\H,0,-3.825352
 ,1.321846,0.074551\H,0,-2.775748,-1.60955,0.079352\H,0,-1.35635,1.1355
 47,-0.059723\H,0,-0.284672,-1.702606,0.071004\H,0,0.728147,-0.178233,0
 .074029\\Version=ES64L-G09RevD.01\State=1-A\HF=-155.6997945\MP2=-155.9
 256773\RMSD=4.834e-09\PG=C01 [X(C4H6)]\\@

 Normal termination of Gaussian 09 at Wed Aug 26 18:45:05 2020.
