 Gaussian 09, Revision D.01,
 Gaussian 09:  ES64L-G09RevD.01 24-Apr-2013

 --------------------
 #p B2PLYPD3/Def2QZVP
 --------------------

 ---------
 butadiene
 ---------
 Symbolic Z-matrix:
 Charge =  0 Multiplicity = 1

                         Standard orientation:
 ---------------------------------------------------------------------
 Center     Atomic      Atomic             Coordinates (Angstroms)
 Number     Number       Type             X           Y           Z
 ---------------------------------------------------------------------
      1          6           0        1.865723   -0.089915    0.055771
      2          6           0        0.589729    0.385431   -0.077943
      3          6           0       -0.636764   -0.457104   -0.053667
      4          6           0       -1.853519    0.131205    0.028526
      5          1           0        2.670467    0.584497    0.012843
      6          1           0        2.174222   -1.161806    0.172680
      7          1           0        0.486021    1.518854   -0.207810
      8          1           0       -0.447013   -1.552377   -0.017089
      9          1           0       -1.900624    1.246425    0.393852
     10          1           0       -2.774086   -0.453300   -0.070603
 ---------------------------------------------------------------------

 SCF Done:  E(RB2PLYPD3) =  -155.679026053     A.U. after   11 cycles
 E2(B2PLYPD3) =    -0.2285550120D+00 E(B2PLYPD3) =    -0.15590758106531D+03

 The electronic state is 1-A.
 Alpha  occ. eigenvalues --  -10.63937 -10.63764 -10.63101 -10.62052  -0.91799
 Alpha  occ. eigenvalues --   -0.84032  -0.69513  -0.62791  -0.54223  -0.52443
 Alpha  occ. eigenvalues --   -0.46291  -0.45076  -0.41033  -0.36857  -0.27289
 Alpha virt. eigenvalues --    0.01030   0.06827   0.07106   0.07749   0.08802
 Alpha virt. eigenvalues --    0.11420   0.12139   0.14410   0.15527   0.16310
 Alpha virt. eigenvalues --    0.18804   0.19842   0.21279   0.21851   0.23842

 Mulliken charges:
               1
     1  C   -0.179569
     2  C   -0.036714
     3  C   -0.043958
     4  C   -0.169368
     5  H    0.086194
     6  H    0.062664
     7  H    0.054432
     8  H    0.067075
     9  H    0.069921
    10  H    0.089325
 Sum of Mulliken charges =   0.00000

 Dipole moment (field-independent basis, Debye):
    X=              0.0285    Y=             -0.0892    Z=              0.1727  Tot=              0.1964
 Quadrupole moment (field-independent basis, Debye-Ang):
   XX=            -23.7193   YY=            -23.1855   ZZ=            -29.5387
   XY=             -0.1087   XZ=             -0.1579   YZ=              0.1169

 1\1\GINC-NODE19\SP\RB2PLYPD3-FC\def2QZVP\C4H6\BOITTIER\26-Aug-2020\0\\
 #p B2PLYPD3/Def2QZVP\\butadiene\\0,1\C,0,-3.875797,0.208942,0.075844\C
 ,0,-2.706691,-0.49306,-0.035421\C,0,-1.348545,0.115344,-0.040276\C,0,-
 0.25716,-0.678646,0.068421\H,0,-4.788908,-0.31082,0.056784\H,0,-3.9859
 48,1.322565,0.150003\H,0,-2.809111,-1.63082,-0.120749\H,0,-1.338005,1.
 227464,-0.04694\H,0,-0.409979,-1.769096,0.477029\H,0,0.753133,-0.27361
 2,-0.050619\\Version=ES64L-G09RevD.01\State=1-A\HF=-155.6790261\MP2=-1
 55.9075811\RMSD=6.446e-09\PG=C01 [X(C4H6)]\\@

 Normal termination of Gaussian 09 at Wed Aug 26 15:21:11 2020.
