 Gaussian 09, Revision D.01,
 Gaussian 09:  ES64L-G09RevD.01 24-Apr-2013

 --------------------
 #p B2PLYPD3/Def2QZVP
 --------------------

 ---------
 butadiene
 ---------
 Symbolic Z-matrix:
 Charge =  0 Multiplicity = 1

                         Standard orientation:
 ---------------------------------------------------------------------
 Center     Atomic      Atomic             Coordinates (Angstroms)
 Number     Number       Type             X           Y           Z
 ---------------------------------------------------------------------
      1          6           0        1.852912    0.103217   -0.050737
      2          6           0        0.623281   -0.392361    0.068266
      3          6           0       -0.609985    0.404608    0.027683
      4          6           0       -1.842902   -0.128635   -0.037902
      5          1           0        2.721991   -0.544382   -0.032375
      6          1           0        1.982274    1.207552   -0.046332
      7          1           0        0.465207   -1.424455    0.036125
      8          1           0       -0.565807    1.525911    0.088498
      9          1           0       -1.997164   -1.188648   -0.056497
     10          1           0       -2.746336    0.503044   -0.033276
 ---------------------------------------------------------------------

 SCF Done:  E(RB2PLYPD3) =  -155.695988906     A.U. after   11 cycles
 E2(B2PLYPD3) =    -0.2261377471D+00 E(B2PLYPD3) =    -0.15592212665319D+03

 The electronic state is 1-A.
 Alpha  occ. eigenvalues --  -10.63159 -10.62281 -10.61874 -10.61742  -0.92727
 Alpha  occ. eigenvalues --   -0.84877  -0.69801  -0.64003  -0.54563  -0.53603
 Alpha  occ. eigenvalues --   -0.46553  -0.45400  -0.41033  -0.37902  -0.27808
 Alpha virt. eigenvalues --    0.01701   0.06968   0.07449   0.07934   0.09492
 Alpha virt. eigenvalues --    0.11650   0.12349   0.14502   0.15645   0.16306
 Alpha virt. eigenvalues --    0.18879   0.20016   0.21377   0.22888   0.23929

 Mulliken charges:
               1
     1  C   -0.166861
     2  C   -0.042493
     3  C   -0.025465
     4  C   -0.178501
     5  H    0.087830
     6  H    0.065721
     7  H    0.062970
     8  H    0.048679
     9  H    0.064667
    10  H    0.083453
 Sum of Mulliken charges =   0.00000

 Dipole moment (field-independent basis, Debye):
    X=             -0.0132    Y=             -0.0606    Z=              0.0271  Tot=              0.0677
 Quadrupole moment (field-independent basis, Debye-Ang):
   XX=            -23.4867   YY=            -23.1129   ZZ=            -29.3595
   XY=             -0.0557   XZ=             -0.0361   YZ=              0.1011

 1\1\GINC-NODE13\SP\RB2PLYPD3-FC\def2QZVP\C4H6\BOITTIER\26-Aug-2020\0\\
 #p B2PLYPD3/Def2QZVP\\butadiene\\0,1\C,0,-3.855493,0.212452,0.06873\C,
 0,-2.731517,-0.493919,-0.028576\C,0,-1.378176,0.077131,-0.017506\C,0,-
 0.256546,-0.659634,0.071126\H,0,-4.824097,-0.274161,0.074556\H,0,-3.79
 0714,1.321408,0.020464\H,0,-2.755304,-1.535705,0.044595\H,0,-1.226858,
 1.185741,-0.122669\H,0,-0.289018,-1.728759,0.131859\H,0,0.742996,-0.19
 5568,0.043015\\Version=ES64L-G09RevD.01\State=1-A\HF=-155.6959889\MP2=
 -155.9221267\RMSD=4.630e-09\PG=C01 [X(C4H6)]\\@

 Normal termination of Gaussian 09 at Wed Aug 26 09:26:43 2020.
