 Gaussian 09, Revision D.01,
 Gaussian 09:  ES64L-G09RevD.01 24-Apr-2013

 --------------------
 #p B2PLYPD3/Def2QZVP
 --------------------

 ---------
 butadiene
 ---------
 Symbolic Z-matrix:
 Charge =  0 Multiplicity = 1

                         Standard orientation:
 ---------------------------------------------------------------------
 Center     Atomic      Atomic             Coordinates (Angstroms)
 Number     Number       Type             X           Y           Z
 ---------------------------------------------------------------------
      1          6           0       -1.825916   -0.108469    0.036192
      2          6           0       -0.589191    0.424301   -0.047899
      3          6           0        0.598073   -0.403038   -0.059133
      4          6           0        1.825441    0.100565    0.009064
      5          1           0       -2.761678    0.444072    0.055768
      6          1           0       -1.965684   -1.221091    0.059923
      7          1           0       -0.487940    1.547708    0.034469
      8          1           0        0.454009   -1.481310   -0.030022
      9          1           0        2.017234    1.164959    0.047965
     10          1           0        2.693618   -0.534495    0.202549
 ---------------------------------------------------------------------

 SCF Done:  E(RB2PLYPD3) =  -155.695137412     A.U. after   11 cycles
 E2(B2PLYPD3) =    -0.2266562747D+00 E(B2PLYPD3) =    -0.15592179368709D+03

 The electronic state is 1-A.
 Alpha  occ. eigenvalues --  -10.63300 -10.62590 -10.62186 -10.61474  -0.93023
 Alpha  occ. eigenvalues --   -0.84565  -0.69814  -0.63707  -0.54597  -0.53491
 Alpha  occ. eigenvalues --   -0.46537  -0.44668  -0.41163  -0.38231  -0.27520
 Alpha virt. eigenvalues --    0.01623   0.07039   0.07167   0.07957   0.09320
 Alpha virt. eigenvalues --    0.11595   0.12544   0.14477   0.15742   0.16451
 Alpha virt. eigenvalues --    0.18767   0.19864   0.21984   0.22913   0.23619

 Mulliken charges:
               1
     1  C   -0.169505
     2  C   -0.033389
     3  C   -0.026928
     4  C   -0.167523
     5  H    0.085620
     6  H    0.053869
     7  H    0.054686
     8  H    0.059626
     9  H    0.064302
    10  H    0.079241
 Sum of Mulliken charges =   0.00000

 Dipole moment (field-independent basis, Debye):
    X=             -0.0288    Y=              0.0013    Z=              0.2608  Tot=              0.2624
 Quadrupole moment (field-independent basis, Debye-Ang):
   XX=            -23.5446   YY=            -23.1689   ZZ=            -29.3409
   XY=              0.1908   XZ=              0.3921   YZ=             -0.0301

 1\1\GINC-NODE36\SP\RB2PLYPD3-FC\def2QZVP\C4H6\BOITTIER\26-Aug-2020\0\\
 #p B2PLYPD3/Def2QZVP\\butadiene\\0,1\C,0,-3.828376,0.225802,-0.01962\C
 ,0,-2.709426,-0.52159,0.079174\C,0,-1.390813,0.074424,0.063757\C,0,-0.
 276757,-0.647123,0.009456\H,0,-4.849528,-0.146462,-0.021218\H,0,-3.762
 43,1.344004,-0.077076\H,0,-2.815928,-1.646496,0.030956\H,0,-1.33541,1.
 159499,0.001975\H,0,-0.283159,-1.729318,0.002777\H,0,0.691605,-0.18773
 6,-0.20434\\Version=ES64L-G09RevD.01\State=1-A\HF=-155.6951374\MP2=-15
 5.9217937\RMSD=4.729e-09\PG=C01 [X(C4H6)]\\@

 Normal termination of Gaussian 09 at Wed Aug 26 08:49:03 2020.
