 Gaussian 09, Revision D.01,
 Gaussian 09:  ES64L-G09RevD.01 24-Apr-2013

 --------------------
 #p B2PLYPD3/Def2QZVP
 --------------------

 ---------
 butadiene
 ---------
 Symbolic Z-matrix:
 Charge =  0 Multiplicity = 1

                         Standard orientation:
 ---------------------------------------------------------------------
 Center     Atomic      Atomic             Coordinates (Angstroms)
 Number     Number       Type             X           Y           Z
 ---------------------------------------------------------------------
      1          6           0       -1.834830    0.110803    0.066197
      2          6           0       -0.624420   -0.409934   -0.078585
      3          6           0        0.600157    0.353677   -0.064796
      4          6           0        1.861830   -0.086826    0.040294
      5          1           0       -2.716839   -0.535073    0.153908
      6          1           0       -1.926365    1.243660   -0.093244
      7          1           0       -0.470425   -1.422808   -0.080080
      8          1           0        0.346687    1.402345    0.070548
      9          1           0        2.189627   -1.166625    0.112991
     10          1           0        2.560890    0.672177    0.057217
 ---------------------------------------------------------------------

 SCF Done:  E(RB2PLYPD3) =  -155.683133851     A.U. after   11 cycles
 E2(B2PLYPD3) =    -0.2263273738D+00 E(B2PLYPD3) =    -0.15590946122442D+03

 The electronic state is 1-A.
 Alpha  occ. eigenvalues --  -10.62393 -10.62389 -10.61712 -10.61443  -0.93364
 Alpha  occ. eigenvalues --   -0.85066  -0.70555  -0.64108  -0.54695  -0.53310
 Alpha  occ. eigenvalues --   -0.47075  -0.45788  -0.40520  -0.38105  -0.27735
 Alpha virt. eigenvalues --    0.01405   0.06970   0.07366   0.08226   0.09583
 Alpha virt. eigenvalues --    0.11643   0.12212   0.14765   0.15402   0.16096
 Alpha virt. eigenvalues --    0.18588   0.19658   0.21357   0.22885   0.24734

 Mulliken charges:
               1
     1  C   -0.173632
     2  C   -0.029440
     3  C   -0.027063
     4  C   -0.187387
     5  H    0.088100
     6  H    0.062287
     7  H    0.056782
     8  H    0.046432
     9  H    0.074605
    10  H    0.089315
 Sum of Mulliken charges =   0.00000

 Dipole moment (field-independent basis, Debye):
    X=             -0.0337    Y=             -0.1103    Z=              0.0986  Tot=              0.1517
 Quadrupole moment (field-independent basis, Debye-Ang):
   XX=            -23.7326   YY=            -23.1999   ZZ=            -29.1928
   XY=             -0.1839   XZ=              0.1948   YZ=             -0.1672

 1\1\GINC-NODE10\SP\RB2PLYPD3-FC\def2QZVP\C4H6\BOITTIER\26-Aug-2020\0\\
 #p B2PLYPD3/Def2QZVP\\butadiene\\0,1\C,0,-3.833374,0.241721,0.083682\C
 ,0,-2.741721,-0.500211,-0.039011\C,0,-1.396104,0.02148,-0.044858\C,0,-
 0.238634,-0.643072,0.079798\H,0,-4.820273,-0.224983,0.188596\H,0,-3.71
 2141,1.365931,-0.112839\H,0,-2.779505,-1.523528,-0.006972\H,0,-1.44911
 ,1.102881,0.055298\H,0,-0.118021,-1.762113,0.188896\H,0,0.589849,-0.02
 7728,0.075018\\Version=ES64L-G09RevD.01\State=1-A\HF=-155.6831339\MP2=
 -155.9094612\RMSD=5.230e-09\PG=C01 [X(C4H6)]\\@

 Normal termination of Gaussian 09 at Wed Aug 26 14:58:20 2020.
