 Gaussian 09, Revision D.01,
 Gaussian 09:  ES64L-G09RevD.01 24-Apr-2013

 --------------------
 #p B2PLYPD3/Def2QZVP
 --------------------

 ---------
 butadiene
 ---------
 Symbolic Z-matrix:
 Charge =  0 Multiplicity = 1

                         Standard orientation:
 ---------------------------------------------------------------------
 Center     Atomic      Atomic             Coordinates (Angstroms)
 Number     Number       Type             X           Y           Z
 ---------------------------------------------------------------------
      1          6           0        1.819512   -0.133189    0.012705
      2          6           0        0.597462    0.454594   -0.074150
      3          6           0       -0.587785   -0.387014   -0.096118
      4          6           0       -1.812876    0.080325    0.072555
      5          1           0        2.832569    0.405951    0.251711
      6          1           0        1.825831   -1.308103    0.184625
      7          1           0        0.532436    1.566141   -0.108876
      8          1           0       -0.561393   -1.445552   -0.025494
      9          1           0       -2.025596    1.182268    0.196845
     10          1           0       -2.701728   -0.489000    0.011241
 ---------------------------------------------------------------------

 SCF Done:  E(RB2PLYPD3) =  -155.675601593     A.U. after   12 cycles
 E2(B2PLYPD3) =    -0.2279510867D+00 E(B2PLYPD3) =    -0.15590355267957D+03

 The electronic state is 1-A.
 Alpha  occ. eigenvalues --  -10.63838 -10.63699 -10.62296 -10.61382  -0.93107
 Alpha  occ. eigenvalues --   -0.84437  -0.68803  -0.63876  -0.54191  -0.53446
 Alpha  occ. eigenvalues --   -0.46089  -0.43314  -0.41215  -0.38141  -0.27594
 Alpha virt. eigenvalues --    0.01502   0.06855   0.07146   0.07690   0.09071
 Alpha virt. eigenvalues --    0.11419   0.12521   0.13979   0.15539   0.16916
 Alpha virt. eigenvalues --    0.18729   0.19053   0.21842   0.22556   0.23398

 Mulliken charges:
               1
     1  C   -0.152893
     2  C   -0.042492
     3  C   -0.027547
     4  C   -0.163376
     5  H    0.076838
     6  H    0.046856
     7  H    0.068482
     8  H    0.065131
     9  H    0.045980
    10  H    0.083020
 Sum of Mulliken charges =   0.00000

 Dipole moment (field-independent basis, Debye):
    X=             -0.1147    Y=              0.0394    Z=              0.3225  Tot=              0.3445
 Quadrupole moment (field-independent basis, Debye-Ang):
   XX=            -23.7677   YY=            -23.2832   ZZ=            -29.3985
   XY=              0.3603   XZ=              0.6419   YZ=             -0.0448

 1\1\GINC-NODE35\SP\RB2PLYPD3-FC\def2QZVP\C4H6\BOITTIER\26-Aug-2020\0\\
 #p B2PLYPD3/Def2QZVP\\butadiene\\0,1\C,0,-3.817074,0.238071,0.05164\C,
 0,-2.718359,-0.556999,-0.032781\C,0,-1.403391,0.062005,-0.068705\C,0,-
 0.279019,-0.61231,0.10098\H,0,-4.907999,-0.111276,0.300476\H,0,-3.6151
 06,1.397447,0.209995\H,0,-2.850602,-1.66289,-0.054894\H,0,-1.24227,1.1
 0929,-0.010223\H,0,-0.263309,-1.733097,0.237234\H,0,0.695961,-0.20943,
 0.029918\\Version=ES64L-G09RevD.01\State=1-A\HF=-155.6756016\MP2=-155.
 9035527\RMSD=3.658e-09\PG=C01 [X(C4H6)]\\@

 Normal termination of Gaussian 09 at Wed Aug 26 11:17:16 2020.
