 Gaussian 09, Revision D.01,
 Gaussian 09:  ES64L-G09RevD.01 24-Apr-2013

 --------------------
 #p B2PLYPD3/Def2QZVP
 --------------------

 ---------
 butadiene
 ---------
 Symbolic Z-matrix:
 Charge =  0 Multiplicity = 1

                         Standard orientation:
 ---------------------------------------------------------------------
 Center     Atomic      Atomic             Coordinates (Angstroms)
 Number     Number       Type             X           Y           Z
 ---------------------------------------------------------------------
      1          6           0       -1.829282    0.121082   -0.024317
      2          6           0       -0.595253   -0.417633    0.011416
      3          6           0        0.597942    0.373916    0.036151
      4          6           0        1.832866   -0.105790   -0.044909
      5          1           0       -2.751792   -0.480928   -0.010553
      6          1           0       -1.882516    1.224358   -0.090032
      7          1           0       -0.481780   -1.474650    0.128141
      8          1           0        0.437008    1.435413    0.131900
      9          1           0        2.008610   -1.134215   -0.034106
     10          1           0        2.632831    0.600569    0.004608
 ---------------------------------------------------------------------

 SCF Done:  E(RB2PLYPD3) =  -155.696745471     A.U. after   11 cycles
 E2(B2PLYPD3) =    -0.2258207220D+00 E(B2PLYPD3) =    -0.15592256619273D+03

 The electronic state is 1-A.
 Alpha  occ. eigenvalues --  -10.62247 -10.62124 -10.61970 -10.60733  -0.93452
 Alpha  occ. eigenvalues --   -0.84938  -0.70249  -0.64404  -0.54510  -0.54277
 Alpha  occ. eigenvalues --   -0.46508  -0.45829  -0.41643  -0.38063  -0.27545
 Alpha virt. eigenvalues --    0.01603   0.07039   0.07474   0.08033   0.09686
 Alpha virt. eigenvalues --    0.11769   0.12431   0.14771   0.15761   0.16054
 Alpha virt. eigenvalues --    0.18618   0.20297   0.21493   0.22722   0.24307

 Mulliken charges:
               1
     1  C   -0.179855
     2  C   -0.030001
     3  C   -0.021834
     4  C   -0.182761
     5  H    0.089616
     6  H    0.061226
     7  H    0.055809
     8  H    0.050023
     9  H    0.072362
    10  H    0.085416
 Sum of Mulliken charges =   0.00000

 Dipole moment (field-independent basis, Debye):
    X=             -0.0169    Y=             -0.0368    Z=              0.1507  Tot=              0.1560
 Quadrupole moment (field-independent basis, Debye-Ang):
   XX=            -23.7547   YY=            -23.0707   ZZ=            -29.1868
   XY=              0.0384   XZ=              0.1230   YZ=             -0.0723

 1\1\GINC-NODE34\SP\RB2PLYPD3-FC\def2QZVP\C4H6\BOITTIER\26-Aug-2020\0\\
 #p B2PLYPD3/Def2QZVP\\butadiene\\0,1\C,0,-3.829809,0.235639,-0.006303\
 C,0,-2.712919,-0.514917,0.053204\C,0,-1.396539,0.049015,0.051721\C,0,-
 0.26859,-0.64807,-0.007692\H,0,-4.845634,-0.18933,0.027334\H,0,-3.6836
 3,1.327202,-0.113497\H,0,-2.791312,-1.569959,0.209813\H,0,-1.363196,1.
 124961,0.10713\H,0,-0.280992,-1.690193,0.042179\H,0,0.645745,-0.096084
 ,0.017637\\Version=ES64L-G09RevD.01\State=1-A\HF=-155.6967455\MP2=-155
 .9225662\RMSD=5.430e-09\PG=C01 [X(C4H6)]\\@

 Normal termination of Gaussian 09 at Wed Aug 26 10:45:41 2020.
