 Gaussian 09, Revision D.01,
 Gaussian 09:  ES64L-G09RevD.01 24-Apr-2013

 --------------------
 #p B2PLYPD3/Def2QZVP
 --------------------

 ---------
 butadiene
 ---------
 Symbolic Z-matrix:
 Charge =  0 Multiplicity = 1

                         Standard orientation:
 ---------------------------------------------------------------------
 Center     Atomic      Atomic             Coordinates (Angstroms)
 Number     Number       Type             X           Y           Z
 ---------------------------------------------------------------------
      1          6           0       -1.808902   -0.144250    0.021547
      2          6           0       -0.617255    0.446640   -0.060151
      3          6           0        0.598951   -0.402880   -0.092559
      4          6           0        1.820663    0.095895    0.019498
      5          1           0       -2.710823    0.427253    0.206882
      6          1           0       -1.867498   -1.223755    0.053537
      7          1           0       -0.625241    1.546584   -0.003904
      8          1           0        0.435516   -1.410692    0.109786
      9          1           0        1.971805    1.167431    0.138744
     10          1           0        2.835493   -0.479249    0.164944
 ---------------------------------------------------------------------

 SCF Done:  E(RB2PLYPD3) =  -155.684512218     A.U. after   11 cycles
 E2(B2PLYPD3) =    -0.2263895507D+00 E(B2PLYPD3) =    -0.15591090176897D+03

 The electronic state is 1-A.
 Alpha  occ. eigenvalues --  -10.62900 -10.62469 -10.62330 -10.61289  -0.93023
 Alpha  occ. eigenvalues --   -0.84935  -0.68889  -0.64620  -0.54631  -0.53348
 Alpha  occ. eigenvalues --   -0.46682  -0.44639  -0.40991  -0.37807  -0.27939
 Alpha virt. eigenvalues --    0.02119   0.06989   0.07387   0.07872   0.08843
 Alpha virt. eigenvalues --    0.11621   0.12585   0.14173   0.15421   0.16723
 Alpha virt. eigenvalues --    0.18760   0.19746   0.21504   0.23494   0.23903

 Mulliken charges:
               1
     1  C   -0.168784
     2  C   -0.035357
     3  C   -0.040771
     4  C   -0.156886
     5  H    0.079865
     6  H    0.059936
     7  H    0.059853
     8  H    0.072552
     9  H    0.059610
    10  H    0.069981
 Sum of Mulliken charges =   0.00000

 Dipole moment (field-independent basis, Debye):
    X=             -0.0390    Y=              0.0596    Z=              0.4993  Tot=              0.5043
 Quadrupole moment (field-independent basis, Debye-Ang):
   XX=            -23.6960   YY=            -23.2319   ZZ=            -29.2036
   XY=              0.0199   XZ=              0.1053   YZ=             -0.0246

 1\1\GINC-NODE19\SP\RB2PLYPD3-FC\def2QZVP\C4H6\BOITTIER\26-Aug-2020\0\\
 #p B2PLYPD3/Def2QZVP\\butadiene\\0,1\C,0,-3.808256,0.237619,-0.015405\
 C,0,-2.736158,-0.547012,0.088564\C,0,-1.39126,0.079998,0.089253\C,0,-0
 .274862,-0.626331,-0.003848\H,0,-4.79653,-0.175757,-0.179298\H,0,-3.67
 9618,1.309062,-0.08787\H,0,-2.934468,-1.630319,0.073611\H,0,-1.379353,
 1.09271,-0.150773\H,0,-0.311932,-1.711525,-0.082799\H,0,0.823148,-0.24
 1124,-0.170624\\Version=ES64L-G09RevD.01\State=1-A\HF=-155.6845122\MP2
 =-155.9109018\RMSD=7.467e-09\PG=C01 [X(C4H6)]\\@

 Normal termination of Gaussian 09 at Wed Aug 26 15:53:38 2020.
