 Gaussian 09, Revision D.01,
 Gaussian 09:  ES64L-G09RevD.01 24-Apr-2013

 --------------------
 #p B2PLYPD3/Def2QZVP
 --------------------

 ---------
 butadiene
 ---------
 Symbolic Z-matrix:
 Charge =  0 Multiplicity = 1

                         Standard orientation:
 ---------------------------------------------------------------------
 Center     Atomic      Atomic             Coordinates (Angstroms)
 Number     Number       Type             X           Y           Z
 ---------------------------------------------------------------------
      1          6           0       -1.844621    0.110700   -0.050524
      2          6           0       -0.641619   -0.387647    0.031946
      3          6           0        0.599699    0.393031    0.053840
      4          6           0        1.853604   -0.122128   -0.053985
      5          1           0       -2.727485   -0.533536    0.166522
      6          1           0       -1.998420    1.144714   -0.191408
      7          1           0       -0.551135   -1.421497    0.002508
      8          1           0        0.592539    1.468885    0.156550
      9          1           0        2.223633   -1.172584   -0.020267
     10          1           0        2.658486    0.550280   -0.001568
 ---------------------------------------------------------------------

 SCF Done:  E(RB2PLYPD3) =  -155.687120571     A.U. after   11 cycles
 E2(B2PLYPD3) =    -0.2256120642D+00 E(B2PLYPD3) =    -0.15591273263537D+03

 The electronic state is 1-A.
 Alpha  occ. eigenvalues --  -10.63109 -10.61832 -10.61682 -10.61047  -0.92943
 Alpha  occ. eigenvalues --   -0.85261  -0.70209  -0.64527  -0.54726  -0.54047
 Alpha  occ. eigenvalues --   -0.46665  -0.45711  -0.41196  -0.37572  -0.27770
 Alpha virt. eigenvalues --    0.01502   0.06950   0.07671   0.07969   0.09569
 Alpha virt. eigenvalues --    0.11506   0.12494   0.14719   0.15646   0.16441
 Alpha virt. eigenvalues --    0.19214   0.19777   0.21558   0.22438   0.24190

 Mulliken charges:
               1
     1  C   -0.169349
     2  C   -0.029400
     3  C   -0.054392
     4  C   -0.168981
     5  H    0.080664
     6  H    0.067666
     7  H    0.072733
     8  H    0.061794
     9  H    0.066379
    10  H    0.072886
 Sum of Mulliken charges =   0.00000

 Dipole moment (field-independent basis, Debye):
    X=              0.0466    Y=              0.0058    Z=              0.1591  Tot=              0.1659
 Quadrupole moment (field-independent basis, Debye-Ang):
   XX=            -23.3547   YY=            -23.1523   ZZ=            -29.1160
   XY=             -0.1838   XZ=             -0.0731   YZ=             -0.1208

 1\1\GINC-NODE32\SP\RB2PLYPD3-FC\def2QZVP\C4H6\BOITTIER\26-Aug-2020\0\\
 #p B2PLYPD3/Def2QZVP\\butadiene\\0,1\C,0,-3.845119,0.216326,-0.029141\
 C,0,-2.747796,-0.482287,0.071786\C,0,-1.388713,0.068798,0.068884\C,0,-
 0.245104,-0.66168,-0.019735\H,0,-4.826274,-0.25537,0.208422\H,0,-3.815
 837,1.255959,-0.20519\H,0,-2.84017,-1.516373,0.07752\H,0,-1.206603,1.1
 32056,0.135069\H,0,-0.06489,-1.759026,0.050056\H,0,0.665464,-0.139532,
 0.010949\\Version=ES64L-G09RevD.01\State=1-A\HF=-155.6871206\MP2=-155.
 9127326\RMSD=8.253e-09\PG=C01 [X(C4H6)]\\@

 Normal termination of Gaussian 09 at Wed Aug 26 15:18:56 2020.
