 Gaussian 09, Revision D.01,
 Gaussian 09:  ES64L-G09RevD.01 24-Apr-2013

 --------------------
 #p B2PLYPD3/Def2QZVP
 --------------------

 ---------
 butadiene
 ---------
 Symbolic Z-matrix:
 Charge =  0 Multiplicity = 1

                         Standard orientation:
 ---------------------------------------------------------------------
 Center     Atomic      Atomic             Coordinates (Angstroms)
 Number     Number       Type             X           Y           Z
 ---------------------------------------------------------------------
      1          6           0       -1.835780   -0.088192    0.030998
      2          6           0       -0.615135    0.381600   -0.107252
      3          6           0        0.618837   -0.467065   -0.062241
      4          6           0        1.817969    0.146004    0.070766
      5          1           0       -2.703963    0.499983    0.309705
      6          1           0       -1.922084   -1.139407    0.097331
      7          1           0       -0.363383    1.486686   -0.038307
      8          1           0        0.579111   -1.539826   -0.127374
      9          1           0        1.804819    1.284173   -0.051077
     10          1           0        2.690159   -0.425697    0.216091
 ---------------------------------------------------------------------

 SCF Done:  E(RB2PLYPD3) =  -155.685684210     A.U. after   11 cycles
 E2(B2PLYPD3) =    -0.2267121061D+00 E(B2PLYPD3) =    -0.15591239631586D+03

 The electronic state is 1-A.
 Alpha  occ. eigenvalues --  -10.63173 -10.63051 -10.62070 -10.60888  -0.92619
 Alpha  occ. eigenvalues --   -0.85039  -0.69180  -0.63835  -0.54944  -0.53343
 Alpha  occ. eigenvalues --   -0.46536  -0.45126  -0.41088  -0.37595  -0.27834
 Alpha virt. eigenvalues --    0.02090   0.06993   0.07252   0.08120   0.08794
 Alpha virt. eigenvalues --    0.11669   0.12691   0.14165   0.15557   0.16287
 Alpha virt. eigenvalues --    0.18775   0.20062   0.21043   0.23286   0.24041

 Mulliken charges:
               1
     1  C   -0.164040
     2  C   -0.016659
     3  C   -0.049834
     4  C   -0.178246
     5  H    0.084825
     6  H    0.061149
     7  H    0.045755
     8  H    0.061371
     9  H    0.063931
    10  H    0.091748
 Sum of Mulliken charges =   0.00000

 Dipole moment (field-independent basis, Debye):
    X=              0.0761    Y=             -0.1284    Z=              0.2685  Tot=              0.3072
 Quadrupole moment (field-independent basis, Debye-Ang):
   XX=            -23.9947   YY=            -23.1200   ZZ=            -29.2139
   XY=             -0.1846   XZ=             -0.6466   YZ=              0.0171

 1\1\GINC-NODE26\SP\RB2PLYPD3-FC\def2QZVP\C4H6\BOITTIER\26-Aug-2020\0\\
 #p B2PLYPD3/Def2QZVP\\butadiene\\0,1\C,0,-3.843458,0.188852,-0.028528\
 C,0,-2.724199,-0.484287,0.126176\C,0,-1.360826,0.135142,0.076515\C,0,-
 0.286576,-0.679948,-0.037845\H,0,-4.799768,-0.243495,-0.304058\H,0,-3.
 744614,1.237707,-0.112409\H,0,-2.668951,-1.617365,0.076875\H,0,-1.2129
 33,1.199333,0.124073\H,0,-0.49877,-1.796104,0.102211\H,0,0.672659,-0.2
 71782,-0.185986\\Version=ES64L-G09RevD.01\State=1-A\HF=-155.6856842\MP
 2=-155.9123963\RMSD=9.119e-09\PG=C01 [X(C4H6)]\\@

 Normal termination of Gaussian 09 at Wed Aug 26 13:36:33 2020.
