 Gaussian 09, Revision D.01,
 Gaussian 09:  ES64L-G09RevD.01 24-Apr-2013

 --------------------
 #p B2PLYPD3/Def2QZVP
 --------------------

 ---------
 butadiene
 ---------
 Symbolic Z-matrix:
 Charge =  0 Multiplicity = 1

                         Standard orientation:
 ---------------------------------------------------------------------
 Center     Atomic      Atomic             Coordinates (Angstroms)
 Number     Number       Type             X           Y           Z
 ---------------------------------------------------------------------
      1          6           0        1.817450   -0.115367    0.019860
      2          6           0        0.605828    0.406456   -0.046820
      3          6           0       -0.584613   -0.390018   -0.046496
      4          6           0       -1.834389    0.100069    0.005935
      5          1           0        2.674115    0.494743    0.131165
      6          1           0        1.896646   -1.189810    0.012659
      7          1           0        0.521191    1.502300   -0.007667
      8          1           0       -0.432668   -1.471668    0.060681
      9          1           0       -2.009425    1.181905    0.103009
     10          1           0       -2.675515   -0.524307    0.105275
 ---------------------------------------------------------------------

 SCF Done:  E(RB2PLYPD3) =  -155.697310196     A.U. after   11 cycles
 E2(B2PLYPD3) =    -0.2257231339D+00 E(B2PLYPD3) =    -0.15592303332978D+03

 The electronic state is 1-A.
 Alpha  occ. eigenvalues --  -10.62609 -10.62137 -10.61437 -10.60929  -0.93461
 Alpha  occ. eigenvalues --   -0.85102  -0.70417  -0.63815  -0.55135  -0.54006
 Alpha  occ. eigenvalues --   -0.46624  -0.45411  -0.41472  -0.38366  -0.27583
 Alpha virt. eigenvalues --    0.01668   0.07118   0.07296   0.08079   0.09652
 Alpha virt. eigenvalues --    0.11753   0.12553   0.14732   0.15733   0.16321
 Alpha virt. eigenvalues --    0.18699   0.20216   0.21677   0.23145   0.23983

 Mulliken charges:
               1
     1  C   -0.177441
     2  C   -0.015390
     3  C   -0.032303
     4  C   -0.175846
     5  H    0.090042
     6  H    0.062583
     7  H    0.048502
     8  H    0.050237
     9  H    0.062631
    10  H    0.086986
 Sum of Mulliken charges =   0.00000

 Dipole moment (field-independent basis, Debye):
    X=              0.0493    Y=              0.0129    Z=              0.3124  Tot=              0.3166
 Quadrupole moment (field-independent basis, Debye-Ang):
   XX=            -23.6351   YY=            -23.1340   ZZ=            -29.1439
   XY=              0.0766   XZ=             -0.1471   YZ=              0.0434

 1\1\GINC-NODE04\SP\RB2PLYPD3-FC\def2QZVP\C4H6\BOITTIER\26-Aug-2020\0\\
 #p B2PLYPD3/Def2QZVP\\butadiene\\0,1\C,0,-3.817875,0.22874,0.043091\C,
 0,-2.721111,-0.505866,-0.00419\C,0,-1.405977,0.061209,-0.023409\C,0,-0
 .265686,-0.645596,0.04756\H,0,-4.770738,-0.212363,0.169499\H,0,-3.7009
 35,1.299042,0.003974\H,0,-2.836514,-1.597246,0.067514\H,0,-1.359032,1.
 155169,0.051349\H,0,-0.289527,-1.737885,0.177044\H,0,0.674925,-0.18142
 4,0.131232\\Version=ES64L-G09RevD.01\State=1-A\HF=-155.6973102\MP2=-15
 5.9230333\RMSD=5.097e-09\PG=C01 [X(C4H6)]\\@

 Normal termination of Gaussian 09 at Wed Aug 26 09:34:43 2020.
