 Gaussian 09, Revision D.01,
 Gaussian 09:  ES64L-G09RevD.01 24-Apr-2013

 --------------------
 #p B2PLYPD3/Def2QZVP
 --------------------

 ---------
 butadiene
 ---------
 Symbolic Z-matrix:
 Charge =  0 Multiplicity = 1

                         Standard orientation:
 ---------------------------------------------------------------------
 Center     Atomic      Atomic             Coordinates (Angstroms)
 Number     Number       Type             X           Y           Z
 ---------------------------------------------------------------------
      1          6           0        1.809763    0.107920   -0.056730
      2          6           0        0.579347   -0.380878    0.029547
      3          6           0       -0.601633    0.420212    0.112431
      4          6           0       -1.790405   -0.144363   -0.106475
      5          1           0        2.690277   -0.577392   -0.115878
      6          1           0        1.863742    1.174217   -0.104989
      7          1           0        0.498165   -1.453561    0.273221
      8          1           0       -0.491745    1.526593    0.160344
      9          1           0       -1.949288   -1.279602    0.006489
     10          1           0       -2.593581    0.592396   -0.091827
 ---------------------------------------------------------------------

 SCF Done:  E(RB2PLYPD3) =  -155.681996837     A.U. after   12 cycles
 E2(B2PLYPD3) =    -0.2271973513D+00 E(B2PLYPD3) =    -0.15590919418790D+03

 The electronic state is 1-A.
 Alpha  occ. eigenvalues --  -10.62623 -10.62218 -10.61917 -10.61260  -0.93637
 Alpha  occ. eigenvalues --   -0.84956  -0.69213  -0.63398  -0.54272  -0.53270
 Alpha  occ. eigenvalues --   -0.46126  -0.44749  -0.41641  -0.37741  -0.27639
 Alpha virt. eigenvalues --    0.01827   0.06852   0.07061   0.07860   0.09290
 Alpha virt. eigenvalues --    0.11772   0.12104   0.14577   0.15242   0.16248
 Alpha virt. eigenvalues --    0.18353   0.19302   0.21432   0.22497   0.24663

 Mulliken charges:
               1
     1  C   -0.193086
     2  C   -0.006018
     3  C   -0.046668
     4  C   -0.160777
     5  H    0.088779
     6  H    0.063333
     7  H    0.054274
     8  H    0.051030
     9  H    0.074556
    10  H    0.074577
 Sum of Mulliken charges =   0.00000

 Dipole moment (field-independent basis, Debye):
    X=             -0.0326    Y=              0.0265    Z=              0.2204  Tot=              0.2244
 Quadrupole moment (field-independent basis, Debye-Ang):
   XX=            -24.6075   YY=            -22.8048   ZZ=            -29.2476
   XY=             -0.2467   XZ=             -0.1859   YZ=             -0.2703

 1\1\GINC-NODE26\SP\RB2PLYPD3-FC\def2QZVP\C4H6\BOITTIER\26-Aug-2020\0\\
 #p B2PLYPD3/Def2QZVP\\butadiene\\0,1\C,0,-3.814514,0.213667,0.077901\C
 ,0,-2.690923,-0.487311,-0.002497\C,0,-1.386581,0.08975,-0.097466\C,0,-
 0.316455,-0.674232,0.128379\H,0,-4.80267,-0.303238,0.147288\H,0,-3.677
 851,1.273119,0.111315\H,0,-2.802587,-1.560542,-0.231238\H,0,-1.298118,
 1.19728,-0.160731\H,0,-0.362358,-1.821059,0.031148\H,0,0.604888,-0.092
 345,0.102829\\Version=ES64L-G09RevD.01\State=1-A\HF=-155.6819968\MP2=-
 155.9091942\RMSD=2.919e-09\PG=C01 [X(C4H6)]\\@

 Normal termination of Gaussian 09 at Wed Aug 26 13:01:24 2020.
