 Gaussian 09, Revision D.01,
 Gaussian 09:  ES64L-G09RevD.01 24-Apr-2013

 --------------------
 #p B2PLYPD3/Def2QZVP
 --------------------

 ---------
 butadiene
 ---------
 Symbolic Z-matrix:
 Charge =  0 Multiplicity = 1

                         Standard orientation:
 ---------------------------------------------------------------------
 Center     Atomic      Atomic             Coordinates (Angstroms)
 Number     Number       Type             X           Y           Z
 ---------------------------------------------------------------------
      1          6           0        1.843379    0.076503   -0.012023
      2          6           0        0.585142   -0.409803    0.038287
      3          6           0       -0.615910    0.485824    0.017482
      4          6           0       -1.808262   -0.151125   -0.045366
      5          1           0        2.720167   -0.543950    0.005134
      6          1           0        2.039097    1.193040   -0.329075
      7          1           0        0.299848   -1.415393    0.171321
      8          1           0       -0.542093    1.525044    0.334951
      9          1           0       -1.856241   -1.221803   -0.127119
     10          1           0       -2.686877    0.454663   -0.045498
 ---------------------------------------------------------------------

 SCF Done:  E(RB2PLYPD3) =  -155.682033105     A.U. after   12 cycles
 E2(B2PLYPD3) =    -0.2273896050D+00 E(B2PLYPD3) =    -0.15590942271026D+03

 The electronic state is 1-A.
 Alpha  occ. eigenvalues --  -10.62988 -10.62850 -10.62392 -10.61602  -0.92440
 Alpha  occ. eigenvalues --   -0.84183  -0.69326  -0.64501  -0.54328  -0.53114
 Alpha  occ. eigenvalues --   -0.46958  -0.45453  -0.40755  -0.36986  -0.27570
 Alpha virt. eigenvalues --    0.01795   0.07129   0.07259   0.07521   0.08670
 Alpha virt. eigenvalues --    0.11700   0.12325   0.14533   0.15065   0.16225
 Alpha virt. eigenvalues --    0.18566   0.19788   0.21573   0.23102   0.23638

 Mulliken charges:
               1
     1  C   -0.175821
     2  C   -0.046021
     3  C   -0.040976
     4  C   -0.183259
     5  H    0.083180
     6  H    0.061852
     7  H    0.066238
     8  H    0.079763
     9  H    0.070805
    10  H    0.084239
 Sum of Mulliken charges =   0.00000

 Dipole moment (field-independent basis, Debye):
    X=             -0.1717    Y=             -0.0696    Z=              0.0728  Tot=              0.1991
 Quadrupole moment (field-independent basis, Debye-Ang):
   XX=            -24.0531   YY=            -23.0793   ZZ=            -29.2478
   XY=              0.1730   XZ=             -0.4195   YZ=             -0.0206

 1\1\GINC-NODE30\SP\RB2PLYPD3-FC\def2QZVP\C4H6\BOITTIER\26-Aug-2020\0\\
 #p B2PLYPD3/Def2QZVP\\butadiene\\0,1\C,0,-3.849746,0.199465,0.038006\C
 ,0,-2.702681,-0.511189,0.0006\C,0,-1.35749,0.148647,-0.012924\C,0,-0.3
 01793,-0.694142,0.068123\H,0,-4.82565,-0.249509,0.044767\H,0,-3.834233
 ,1.342835,0.317193\H,0,-2.608074,-1.555929,-0.09875\H,0,-1.242221,1.17
 2632,-0.3656\H,0,-0.450417,-1.752095,0.186378\H,0,0.673058,-0.260475,0
 .044844\\Version=ES64L-G09RevD.01\State=1-A\HF=-155.6820331\MP2=-155.9
 094227\RMSD=4.326e-09\PG=C01 [X(C4H6)]\\@

 Normal termination of Gaussian 09 at Wed Aug 26 15:04:10 2020.
