 Gaussian 09, Revision D.01,
 Gaussian 09:  ES64L-G09RevD.01 24-Apr-2013

 --------------------
 #p B2PLYPD3/Def2QZVP
 --------------------

 ---------
 butadiene
 ---------
 Symbolic Z-matrix:
 Charge =  0 Multiplicity = 1

                         Standard orientation:
 ---------------------------------------------------------------------
 Center     Atomic      Atomic             Coordinates (Angstroms)
 Number     Number       Type             X           Y           Z
 ---------------------------------------------------------------------
      1          6           0       -1.846326    0.100223    0.029677
      2          6           0       -0.616947   -0.332561   -0.065851
      3          6           0        0.612266    0.421041   -0.119059
      4          6           0        1.844427   -0.146146    0.045684
      5          1           0       -2.597804   -0.686700    0.155278
      6          1           0       -2.139750    1.113326    0.195629
      7          1           0       -0.608266   -1.430804   -0.032470
      8          1           0        0.599687    1.579954    0.028180
      9          1           0        1.970712   -1.267361    0.085755
     10          1           0        2.814899    0.436242    0.224925
 ---------------------------------------------------------------------

 SCF Done:  E(RB2PLYPD3) =  -155.680143368     A.U. after   12 cycles
 E2(B2PLYPD3) =    -0.2275226180D+00 E(B2PLYPD3) =    -0.15590766598552D+03

 The electronic state is 1-A.
 Alpha  occ. eigenvalues --  -10.64119 -10.63531 -10.62325 -10.60921  -0.92980
 Alpha  occ. eigenvalues --   -0.84932  -0.69619  -0.62936  -0.54432  -0.53514
 Alpha  occ. eigenvalues --   -0.45907  -0.44379  -0.40461  -0.38288  -0.27802
 Alpha virt. eigenvalues --    0.01287   0.06830   0.07113   0.07589   0.09686
 Alpha virt. eigenvalues --    0.11347   0.12273   0.14519   0.15615   0.16470
 Alpha virt. eigenvalues --    0.18786   0.19658   0.21160   0.22412   0.24269

 Mulliken charges:
               1
     1  C   -0.164566
     2  C   -0.012343
     3  C   -0.040978
     4  C   -0.161067
     5  H    0.070627
     6  H    0.067545
     7  H    0.043901
     8  H    0.053461
     9  H    0.062222
    10  H    0.081198
 Sum of Mulliken charges =   0.00000

 Dipole moment (field-independent basis, Debye):
    X=              0.1060    Y=             -0.0490    Z=              0.4713  Tot=              0.4856
 Quadrupole moment (field-independent basis, Debye-Ang):
   XX=            -23.6693   YY=            -23.2463   ZZ=            -29.3457
   XY=              0.1029   XZ=              0.0866   YZ=              0.2224

 1\1\GINC-NODE25\SP\RB2PLYPD3-FC\def2QZVP\C4H6\BOITTIER\26-Aug-2020\0\\
 #p B2PLYPD3/Def2QZVP\\butadiene\\0,1\C,0,-3.854389,0.195683,0.060772\C
 ,0,-2.717049,-0.442808,-0.020382\C,0,-1.377531,0.088461,-0.092196\C,0,
 -0.259608,-0.675678,0.090559\H,0,-4.728635,-0.447838,0.206776\H,0,-3.9
 70357,1.248178,0.19796\H,0,-2.895593,-1.525105,0.043517\H,0,-1.191966,
 1.236184,0.022762\H,0,-0.326166,-1.800464,0.162005\H,0,0.796443,-0.262
 506,0.255375\\Version=ES64L-G09RevD.01\State=1-A\HF=-155.6801434\MP2=-
 155.907666\RMSD=3.682e-09\PG=C01 [X(C4H6)]\\@

 Normal termination of Gaussian 09 at Wed Aug 26 11:33:34 2020.
