 Gaussian 09, Revision D.01,
 Gaussian 09:  ES64L-G09RevD.01 24-Apr-2013

 --------------------
 #p B2PLYPD3/Def2QZVP
 --------------------

 ---------
 butadiene
 ---------
 Symbolic Z-matrix:
 Charge =  0 Multiplicity = 1

                         Standard orientation:
 ---------------------------------------------------------------------
 Center     Atomic      Atomic             Coordinates (Angstroms)
 Number     Number       Type             X           Y           Z
 ---------------------------------------------------------------------
      1          6           0        1.832764   -0.108078    0.023267
      2          6           0        0.589712    0.403039   -0.025469
      3          6           0       -0.598993   -0.395391   -0.014002
      4          6           0       -1.836054    0.098174    0.016308
      5          1           0        2.709899    0.516324   -0.016071
      6          1           0        2.019334   -1.155994    0.033318
      7          1           0        0.476386    1.474520   -0.040881
      8          1           0       -0.411374   -1.463880   -0.015090
      9          1           0       -2.020442    1.161347    0.082507
     10          1           0       -2.698373   -0.518785   -0.044407
 ---------------------------------------------------------------------

 SCF Done:  E(RB2PLYPD3) =  -155.700286105     A.U. after   11 cycles
 E2(B2PLYPD3) =    -0.2256038356D+00 E(B2PLYPD3) =    -0.15592588994040D+03

 The electronic state is 1-A.
 Alpha  occ. eigenvalues --  -10.62366 -10.62298 -10.61386 -10.61283  -0.93303
 Alpha  occ. eigenvalues --   -0.84845  -0.70762  -0.64351  -0.55003  -0.53993
 Alpha  occ. eigenvalues --   -0.46818  -0.45787  -0.41369  -0.38268  -0.27458
 Alpha virt. eigenvalues --    0.01481   0.07034   0.07465   0.08138   0.09714
 Alpha virt. eigenvalues --    0.11701   0.12540   0.14877   0.15931   0.16135
 Alpha virt. eigenvalues --    0.18828   0.20595   0.21825   0.22839   0.23646

 Mulliken charges:
               1
     1  C   -0.178363
     2  C   -0.025972
     3  C   -0.028464
     4  C   -0.176363
     5  H    0.083029
     6  H    0.064333
     7  H    0.055330
     8  H    0.054232
     9  H    0.065090
    10  H    0.087147
 Sum of Mulliken charges =   0.00000

 Dipole moment (field-independent basis, Debye):
    X=              0.0046    Y=             -0.0011    Z=             -0.0276  Tot=              0.0280
 Quadrupole moment (field-independent basis, Debye-Ang):
   XX=            -23.3239   YY=            -23.1755   ZZ=            -29.1924
   XY=             -0.2882   XZ=             -0.0220   YZ=              0.0529

 1\1\GINC-NODE28\SP\RB2PLYPD3-FC\def2QZVP\C4H6\BOITTIER\26-Aug-2020\0\\
 #p B2PLYPD3/Def2QZVP\\butadiene\\0,1\C,0,-3.83457,0.231101,0.04016\C,0
 ,-2.707834,-0.502648,0.010628\C,0,-1.391818,0.061807,-0.000836\C,0,-0.
 267425,-0.651071,0.048061\H,0,-4.812289,-0.221011,0.018888\H,0,-3.8238
 53,1.29522,0.016193\H,0,-2.794911,-1.57652,0.029827\H,0,-1.378364,1.14
 5971,-0.036598\H,0,-0.282827,-1.727336,0.148723\H,0,0.693982,-0.206719
 ,-0.030463\\Version=ES64L-G09RevD.01\State=1-A\HF=-155.7002861\MP2=-15
 5.9258899\RMSD=4.976e-09\PG=C01 [X(C4H6)]\\@

 Normal termination of Gaussian 09 at Wed Aug 26 21:59:19 2020.
