 Gaussian 09, Revision D.01,
 Gaussian 09:  ES64L-G09RevD.01 24-Apr-2013

 --------------------
 #p B2PLYPD3/Def2QZVP
 --------------------

 ---------
 butadiene
 ---------
 Symbolic Z-matrix:
 Charge =  0 Multiplicity = 1

                         Standard orientation:
 ---------------------------------------------------------------------
 Center     Atomic      Atomic             Coordinates (Angstroms)
 Number     Number       Type             X           Y           Z
 ---------------------------------------------------------------------
      1          6           0        1.850516    0.164860    0.032182
      2          6           0        0.643732   -0.439765   -0.021046
      3          6           0       -0.634931    0.336458   -0.085177
      4          6           0       -1.862139   -0.088530   -0.005488
      5          1           0        2.677455   -0.470354    0.114095
      6          1           0        1.975897    1.217719   -0.065263
      7          1           0        0.615983   -1.527491   -0.008046
      8          1           0       -0.484295    1.487730    0.130816
      9          1           0       -2.006727   -1.101962    0.097738
     10          1           0       -2.761384    0.556222    0.207837
 ---------------------------------------------------------------------

 SCF Done:  E(RB2PLYPD3) =  -155.681578944     A.U. after   11 cycles
 E2(B2PLYPD3) =    -0.2260732502D+00 E(B2PLYPD3) =    -0.15590765219424D+03

 The electronic state is 1-A.
 Alpha  occ. eigenvalues --  -10.63407 -10.63251 -10.61391 -10.60911  -0.92485
 Alpha  occ. eigenvalues --   -0.85689  -0.69855  -0.63375  -0.55000  -0.53597
 Alpha  occ. eigenvalues --   -0.46887  -0.45843  -0.39868  -0.37631  -0.28296
 Alpha virt. eigenvalues --    0.01846   0.06932   0.07329   0.07920   0.09262
 Alpha virt. eigenvalues --    0.11625   0.12441   0.14516   0.15405   0.16451
 Alpha virt. eigenvalues --    0.18950   0.19789   0.21663   0.23169   0.23765

 Mulliken charges:
               1
     1  C   -0.172354
     2  C   -0.057930
     3  C   -0.010055
     4  C   -0.162441
     5  H    0.087395
     6  H    0.079870
     7  H    0.054792
     8  H    0.038172
     9  H    0.060623
    10  H    0.081927
 Sum of Mulliken charges =   0.00000

 Dipole moment (field-independent basis, Debye):
    X=              0.1016    Y=             -0.1231    Z=              0.3411  Tot=              0.3766
 Quadrupole moment (field-independent basis, Debye-Ang):
   XX=            -23.4039   YY=            -23.2965   ZZ=            -29.1803
   XY=              0.0068   XZ=             -0.7364   YZ=              0.0662

 1\1\GINC-NODE13\SP\RB2PLYPD3-FC\def2QZVP\C4H6\BOITTIER\26-Aug-2020\0\\
 #p B2PLYPD3/Def2QZVP\\butadiene\\0,1\C,0,-3.848764,0.257737,-0.016442\
 C,0,-2.759419,-0.537483,0.058943\C,0,-1.368369,0.015736,0.082247\C,0,-
 0.230451,-0.611831,0.016613\H,0,-4.771123,-0.233024,-0.065865\H,0,-3.7
 95307,1.31998,0.033666\H,0,-2.913953,-1.614001,0.095197\H,0,-1.327085,
 1.165338,-0.185113\H,0,-0.258454,-1.638712,-0.041143\H,0,0.761284,-0.1
 36778,-0.229642\\Version=ES64L-G09RevD.01\State=1-A\HF=-155.6815789\MP
 2=-155.9076522\RMSD=6.777e-09\PG=C01 [X(C4H6)]\\@

 Normal termination of Gaussian 09 at Wed Aug 26 12:38:39 2020.
