 Gaussian 09, Revision D.01,
 Gaussian 09:  ES64L-G09RevD.01 24-Apr-2013

 --------------------
 #p B2PLYPD3/Def2QZVP
 --------------------

 ---------
 butadiene
 ---------
 Symbolic Z-matrix:
 Charge =  0 Multiplicity = 1

                         Standard orientation:
 ---------------------------------------------------------------------
 Center     Atomic      Atomic             Coordinates (Angstroms)
 Number     Number       Type             X           Y           Z
 ---------------------------------------------------------------------
      1          6           0        1.836294   -0.137808    0.038567
      2          6           0        0.602675    0.444335   -0.052263
      3          6           0       -0.597083   -0.383840   -0.048592
      4          6           0       -1.843161    0.080946    0.006607
      5          1           0        2.733876    0.524242    0.032577
      6          1           0        1.950515   -1.222339    0.056246
      7          1           0        0.436209    1.495279    0.045796
      8          1           0       -0.388456   -1.446866   -0.026987
      9          1           0       -1.983268    1.173591    0.072025
     10          1           0       -2.741224   -0.545700    0.154432
 ---------------------------------------------------------------------

 SCF Done:  E(RB2PLYPD3) =  -155.694105226     A.U. after   11 cycles
 E2(B2PLYPD3) =    -0.2270280985D+00 E(B2PLYPD3) =    -0.15592113332475D+03

 The electronic state is 1-A.
 Alpha  occ. eigenvalues --  -10.62976 -10.62640 -10.62415 -10.61845  -0.92854
 Alpha  occ. eigenvalues --   -0.84291  -0.69729  -0.64348  -0.54058  -0.53374
 Alpha  occ. eigenvalues --   -0.46779  -0.45373  -0.41070  -0.37913  -0.27446
 Alpha virt. eigenvalues --    0.01402   0.06973   0.07273   0.08076   0.09201
 Alpha virt. eigenvalues --    0.11727   0.12377   0.14550   0.15564   0.16155
 Alpha virt. eigenvalues --    0.18645   0.19927   0.21739   0.23156   0.23671

 Mulliken charges:
               1
     1  C   -0.178535
     2  C   -0.042061
     3  C   -0.018898
     4  C   -0.173125
     5  H    0.083902
     6  H    0.073886
     7  H    0.063094
     8  H    0.050863
     9  H    0.055122
    10  H    0.085753
 Sum of Mulliken charges =   0.00000

 Dipole moment (field-independent basis, Debye):
    X=              0.0559    Y=             -0.0042    Z=              0.2385  Tot=              0.2450
 Quadrupole moment (field-independent basis, Debye-Ang):
   XX=            -23.8188   YY=            -23.0948   ZZ=            -29.4276
   XY=             -0.1864   XZ=             -0.3837   YZ=              0.0172

 1\1\GINC-NODE34\SP\RB2PLYPD3-FC\def2QZVP\C4H6\BOITTIER\26-Aug-2020\0\\
 #p B2PLYPD3/Def2QZVP\\butadiene\\0,1\C,0,-3.832081,0.257056,0.056445\C
 ,0,-2.725609,-0.542992,-0.011359\C,0,-1.394736,0.051891,-0.025468\C,0,
 -0.254531,-0.630833,0.049379\H,0,-4.835513,-0.229822,0.064981\H,0,-3.7
 46232,1.344253,0.042323\H,0,-2.753922,-1.603341,0.117749\H,0,-1.405632
 ,1.13531,-0.035524\H,0,-0.316388,-1.728303,0.146928\H,0,0.742948,-0.17
 4691,0.183639\\Version=ES64L-G09RevD.01\State=1-A\HF=-155.6941052\MP2=
 -155.9211333\RMSD=6.255e-09\PG=C01 [X(C4H6)]\\@

 Normal termination of Gaussian 09 at Wed Aug 26 08:40:12 2020.
