 Gaussian 09, Revision D.01,
 Gaussian 09:  ES64L-G09RevD.01 24-Apr-2013

 --------------------
 #p B2PLYPD3/Def2QZVP
 --------------------

 ---------
 butadiene
 ---------
 Symbolic Z-matrix:
 Charge =  0 Multiplicity = 1

                         Standard orientation:
 ---------------------------------------------------------------------
 Center     Atomic      Atomic             Coordinates (Angstroms)
 Number     Number       Type             X           Y           Z
 ---------------------------------------------------------------------
      1          6           0        1.830993    0.089518   -0.081179
      2          6           0        0.613048   -0.424198    0.114517
      3          6           0       -0.609443    0.446146    0.070626
      4          6           0       -1.838959   -0.129169   -0.044490
      5          1           0        2.693358   -0.507066   -0.090810
      6          1           0        1.991670    1.219477    0.000730
      7          1           0        0.385751   -1.502831   -0.074314
      8          1           0       -0.426047    1.565597    0.008581
      9          1           0       -1.975731   -1.201087   -0.026803
     10          1           0       -2.642834    0.532121   -0.174232
 ---------------------------------------------------------------------

 SCF Done:  E(RB2PLYPD3) =  -155.684444500     A.U. after   12 cycles
 E2(B2PLYPD3) =    -0.2275479344D+00 E(B2PLYPD3) =    -0.15591199243471D+03

 The electronic state is 1-A.
 Alpha  occ. eigenvalues --  -10.63776 -10.63221 -10.61883 -10.61547  -0.92120
 Alpha  occ. eigenvalues --   -0.84544  -0.69613  -0.63196  -0.54487  -0.53199
 Alpha  occ. eigenvalues --   -0.46336  -0.45569  -0.40636  -0.37416  -0.27677
 Alpha virt. eigenvalues --    0.01728   0.06907   0.07183   0.08168   0.08418
 Alpha virt. eigenvalues --    0.11698   0.12326   0.14535   0.15243   0.16222
 Alpha virt. eigenvalues --    0.18767   0.19361   0.21775   0.23521   0.24188

 Mulliken charges:
               1
     1  C   -0.166020
     2  C   -0.033518
     3  C   -0.039171
     4  C   -0.182936
     5  H    0.086936
     6  H    0.056836
     7  H    0.058530
     8  H    0.054230
     9  H    0.075565
    10  H    0.089549
 Sum of Mulliken charges =   0.00000

 Dipole moment (field-independent basis, Debye):
    X=              0.0268    Y=             -0.0069    Z=             -0.2020  Tot=              0.2039
 Quadrupole moment (field-independent basis, Debye-Ang):
   XX=            -23.9310   YY=            -22.9316   ZZ=            -29.4855
   XY=              0.3417   XZ=              0.2520   YZ=              0.1051

 1\1\GINC-NODE23\SP\RB2PLYPD3-FC\def2QZVP\C4H6\BOITTIER\26-Aug-2020\0\\
 #p B2PLYPD3/Def2QZVP\\butadiene\\0,1\C,0,-3.834987,0.216613,0.101319\C
 ,0,-2.733464,-0.520547,-0.068488\C,0,-1.371153,0.110174,-0.054083\C,0,
 -0.268658,-0.677182,0.089178\H,0,-4.792649,-0.209627,0.131025\H,0,-3.7
 84508,1.352616,-0.026283\H,0,-2.708657,-1.614172,0.16419\H,0,-1.344491
 ,1.24581,-0.037526\H,0,-0.332226,-1.755759,0.114847\H,0,0.643905,-0.17
 1029,0.195901\\Version=ES64L-G09RevD.01\State=1-A\HF=-155.6844445\MP2=
 -155.9119924\RMSD=3.348e-09\PG=C01 [X(C4H6)]\\@

 Normal termination of Gaussian 09 at Wed Aug 26 15:30:44 2020.
