 Gaussian 09, Revision D.01,
 Gaussian 09:  ES64L-G09RevD.01 24-Apr-2013

 --------------------
 #p B2PLYPD3/Def2QZVP
 --------------------

 ---------
 butadiene
 ---------
 Symbolic Z-matrix:
 Charge =  0 Multiplicity = 1

                         Standard orientation:
 ---------------------------------------------------------------------
 Center     Atomic      Atomic             Coordinates (Angstroms)
 Number     Number       Type             X           Y           Z
 ---------------------------------------------------------------------
      1          6           0       -1.840530    0.102160   -0.000632
      2          6           0       -0.612415   -0.389230   -0.032726
      3          6           0        0.601151    0.402486   -0.012187
      4          6           0        1.844913   -0.116816    0.011427
      5          1           0       -2.704106   -0.546706    0.084742
      6          1           0       -1.993228    1.171923    0.035993
      7          1           0       -0.442771   -1.465210    0.041077
      8          1           0        0.452508    1.477523    0.002927
      9          1           0        2.028971   -1.159736   -0.000118
     10          1           0        2.699913    0.530607    0.040088
 ---------------------------------------------------------------------

 SCF Done:  E(RB2PLYPD3) =  -155.700181212     A.U. after   11 cycles
 E2(B2PLYPD3) =    -0.2256218869D+00 E(B2PLYPD3) =    -0.15592580309908D+03

 The electronic state is 1-A.
 Alpha  occ. eigenvalues --  -10.62657 -10.62284 -10.61423 -10.61386  -0.93065
 Alpha  occ. eigenvalues --   -0.84978  -0.70479  -0.64068  -0.54666  -0.54025
 Alpha  occ. eigenvalues --   -0.46829  -0.45993  -0.40970  -0.38150  -0.27682
 Alpha virt. eigenvalues --    0.01625   0.07013   0.07430   0.08105   0.09667
 Alpha virt. eigenvalues --    0.11731   0.12436   0.14845   0.15762   0.16097
 Alpha virt. eigenvalues --    0.18791   0.20456   0.21691   0.23045   0.23757

 Mulliken charges:
               1
     1  C   -0.176130
     2  C   -0.021407
     3  C   -0.032540
     4  C   -0.180670
     5  H    0.087552
     6  H    0.064296
     7  H    0.050559
     8  H    0.052044
     9  H    0.070249
    10  H    0.086047
 Sum of Mulliken charges =   0.00000

 Dipole moment (field-independent basis, Debye):
    X=              0.0114    Y=             -0.0087    Z=              0.1550  Tot=              0.1556
 Quadrupole moment (field-independent basis, Debye-Ang):
   XX=            -23.4721   YY=            -23.1357   ZZ=            -29.2296
   XY=             -0.2291   XZ=             -0.2498   YZ=             -0.0418

 1\1\GINC-NODE24\SP\RB2PLYPD3-FC\def2QZVP\C4H6\BOITTIER\26-Aug-2020\0\\
 #p B2PLYPD3/Def2QZVP\\butadiene\\0,1\C,0,-3.842692,0.219838,0.024808\C
 ,0,-2.724347,-0.487139,0.009049\C,0,-1.387165,0.07133,0.003253\C,0,-0.
 258161,-0.6641,0.044099\H,0,-4.80914,-0.258314,0.131708\H,0,-3.798517,
 1.300162,0.025862\H,0,-2.752319,-1.57304,0.118569\H,0,-1.338174,1.1553
 97,-0.017367\H,0,-0.266475,-1.722916,0.067219\H,0,0.700281,-0.182083,0
 .051219\\Version=ES64L-G09RevD.01\State=1-A\HF=-155.7001812\MP2=-155.9
 258031\RMSD=5.431e-09\PG=C01 [X(C4H6)]\\@

 Normal termination of Gaussian 09 at Wed Aug 26 16:37:16 2020.
