 Gaussian 09, Revision D.01,
 Gaussian 09:  ES64L-G09RevD.01 24-Apr-2013

 --------------------
 #p B2PLYPD3/Def2QZVP
 --------------------

 ---------
 butadiene
 ---------
 Symbolic Z-matrix:
 Charge =  0 Multiplicity = 1

                         Standard orientation:
 ---------------------------------------------------------------------
 Center     Atomic      Atomic             Coordinates (Angstroms)
 Number     Number       Type             X           Y           Z
 ---------------------------------------------------------------------
      1          6           0        1.840648    0.093076    0.025475
      2          6           0        0.601658   -0.374456   -0.077717
      3          6           0       -0.610252    0.418661   -0.040080
      4          6           0       -1.832587   -0.128737    0.027491
      5          1           0        2.698239   -0.570767    0.133941
      6          1           0        1.973386    1.181425    0.088598
      7          1           0        0.462584   -1.446040    0.039008
      8          1           0       -0.440890    1.515772   -0.033834
      9          1           0       -1.915206   -1.213388    0.038430
     10          1           0       -2.774909    0.481736    0.122839
 ---------------------------------------------------------------------

 SCF Done:  E(RB2PLYPD3) =  -155.695766644     A.U. after   11 cycles
 E2(B2PLYPD3) =    -0.2264917801D+00 E(B2PLYPD3) =    -0.15592225842457D+03

 The electronic state is 1-A.
 Alpha  occ. eigenvalues --  -10.62993 -10.62311 -10.62261 -10.61679  -0.93120
 Alpha  occ. eigenvalues --   -0.84804  -0.69724  -0.63713  -0.54324  -0.53526
 Alpha  occ. eigenvalues --   -0.46791  -0.45073  -0.40875  -0.38233  -0.27737
 Alpha virt. eigenvalues --    0.01648   0.06992   0.07262   0.07946   0.09519
 Alpha virt. eigenvalues --    0.11691   0.12420   0.14510   0.15525   0.16174
 Alpha virt. eigenvalues --    0.18691   0.19982   0.21536   0.22935   0.23978

 Mulliken charges:
               1
     1  C   -0.178016
     2  C   -0.015316
     3  C   -0.034805
     4  C   -0.171734
     5  H    0.089518
     6  H    0.059693
     7  H    0.048371
     8  H    0.048711
     9  H    0.066974
    10  H    0.086604
 Sum of Mulliken charges =   0.00000

 Dipole moment (field-independent basis, Debye):
    X=             -0.0163    Y=             -0.0219    Z=              0.2763  Tot=              0.2777
 Quadrupole moment (field-independent basis, Debye-Ang):
   XX=            -23.6358   YY=            -23.2472   ZZ=            -29.3220
   XY=             -0.0286   XZ=              0.1985   YZ=             -0.0746

 1\1\GINC-NODE37\SP\RB2PLYPD3-FC\def2QZVP\C4H6\BOITTIER\26-Aug-2020\0\\
 #p B2PLYPD3/Def2QZVP\\butadiene\\0,1\C,0,-3.847061,0.203483,-0.015601\
 C,0,-2.711247,-0.475356,0.100301\C,0,-1.37736,0.088143,0.05139\C,0,-0.
 272228,-0.669582,-0.001976\H,0,-4.809304,-0.298809,-0.114116\H,0,-3.78
 3649,1.296644,-0.09978\H,0,-2.765493,-1.556611,0.004368\H,0,-1.348405,
 1.197547,0.023796\H,0,-0.384321,-1.751595,0.00793\H,0,0.763807,-0.2388
 19,-0.10596\\Version=ES64L-G09RevD.01\State=1-A\HF=-155.6957666\MP2=-1
 55.9222584\RMSD=5.485e-09\PG=C01 [X(C4H6)]\\@

 Normal termination of Gaussian 09 at Wed Aug 26 09:35:43 2020.
