 Gaussian 09, Revision D.01,
 Gaussian 09:  ES64L-G09RevD.01 24-Apr-2013

 --------------------
 #p B2PLYPD3/Def2QZVP
 --------------------

 ---------
 butadiene
 ---------
 Symbolic Z-matrix:
 Charge =  0 Multiplicity = 1

                         Standard orientation:
 ---------------------------------------------------------------------
 Center     Atomic      Atomic             Coordinates (Angstroms)
 Number     Number       Type             X           Y           Z
 ---------------------------------------------------------------------
      1          6           0       -1.848750    0.103969    0.005237
      2          6           0       -0.603439   -0.385783   -0.032451
      3          6           0        0.615754    0.403434   -0.025804
      4          6           0        1.847966   -0.107979    0.016273
      5          1           0       -2.722305   -0.538177    0.094157
      6          1           0       -2.054193    1.160624    0.037716
      7          1           0       -0.500191   -1.448156   -0.009822
      8          1           0        0.495691    1.481281    0.021444
      9          1           0        1.961029   -1.205658    0.048097
     10          1           0        2.750783    0.468244    0.028876
 ---------------------------------------------------------------------

 SCF Done:  E(RB2PLYPD3) =  -155.699962067     A.U. after   11 cycles
 E2(B2PLYPD3) =    -0.2257296108D+00 E(B2PLYPD3) =    -0.15592569167758D+03

 The electronic state is 1-A.
 Alpha  occ. eigenvalues --  -10.62624 -10.62450 -10.61727 -10.61590  -0.92960
 Alpha  occ. eigenvalues --   -0.84940  -0.70280  -0.64216  -0.54880  -0.53823
 Alpha  occ. eigenvalues --   -0.47041  -0.45207  -0.41135  -0.38108  -0.27716
 Alpha virt. eigenvalues --    0.01583   0.06990   0.07489   0.08060   0.09673
 Alpha virt. eigenvalues --    0.11604   0.12537   0.14585   0.15856   0.16319
 Alpha virt. eigenvalues --    0.18906   0.20406   0.21694   0.22668   0.23747

 Mulliken charges:
               1
     1  C   -0.173138
     2  C   -0.029574
     3  C   -0.033170
     4  C   -0.170168
     5  H    0.082623
     6  H    0.064040
     7  H    0.056312
     8  H    0.054572
     9  H    0.058156
    10  H    0.090346
 Sum of Mulliken charges =   0.00000

 Dipole moment (field-independent basis, Debye):
    X=              0.0173    Y=              0.0155    Z=              0.1617  Tot=              0.1634
 Quadrupole moment (field-independent basis, Debye-Ang):
   XX=            -23.2014   YY=            -23.2678   ZZ=            -29.2602
   XY=             -0.0319   XZ=             -0.1733   YZ=             -0.0220

 1\1\GINC-NODE34\SP\RB2PLYPD3-FC\def2QZVP\C4H6\BOITTIER\26-Aug-2020\0\\
 #p B2PLYPD3/Def2QZVP\\butadiene\\0,1\C,0,-3.854362,0.215624,0.030269\C
 ,0,-2.716358,-0.489033,0.008301\C,0,-1.376108,0.070226,-0.008987\C,0,-
 0.254444,-0.650964,0.049438\H,0,-4.827828,-0.257631,0.138669\H,0,-3.86
 8217,1.292466,0.029908\H,0,-2.803801,-1.551612,0.063877\H,0,-1.3021,1.
 153155,0.004794\H,0,-0.338468,-1.749734,0.115302\H,0,0.736596,-0.24465
 5,0.044566\\Version=ES64L-G09RevD.01\State=1-A\HF=-155.6999621\MP2=-15
 5.9256917\RMSD=3.452e-09\PG=C01 [X(C4H6)]\\@

 Normal termination of Gaussian 09 at Wed Aug 26 11:21:36 2020.
