 Gaussian 09, Revision D.01,
 Gaussian 09:  ES64L-G09RevD.01 24-Apr-2013

 --------------------
 #p B2PLYPD3/Def2QZVP
 --------------------

 ---------
 butadiene
 ---------
 Symbolic Z-matrix:
 Charge =  0 Multiplicity = 1

                         Standard orientation:
 ---------------------------------------------------------------------
 Center     Atomic      Atomic             Coordinates (Angstroms)
 Number     Number       Type             X           Y           Z
 ---------------------------------------------------------------------
      1          6           0        1.835106    0.102121    0.016224
      2          6           0        0.597571   -0.392573   -0.020749
      3          6           0       -0.598932    0.423687   -0.021890
      4          6           0       -1.830290   -0.124324    0.001242
      5          1           0        2.684507   -0.578036    0.007230
      6          1           0        1.990907    1.165410    0.003314
      7          1           0        0.448656   -1.465792    0.050939
      8          1           0       -0.449645    1.519632    0.013590
      9          1           0       -1.983358   -1.195714   -0.008269
     10          1           0       -2.711798    0.501030    0.084231
 ---------------------------------------------------------------------

 SCF Done:  E(RB2PLYPD3) =  -155.699598748     A.U. after   11 cycles
 E2(B2PLYPD3) =    -0.2261521109D+00 E(B2PLYPD3) =    -0.15592575085885D+03

 The electronic state is 1-A.
 Alpha  occ. eigenvalues --  -10.62929 -10.62296 -10.61767 -10.61359  -0.93005
 Alpha  occ. eigenvalues --   -0.84702  -0.70025  -0.63972  -0.54332  -0.53924
 Alpha  occ. eigenvalues --   -0.46340  -0.45782  -0.41326  -0.38095  -0.27498
 Alpha virt. eigenvalues --    0.01664   0.07035   0.07292   0.08052   0.09449
 Alpha virt. eigenvalues --    0.11758   0.12369   0.14764   0.15718   0.16093
 Alpha virt. eigenvalues --    0.18684   0.20228   0.21618   0.23156   0.23914

 Mulliken charges:
               1
     1  C   -0.182349
     2  C   -0.021149
     3  C   -0.034349
     4  C   -0.177402
     5  H    0.086611
     6  H    0.067558
     7  H    0.053889
     8  H    0.053387
     9  H    0.069152
    10  H    0.084654
 Sum of Mulliken charges =   0.00000

 Dipole moment (field-independent basis, Debye):
    X=             -0.0299    Y=             -0.0138    Z=              0.1047  Tot=              0.1097
 Quadrupole moment (field-independent basis, Debye-Ang):
   XX=            -23.7668   YY=            -22.9635   ZZ=            -29.3306
   XY=              0.1886   XZ=             -0.2026   YZ=              0.0188

 1\1\GINC-NODE23\SP\RB2PLYPD3-FC\def2QZVP\C4H6\BOITTIER\26-Aug-2020\0\\
 #p B2PLYPD3/Def2QZVP\\butadiene\\0,1\C,0,-3.837922,0.218246,0.002229\C
 ,0,-2.71095,-0.492326,0.053235\C,0,-1.385861,0.092131,0.032008\C,0,-0.
 274956,-0.671366,0.024411\H,0,-4.796889,-0.295364,0.029894\H,0,-3.7975
 05,1.292077,-0.014432\H,0,-2.760228,-1.576271,0.011414\H,0,-1.333326,1
 .19555,-0.033929\H,0,-0.319428,-1.752048,0.063709\H,0,0.705249,-0.2194
 93,-0.07569\\Version=ES64L-G09RevD.01\State=1-A\HF=-155.6995987\MP2=-1
 55.9257509\RMSD=5.443e-09\PG=C01 [X(C4H6)]\\@

 Normal termination of Gaussian 09 at Wed Aug 26 10:07:46 2020.
