 Gaussian 09, Revision D.01,
 Gaussian 09:  ES64L-G09RevD.01 24-Apr-2013

 --------------------
 #p B2PLYPD3/Def2QZVP
 --------------------

 ---------
 butadiene
 ---------
 Symbolic Z-matrix:
 Charge =  0 Multiplicity = 1

                         Standard orientation:
 ---------------------------------------------------------------------
 Center     Atomic      Atomic             Coordinates (Angstroms)
 Number     Number       Type             X           Y           Z
 ---------------------------------------------------------------------
      1          6           0       -1.831382    0.052482    0.042527
      2          6           0       -0.593987   -0.372721   -0.085878
      3          6           0        0.579002    0.482850   -0.046986
      4          6           0        1.828323   -0.137822    0.046877
      5          1           0       -2.753886   -0.568740    0.343835
      6          1           0       -2.018192    1.144417   -0.072504
      7          1           0       -0.366656   -1.475473   -0.189363
      8          1           0        0.471821    1.599285   -0.033982
      9          1           0        2.039343   -1.222205    0.035494
     10          1           0        2.735836    0.373980    0.177280
 ---------------------------------------------------------------------

 SCF Done:  E(RB2PLYPD3) =  -155.677996796     A.U. after   12 cycles
 E2(B2PLYPD3) =    -0.2283465285D+00 E(B2PLYPD3) =    -0.15590634332412D+03

 The electronic state is 1-A.
 Alpha  occ. eigenvalues --  -10.64393 -10.62881 -10.62488 -10.62181  -0.92691
 Alpha  occ. eigenvalues --   -0.83942  -0.70088  -0.63348  -0.54382  -0.52686
 Alpha  occ. eigenvalues --   -0.46512  -0.44626  -0.41587  -0.37265  -0.26984
 Alpha virt. eigenvalues --    0.01145   0.06952   0.07010   0.07892   0.08874
 Alpha virt. eigenvalues --    0.11397   0.12481   0.14341   0.15763   0.16359
 Alpha virt. eigenvalues --    0.18751   0.20025   0.21681   0.22827   0.23386

 Mulliken charges:
               1
     1  C   -0.172736
     2  C   -0.012244
     3  C   -0.050353
     4  C   -0.172150
     5  H    0.085506
     6  H    0.057346
     7  H    0.057645
     8  H    0.064319
     9  H    0.062876
    10  H    0.079791
 Sum of Mulliken charges =   0.00000

 Dipole moment (field-independent basis, Debye):
    X=              0.1091    Y=              0.0152    Z=              0.1502  Tot=              0.1862
 Quadrupole moment (field-independent basis, Debye-Ang):
   XX=            -23.5175   YY=            -23.2794   ZZ=            -29.4192
   XY=             -0.5111   XZ=             -0.2209   YZ=             -0.1214

 1\1\GINC-NODE25\SP\RB2PLYPD3-FC\def2QZVP\C4H6\BOITTIER\26-Aug-2020\0\\
 #p B2PLYPD3/Def2QZVP\\butadiene\\0,1\C,0,-3.838798,0.183321,0.069293\C
 ,0,-2.705318,-0.473759,-0.039804\C,0,-1.391338,0.145009,-0.038665\C,0,
 -0.281322,-0.696368,0.08297\H,0,-4.859698,-0.238163,0.397671\H,0,-3.81
 653,1.284792,-0.094163\H,0,-2.691632,-1.603055,-0.094158\H,0,-1.2852,1
 .261019,-0.075281\H,0,-0.279422,-1.800535,0.119808\H,0,0.707682,-0.360
 533,0.190734\\Version=ES64L-G09RevD.01\State=1-A\HF=-155.6779968\MP2=-
 155.9063433\RMSD=4.515e-09\PG=C01 [X(C4H6)]\\@

 Normal termination of Gaussian 09 at Wed Aug 26 13:33:03 2020.
