 Gaussian 09, Revision D.01,
 Gaussian 09:  ES64L-G09RevD.01 24-Apr-2013

 --------------------
 #p B2PLYPD3/Def2QZVP
 --------------------

 ---------
 butadiene
 ---------
 Symbolic Z-matrix:
 Charge =  0 Multiplicity = 1

                         Standard orientation:
 ---------------------------------------------------------------------
 Center     Atomic      Atomic             Coordinates (Angstroms)
 Number     Number       Type             X           Y           Z
 ---------------------------------------------------------------------
      1          6           0       -1.824183   -0.129621    0.007522
      2          6           0       -0.595460    0.421668   -0.005548
      3          6           0        0.597005   -0.367087   -0.044263
      4          6           0        1.834061    0.096603   -0.004900
      5          1           0       -2.780168    0.449636    0.058831
      6          1           0       -1.958688   -1.190198   -0.025218
      7          1           0       -0.495911    1.518228    0.026487
      8          1           0        0.518491   -1.466006    0.082718
      9          1           0        2.010433    1.120819    0.017033
     10          1           0        2.637304   -0.561864    0.123288
 ---------------------------------------------------------------------

 SCF Done:  E(RB2PLYPD3) =  -155.694706839     A.U. after   11 cycles
 E2(B2PLYPD3) =    -0.2257840526D+00 E(B2PLYPD3) =    -0.15592049089202D+03

 The electronic state is 1-A.
 Alpha  occ. eigenvalues --  -10.62882 -10.62202 -10.62017 -10.60296  -0.93381
 Alpha  occ. eigenvalues --   -0.85108  -0.70449  -0.63988  -0.55040  -0.54186
 Alpha  occ. eigenvalues --   -0.46754  -0.45111  -0.41352  -0.38379  -0.27565
 Alpha virt. eigenvalues --    0.01579   0.07052   0.07403   0.07948   0.09687
 Alpha virt. eigenvalues --    0.11677   0.12576   0.14769   0.15706   0.16420
 Alpha virt. eigenvalues --    0.18731   0.20202   0.21952   0.22690   0.24121

 Mulliken charges:
               1
     1  C   -0.168553
     2  C   -0.042008
     3  C   -0.009369
     4  C   -0.179939
     5  H    0.080173
     6  H    0.067435
     7  H    0.055377
     8  H    0.047154
     9  H    0.063903
    10  H    0.085826
 Sum of Mulliken charges =   0.00000

 Dipole moment (field-independent basis, Debye):
    X=             -0.0245    Y=              0.0010    Z=              0.2217  Tot=              0.2230
 Quadrupole moment (field-independent basis, Debye-Ang):
   XX=            -23.4342   YY=            -23.1668   ZZ=            -29.1649
   XY=              0.0853   XZ=              0.3490   YZ=             -0.0919

 1\1\GINC-NODE30\SP\RB2PLYPD3-FC\def2QZVP\C4H6\BOITTIER\26-Aug-2020\0\\
 #p B2PLYPD3/Def2QZVP\\butadiene\\0,1\C,0,-3.824529,0.240313,0.007748\C
 ,0,-2.71405,-0.520994,0.040928\C,0,-1.399563,0.042626,0.048823\C,0,-0.
 265623,-0.636001,0.026273\H,0,-4.869002,-0.160105,-0.020856\H,0,-3.767
 075,1.308316,0.000241\H,0,-2.812322,-1.618094,0.050531\H,0,-1.281362,1
 .132357,-0.119785\H,0,-0.275305,-1.675341,0.043168\H,0,0.641389,-0.137
 076,-0.127398\\Version=ES64L-G09RevD.01\State=1-A\HF=-155.6947068\MP2=
 -155.9204909\RMSD=6.772e-09\PG=C01 [X(C4H6)]\\@

 Normal termination of Gaussian 09 at Wed Aug 26 09:01:52 2020.
