 Gaussian 09, Revision D.01,
 Gaussian 09:  ES64L-G09RevD.01 24-Apr-2013

 --------------------
 #p B2PLYPD3/Def2QZVP
 --------------------

 ---------
 butadiene
 ---------
 Symbolic Z-matrix:
 Charge =  0 Multiplicity = 1

                         Standard orientation:
 ---------------------------------------------------------------------
 Center     Atomic      Atomic             Coordinates (Angstroms)
 Number     Number       Type             X           Y           Z
 ---------------------------------------------------------------------
      1          6           0       -1.840919   -0.137008   -0.072721
      2          6           0       -0.596783    0.466885    0.053739
      3          6           0        0.578531   -0.386685    0.041359
      4          6           0        1.840159    0.059073   -0.038856
      5          1           0       -2.700559    0.474999   -0.157129
      6          1           0       -2.012340   -1.267461    0.201106
      7          1           0       -0.500386    1.563216    0.149128
      8          1           0        0.398254   -1.398183    0.009981
      9          1           0        2.111566    1.147064   -0.027252
     10          1           0        2.817539   -0.533221   -0.076957
 ---------------------------------------------------------------------

 SCF Done:  E(RB2PLYPD3) =  -155.676268320     A.U. after   12 cycles
 E2(B2PLYPD3) =    -0.2284357031D+00 E(B2PLYPD3) =    -0.15590470402343D+03

 The electronic state is 1-A.
 Alpha  occ. eigenvalues --  -10.63936 -10.63059 -10.62615 -10.62289  -0.92671
 Alpha  occ. eigenvalues --   -0.83729  -0.69756  -0.64408  -0.54642  -0.52511
 Alpha  occ. eigenvalues --   -0.46408  -0.44795  -0.41176  -0.37552  -0.27000
 Alpha virt. eigenvalues --    0.00857   0.06889   0.07069   0.08020   0.08836
 Alpha virt. eigenvalues --    0.11477   0.12358   0.14196   0.15838   0.16549
 Alpha virt. eigenvalues --    0.18903   0.19995   0.21458   0.22957   0.23311

 Mulliken charges:
               1
     1  C   -0.177509
     2  C   -0.045309
     3  C   -0.031880
     4  C   -0.163506
     5  H    0.082738
     6  H    0.068624
     7  H    0.068743
     8  H    0.072606
     9  H    0.051364
    10  H    0.074129
 Sum of Mulliken charges =   0.00000

 Dipole moment (field-independent basis, Debye):
    X=             -0.0259    Y=              0.0842    Z=              0.1747  Tot=              0.1956
 Quadrupole moment (field-independent basis, Debye-Ang):
   XX=            -23.5123   YY=            -23.2338   ZZ=            -29.5269
   XY=              0.2657   XZ=             -0.2972   YZ=             -0.1656

 1\1\GINC-NODE32\SP\RB2PLYPD3-FC\def2QZVP\C4H6\BOITTIER\26-Aug-2020\0\\
 #p B2PLYPD3/Def2QZVP\\butadiene\\0,1\C,0,-3.832169,0.265599,0.081972\C
 ,0,-2.723233,-0.564015,-0.020774\C,0,-1.408813,0.054341,-0.026692\C,0,
 -0.253012,-0.617284,0.072727\H,0,-4.791222,-0.171881,0.179372\H,0,-3.7
 88844,1.399728,-0.224891\H,0,-2.833962,-1.661299,-0.084334\H,0,-1.3963
 89,1.082181,-0.025128\H,0,-0.190244,-1.736724,0.093583\H,0,0.818037,-0
 .217657,0.098954\\Version=ES64L-G09RevD.01\State=1-A\HF=-155.6762683\M
 P2=-155.904704\RMSD=2.737e-09\PG=C01 [X(C4H6)]\\@

 Normal termination of Gaussian 09 at Wed Aug 26 15:04:12 2020.
