 Gaussian 09, Revision D.01,
 Gaussian 09:  ES64L-G09RevD.01 24-Apr-2013

 --------------------
 #p B2PLYPD3/Def2QZVP
 --------------------

 ---------
 butadiene
 ---------
 Symbolic Z-matrix:
 Charge =  0 Multiplicity = 1

                         Standard orientation:
 ---------------------------------------------------------------------
 Center     Atomic      Atomic             Coordinates (Angstroms)
 Number     Number       Type             X           Y           Z
 ---------------------------------------------------------------------
      1          6           0       -1.831468   -0.118299    0.006849
      2          6           0       -0.597367    0.409241   -0.006134
      3          6           0        0.606461   -0.405619    0.009244
      4          6           0        1.834342    0.110488   -0.018173
      5          1           0       -2.761900    0.519407   -0.049085
      6          1           0       -1.903817   -1.229838   -0.074151
      7          1           0       -0.495884    1.493798    0.132636
      8          1           0        0.447995   -1.447954    0.069633
      9          1           0        1.916287    1.199322   -0.072385
     10          1           0        2.725509   -0.509595    0.042633
 ---------------------------------------------------------------------

 SCF Done:  E(RB2PLYPD3) =  -155.695217903     A.U. after   11 cycles
 E2(B2PLYPD3) =    -0.2264818297D+00 E(B2PLYPD3) =    -0.15592169973232D+03

 The electronic state is 1-A.
 Alpha  occ. eigenvalues --  -10.62691 -10.62413 -10.62197 -10.61646  -0.93116
 Alpha  occ. eigenvalues --   -0.84682  -0.69408  -0.64147  -0.54162  -0.53656
 Alpha  occ. eigenvalues --   -0.46375  -0.45135  -0.41391  -0.38038  -0.27677
 Alpha virt. eigenvalues --    0.01752   0.07009   0.07325   0.07931   0.09335
 Alpha virt. eigenvalues --    0.11713   0.12459   0.14400   0.15487   0.16178
 Alpha virt. eigenvalues --    0.18520   0.19814   0.21503   0.23193   0.24037

 Mulliken charges:
               1
     1  C   -0.176695
     2  C   -0.027019
     3  C   -0.033176
     4  C   -0.175417
     5  H    0.085852
     6  H    0.059375
     7  H    0.055547
     8  H    0.057096
     9  H    0.064980
    10  H    0.089457
 Sum of Mulliken charges =   0.00000

 Dipole moment (field-independent basis, Debye):
    X=              0.0255    Y=             -0.0071    Z=              0.0450  Tot=              0.0522
 Quadrupole moment (field-independent basis, Debye-Ang):
   XX=            -23.7630   YY=            -23.1362   ZZ=            -29.3466
   XY=             -0.2131   XZ=              0.2487   YZ=              0.0296

 1\1\GINC-NODE24\SP\RB2PLYPD3-FC\def2QZVP\C4H6\BOITTIER\26-Aug-2020\0\\
 #p B2PLYPD3/Def2QZVP\\butadiene\\0,1\C,0,-3.835371,0.224337,0.014123\C
 ,0,-2.713779,-0.512458,0.039361\C,0,-1.385054,0.076342,0.004167\C,0,-0
 .267501,-0.647766,0.043564\H,0,-4.863534,-0.237488,0.085549\H,0,-3.709
 928,1.332766,0.06855\H,0,-2.806042,-1.600841,-0.073473\H,0,-1.357231,1
 .128568,-0.081075\H,0,-0.37888,-1.732375,0.123765\H,0,0.71888,-0.19646
 ,-0.0323\\Version=ES64L-G09RevD.01\State=1-A\HF=-155.6952179\MP2=-155.
 9216997\RMSD=3.970e-09\PG=C01 [X(C4H6)]\\@

 Normal termination of Gaussian 09 at Wed Aug 26 10:09:15 2020.
