 Gaussian 09, Revision D.01,
 Gaussian 09:  ES64L-G09RevD.01 24-Apr-2013

 --------------------
 #p B2PLYPD3/Def2QZVP
 --------------------

 ---------
 butadiene
 ---------
 Symbolic Z-matrix:
 Charge =  0 Multiplicity = 1

                         Standard orientation:
 ---------------------------------------------------------------------
 Center     Atomic      Atomic             Coordinates (Angstroms)
 Number     Number       Type             X           Y           Z
 ---------------------------------------------------------------------
      1          6           0        1.842441    0.120892   -0.007570
      2          6           0        0.611262   -0.426841    0.009224
      3          6           0       -0.610789    0.391831   -0.017601
      4          6           0       -1.840161   -0.105482    0.005833
      5          1           0        2.752661   -0.481523   -0.019789
      6          1           0        1.973556    1.214537    0.064786
      7          1           0        0.462040   -1.489680   -0.013942
      8          1           0       -0.481977    1.459991    0.016724
      9          1           0       -2.032335   -1.147208    0.038897
     10          1           0       -2.690462    0.561478   -0.025988
 ---------------------------------------------------------------------

 SCF Done:  E(RB2PLYPD3) =  -155.699740229     A.U. after   11 cycles
 E2(B2PLYPD3) =    -0.2257057909D+00 E(B2PLYPD3) =    -0.15592544602032D+03

 The electronic state is 1-A.
 Alpha  occ. eigenvalues --  -10.62801 -10.62326 -10.62087 -10.61044  -0.92760
 Alpha  occ. eigenvalues --   -0.84840  -0.69897  -0.64379  -0.54391  -0.53940
 Alpha  occ. eigenvalues --   -0.46737  -0.45739  -0.41122  -0.37879  -0.27727
 Alpha virt. eigenvalues --    0.01832   0.06992   0.07434   0.08110   0.09388
 Alpha virt. eigenvalues --    0.11691   0.12422   0.14678   0.15761   0.16217
 Alpha virt. eigenvalues --    0.18785   0.20328   0.21712   0.22908   0.23932

 Mulliken charges:
               1
     1  C   -0.171264
     2  C   -0.044401
     3  C   -0.023397
     4  C   -0.178837
     5  H    0.084752
     6  H    0.065102
     7  H    0.060616
     8  H    0.056485
     9  H    0.067669
    10  H    0.083274
 Sum of Mulliken charges =   0.00000

 Dipole moment (field-independent basis, Debye):
    X=             -0.0015    Y=             -0.0185    Z=              0.0529  Tot=              0.0561
 Quadrupole moment (field-independent basis, Debye-Ang):
   XX=            -23.5313   YY=            -23.0293   ZZ=            -29.3015
   XY=              0.1895   XZ=              0.0299   YZ=              0.0817

 1\1\GINC-NODE40\SP\RB2PLYPD3-FC\def2QZVP\C4H6\BOITTIER\26-Aug-2020\0\\
 #p B2PLYPD3/Def2QZVP\\butadiene\\0,1\C,0,-3.842353,0.235632,0.022794\C
 ,0,-2.729148,-0.52387,0.028102\C,0,-1.380219,0.063277,0.028783\C,0,-0.
 259796,-0.64656,0.025673\H,0,-4.845627,-0.193329,0.054206\H,0,-3.77593
 2,1.331858,-0.088389\H,0,-2.772443,-1.594775,0.089079\H,0,-1.315937,1.
 135369,-0.043489\H,0,-0.257285,-1.706369,0.029807\H,0,0.696258,-0.1418
 66,0.035861\\Version=ES64L-G09RevD.01\State=1-A\HF=-155.6997402\MP2=-1
 55.925446\RMSD=5.871e-09\PG=C01 [X(C4H6)]\\@

 Normal termination of Gaussian 09 at Wed Aug 26 12:13:49 2020.
