 Gaussian 09, Revision D.01,
 Gaussian 09:  ES64L-G09RevD.01 24-Apr-2013

 --------------------
 #p B2PLYPD3/Def2QZVP
 --------------------

 ---------
 butadiene
 ---------
 Symbolic Z-matrix:
 Charge =  0 Multiplicity = 1

                         Standard orientation:
 ---------------------------------------------------------------------
 Center     Atomic      Atomic             Coordinates (Angstroms)
 Number     Number       Type             X           Y           Z
 ---------------------------------------------------------------------
      1          6           0       -1.800019    0.112328    0.008761
      2          6           0       -0.587449   -0.429577   -0.002323
      3          6           0        0.587354    0.366209   -0.071027
      4          6           0        1.837342   -0.095610    0.035950
      5          1           0       -2.843911   -0.453788    0.174413
      6          1           0       -1.897410    1.189780    0.047184
      7          1           0       -0.391717   -1.502832   -0.149469
      8          1           0        0.281303    1.440920   -0.100688
      9          1           0        2.120201   -1.093139    0.017750
     10          1           0        2.508165    0.698959    0.182646
 ---------------------------------------------------------------------

 SCF Done:  E(RB2PLYPD3) =  -155.677478298     A.U. after   12 cycles
 E2(B2PLYPD3) =    -0.2270169060D+00 E(B2PLYPD3) =    -0.15590449520371D+03

 The electronic state is 1-A.
 Alpha  occ. eigenvalues --  -10.62761 -10.62499 -10.62264 -10.60823  -0.93834
 Alpha  occ. eigenvalues --   -0.84942  -0.70370  -0.63946  -0.54578  -0.53920
 Alpha  occ. eigenvalues --   -0.46516  -0.45436  -0.40831  -0.37989  -0.27533
 Alpha virt. eigenvalues --    0.01463   0.06918   0.07245   0.07941   0.09483
 Alpha virt. eigenvalues --    0.11692   0.12311   0.14813   0.15352   0.15982
 Alpha virt. eigenvalues --    0.18490   0.20132   0.21734   0.22833   0.23831

 Mulliken charges:
               1
     1  C   -0.168931
     2  C   -0.019645
     3  C   -0.019534
     4  C   -0.190818
     5  H    0.073451
     6  H    0.058461
     7  H    0.055406
     8  H    0.043570
     9  H    0.083195
    10  H    0.084845
 Sum of Mulliken charges =   0.00000

 Dipole moment (field-independent basis, Debye):
    X=             -0.0161    Y=             -0.0066    Z=              0.1094  Tot=              0.1108
 Quadrupole moment (field-independent basis, Debye-Ang):
   XX=            -23.9474   YY=            -23.2656   ZZ=            -29.1727
   XY=             -0.7402   XZ=              0.0062   YZ=              0.2108

 1\1\GINC-NODE22\SP\RB2PLYPD3-FC\def2QZVP\C4H6\BOITTIER\26-Aug-2020\0\\
 #p B2PLYPD3/Def2QZVP\\butadiene\\0,1\C,0,-3.800166,0.246617,0.033714\C
 ,0,-2.714448,-0.518429,0.028041\C,0,-1.408578,0.036013,-0.0458\C,0,-0.
 270671,-0.656708,0.06599\H,0,-4.933346,-0.10686,0.202819\H,0,-3.688514
 ,1.322956,0.063576\H,0,-2.728851,-1.61042,-0.11048\H,0,-1.502258,1.149
 252,-0.084197\H,0,-0.184935,-1.690125,0.055899\H,0,0.540518,-0.00484,0
 .207074\\Version=ES64L-G09RevD.01\State=1-A\HF=-155.6774783\MP2=-155.9
 044952\RMSD=3.684e-09\PG=C01 [X(C4H6)]\\@

 Normal termination of Gaussian 09 at Wed Aug 26 12:18:57 2020.
