 Gaussian 09, Revision D.01,
 Gaussian 09:  ES64L-G09RevD.01 24-Apr-2013

 --------------------
 #p B2PLYPD3/Def2QZVP
 --------------------

 ---------
 butadiene
 ---------
 Symbolic Z-matrix:
 Charge =  0 Multiplicity = 1

                         Standard orientation:
 ---------------------------------------------------------------------
 Center     Atomic      Atomic             Coordinates (Angstroms)
 Number     Number       Type             X           Y           Z
 ---------------------------------------------------------------------
      1          6           0       -1.837808    0.091677    0.016455
      2          6           0       -0.598437   -0.392767   -0.040087
      3          6           0        0.594346    0.430589   -0.026480
      4          6           0        1.824555   -0.106376    0.015925
      5          1           0       -2.650134   -0.570043    0.028449
      6          1           0       -2.033429    1.171806    0.138637
      7          1           0       -0.361065   -1.466940   -0.109304
      8          1           0        0.438195    1.502789   -0.025771
      9          1           0        1.909182   -1.219951    0.222169
     10          1           0        2.801314    0.443603   -0.049059
 ---------------------------------------------------------------------

 SCF Done:  E(RB2PLYPD3) =  -155.693013677     A.U. after   11 cycles
 E2(B2PLYPD3) =    -0.2266340658D+00 E(B2PLYPD3) =    -0.15591964774277D+03

 The electronic state is 1-A.
 Alpha  occ. eigenvalues --  -10.62722 -10.62641 -10.62576 -10.61388  -0.93096
 Alpha  occ. eigenvalues --   -0.84585  -0.69876  -0.63789  -0.54754  -0.53100
 Alpha  occ. eigenvalues --   -0.46954  -0.44996  -0.40985  -0.38037  -0.27562
 Alpha virt. eigenvalues --    0.01575   0.06992   0.07178   0.08093   0.09358
 Alpha virt. eigenvalues --    0.11653   0.12392   0.14570   0.15701   0.16210
 Alpha virt. eigenvalues --    0.18709   0.20198   0.21450   0.22669   0.23620

 Mulliken charges:
               1
     1  C   -0.180197
     2  C   -0.024703
     3  C   -0.029752
     4  C   -0.171054
     5  H    0.089977
     6  H    0.067252
     7  H    0.051706
     8  H    0.056618
     9  H    0.054509
    10  H    0.085644
 Sum of Mulliken charges =   0.00000

 Dipole moment (field-independent basis, Debye):
    X=              0.0041    Y=              0.0313    Z=              0.1418  Tot=              0.1453
 Quadrupole moment (field-independent basis, Debye-Ang):
   XX=            -23.5573   YY=            -23.2839   ZZ=            -29.3057
   XY=             -0.2008   XZ=             -0.1111   YZ=             -0.0539

 1\1\GINC-NODE36\SP\RB2PLYPD3-FC\def2QZVP\C4H6\BOITTIER\26-Aug-2020\0\\
 #p B2PLYPD3/Def2QZVP\\butadiene\\0,1\C,0,-3.839044,0.215632,0.039289\C
 ,0,-2.711901,-0.492857,0.00037\C,0,-1.386571,0.093814,-0.011872\C,0,-0
 .277721,-0.661294,0.049832\H,0,-4.760344,-0.282376,0.072225\H,0,-3.829
 43,1.316713,0.125338\H,0,-2.679122,-1.594131,-0.032889\H,0,-1.34026,1.
 175768,-0.046918\H,0,-0.400981,-1.763756,0.293001\H,0,0.784054,-0.3053
 87,-0.032157\\Version=ES64L-G09RevD.01\State=1-A\HF=-155.6930137\MP2=-
 155.9196477\RMSD=5.229e-09\PG=C01 [X(C4H6)]\\@

 Normal termination of Gaussian 09 at Wed Aug 26 10:03:37 2020.
