 Gaussian 09, Revision D.01,
 Gaussian 09:  ES64L-G09RevD.01 24-Apr-2013

 --------------------
 #p B2PLYPD3/Def2QZVP
 --------------------

 ---------
 butadiene
 ---------
 Symbolic Z-matrix:
 Charge =  0 Multiplicity = 1

                         Standard orientation:
 ---------------------------------------------------------------------
 Center     Atomic      Atomic             Coordinates (Angstroms)
 Number     Number       Type             X           Y           Z
 ---------------------------------------------------------------------
      1          6           0        1.840174    0.102795   -0.039092
      2          6           0        0.611148   -0.368478    0.020456
      3          6           0       -0.613563    0.410529    0.059567
      4          6           0       -1.834531   -0.122375   -0.032560
      5          1           0        2.629814   -0.582675    0.041659
      6          1           0        2.052948    1.129400   -0.048417
      7          1           0        0.560686   -1.454100    0.054408
      8          1           0       -0.516989    1.516652   -0.017420
      9          1           0       -2.020733   -1.184200   -0.073019
     10          1           0       -2.725094    0.440104   -0.007439
 ---------------------------------------------------------------------

 SCF Done:  E(RB2PLYPD3) =  -155.695999093     A.U. after   11 cycles
 E2(B2PLYPD3) =    -0.2250598046D+00 E(B2PLYPD3) =    -0.15592105889713D+03

 The electronic state is 1-A.
 Alpha  occ. eigenvalues --  -10.62954 -10.62077 -10.61304 -10.60311  -0.93092
 Alpha  occ. eigenvalues --   -0.85519  -0.70644  -0.63931  -0.55195  -0.54389
 Alpha  occ. eigenvalues --   -0.46822  -0.45580  -0.41073  -0.38148  -0.27884
 Alpha virt. eigenvalues --    0.01778   0.07054   0.07508   0.08016   0.09784
 Alpha virt. eigenvalues --    0.11632   0.12576   0.14862   0.15666   0.16428
 Alpha virt. eigenvalues --    0.18934   0.20213   0.22011   0.22523   0.24081

 Mulliken charges:
               1
     1  C   -0.177526
     2  C   -0.016239
     3  C   -0.042858
     4  C   -0.164681
     5  H    0.083617
     6  H    0.065687
     7  H    0.049624
     8  H    0.055866
     9  H    0.062984
    10  H    0.083526
 Sum of Mulliken charges =   0.00000

 Dipole moment (field-independent basis, Debye):
    X=             -0.0705    Y=             -0.0200    Z=              0.0093  Tot=              0.0738
 Quadrupole moment (field-independent basis, Debye-Ang):
   XX=            -23.2485   YY=            -23.1304   ZZ=            -29.1024
   XY=              0.1207   XZ=              0.2758   YZ=             -0.1184

 1\1\GINC-NODE14\SP\RB2PLYPD3-FC\def2QZVP\C4H6\BOITTIER\26-Aug-2020\0\\
 #p B2PLYPD3/Def2QZVP\\butadiene\\0,1\C,0,-3.845136,0.210688,0.055538\C
 ,0,-2.719007,-0.471983,0.011473\C,0,-1.375737,0.076772,-0.041366\C,0,-
 0.268365,-0.66153,0.067612\H,0,-4.743715,-0.325883,-0.012055\H,0,-3.87
 2771,1.258675,0.04012\H,0,-2.861582,-1.549886,0.00306\H,0,-1.27489,1.1
 84026,0.009424\H,0,-0.273091,-1.73829,0.133526\H,0,0.707706,-0.266339,
 0.0326\\Version=ES64L-G09RevD.01\State=1-A\HF=-155.6959991\MP2=-155.92
 10589\RMSD=5.958e-09\PG=C01 [X(C4H6)]\\@

 Normal termination of Gaussian 09 at Wed Aug 26 10:45:44 2020.
