 Gaussian 09, Revision D.01,
 Gaussian 09:  ES64L-G09RevD.01 24-Apr-2013

 --------------------
 #p B2PLYPD3/Def2QZVP
 --------------------

 ---------
 butadiene
 ---------
 Symbolic Z-matrix:
 Charge =  0 Multiplicity = 1

                         Standard orientation:
 ---------------------------------------------------------------------
 Center     Atomic      Atomic             Coordinates (Angstroms)
 Number     Number       Type             X           Y           Z
 ---------------------------------------------------------------------
      1          6           0        1.853117   -0.119756    0.023768
      2          6           0        0.615710    0.410047   -0.023944
      3          6           0       -0.611433   -0.391616   -0.020544
      4          6           0       -1.846182    0.108892    0.013190
      5          1           0        2.738780    0.498763    0.004836
      6          1           0        1.955672   -1.187945    0.025004
      7          1           0        0.483787    1.471922   -0.051576
      8          1           0       -0.516259   -1.465844   -0.009326
      9          1           0       -2.025960    1.178920    0.087144
     10          1           0       -2.703291   -0.541211   -0.010899
 ---------------------------------------------------------------------

 SCF Done:  E(RB2PLYPD3) =  -155.700646413     A.U. after   11 cycles
 E2(B2PLYPD3) =    -0.2256957596D+00 E(B2PLYPD3) =    -0.15592634217223D+03

 The electronic state is 1-A.
 Alpha  occ. eigenvalues --  -10.62669 -10.62460 -10.61622 -10.61430  -0.92751
 Alpha  occ. eigenvalues --   -0.84931  -0.70076  -0.64286  -0.54463  -0.54121
 Alpha  occ. eigenvalues --   -0.46625  -0.45840  -0.41339  -0.37864  -0.27684
 Alpha virt. eigenvalues --    0.01686   0.07000   0.07515   0.08072   0.09530
 Alpha virt. eigenvalues --    0.11680   0.12444   0.14641   0.15885   0.16145
 Alpha virt. eigenvalues --    0.18843   0.20537   0.21455   0.22729   0.24040

 Mulliken charges:
               1
     1  C   -0.175984
     2  C   -0.038386
     3  C   -0.028224
     4  C   -0.177176
     5  H    0.088971
     6  H    0.068031
     7  H    0.058388
     8  H    0.053664
     9  H    0.064857
    10  H    0.085859
 Sum of Mulliken charges =   0.00000

 Dipole moment (field-independent basis, Debye):
    X=             -0.0052    Y=              0.0016    Z=              0.0125  Tot=              0.0137
 Quadrupole moment (field-independent basis, Debye-Ang):
   XX=            -23.4650   YY=            -23.0687   ZZ=            -29.2965
   XY=              0.0063   XZ=             -0.1067   YZ=              0.0343

 1\1\GINC-NODE26\SP\RB2PLYPD3-FC\def2QZVP\C4H6\BOITTIER\26-Aug-2020\0\\
 #p B2PLYPD3/Def2QZVP\\butadiene\\0,1\C,0,-3.853684,0.230349,0.040469\C
 ,0,-2.729035,-0.510264,0.012201\C,0,-1.3799,0.06252,-0.005415\C,0,-0.2
 5249,-0.64633,0.046829\H,0,-4.834468,-0.222839,0.037925\H,0,-3.766541,
 1.299443,0.009008\H,0,-2.786228,-1.579119,0.017166\H,0,-1.284401,1.136
 559,-0.027062\H,0,-0.263739,-1.72855,0.153709\H,0,0.705632,-0.158344,0
 .005337\\Version=ES64L-G09RevD.01\State=1-A\HF=-155.7006464\MP2=-155.9
 263422\RMSD=5.401e-09\PG=C01 [X(C4H6)]\\@

 Normal termination of Gaussian 09 at Wed Aug 26 19:10:41 2020.
