 Gaussian 09, Revision D.01,
 Gaussian 09:  ES64L-G09RevD.01 24-Apr-2013

 --------------------
 #p B2PLYPD3/Def2QZVP
 --------------------

 ---------
 butadiene
 ---------
 Symbolic Z-matrix:
 Charge =  0 Multiplicity = 1

                         Standard orientation:
 ---------------------------------------------------------------------
 Center     Atomic      Atomic             Coordinates (Angstroms)
 Number     Number       Type             X           Y           Z
 ---------------------------------------------------------------------
      1          6           0        1.854600    0.097099    0.004385
      2          6           0        0.611888   -0.377066   -0.030332
      3          6           0       -0.593930    0.423654   -0.032684
      4          6           0       -1.841031   -0.128266    0.027619
      5          1           0        2.696021   -0.587366   -0.011672
      6          1           0        2.085546    1.119377    0.226415
      7          1           0        0.397979   -1.428049   -0.041545
      8          1           0       -0.572112    1.482890   -0.099693
      9          1           0       -2.062610   -1.184010    0.115739
     10          1           0       -2.733992    0.504636   -0.003172
 ---------------------------------------------------------------------

 SCF Done:  E(RB2PLYPD3) =  -155.695879118     A.U. after   11 cycles
 E2(B2PLYPD3) =    -0.2262211220D+00 E(B2PLYPD3) =    -0.15592210024002D+03

 The electronic state is 1-A.
 Alpha  occ. eigenvalues --  -10.62687 -10.62439 -10.62095 -10.61378  -0.92896
 Alpha  occ. eigenvalues --   -0.84616  -0.70479  -0.64571  -0.54443  -0.54097
 Alpha  occ. eigenvalues --   -0.46455  -0.45801  -0.41395  -0.37881  -0.27384
 Alpha virt. eigenvalues --    0.01254   0.06974   0.07565   0.08056   0.09429
 Alpha virt. eigenvalues --    0.11620   0.12401   0.14914   0.15917   0.16195
 Alpha virt. eigenvalues --    0.18898   0.20509   0.21516   0.22751   0.23429

 Mulliken charges:
               1
     1  C   -0.173285
     2  C   -0.035198
     3  C   -0.036723
     4  C   -0.177007
     5  H    0.080028
     6  H    0.073376
     7  H    0.061831
     8  H    0.064757
     9  H    0.065317
    10  H    0.076903
 Sum of Mulliken charges =   0.00000

 Dipole moment (field-independent basis, Debye):
    X=             -0.0636    Y=             -0.0083    Z=              0.1416  Tot=              0.1555
 Quadrupole moment (field-independent basis, Debye-Ang):
   XX=            -23.4461   YY=            -23.1385   ZZ=            -29.2507
   XY=              0.2890   XZ=              0.2764   YZ=              0.0613

 1\1\GINC-NODE16\SP\RB2PLYPD3-FC\def2QZVP\C4H6\BOITTIER\26-Aug-2020\0\\
 #p B2PLYPD3/Def2QZVP\\butadiene\\0,1\C,0,-3.855217,0.214696,0.006839\C
 ,0,-2.719055,-0.475681,0.060574\C,0,-1.388026,0.092885,0.044806\C,0,-0
 .261751,-0.677504,0.005837\H,0,-4.806789,-0.305115,0.039181\H,0,-3.897
 198,1.254949,-0.245741\H,0,-2.699263,-1.54724,0.103188\H,0,-1.217329,1
 .140026,0.080956\H,0,-0.235388,-1.758046,-0.050668\H,0,0.731208,-0.216
 35,0.022038\\Version=ES64L-G09RevD.01\State=1-A\HF=-155.6958791\MP2=-1
 55.9221002\RMSD=6.562e-09\PG=C01 [X(C4H6)]\\@

 Normal termination of Gaussian 09 at Wed Aug 26 09:03:32 2020.
