 Gaussian 09, Revision D.01,
 Gaussian 09:  ES64L-G09RevD.01 24-Apr-2013

 --------------------
 #p B2PLYPD3/Def2QZVP
 --------------------

 ---------
 butadiene
 ---------
 Symbolic Z-matrix:
 Charge =  0 Multiplicity = 1

                         Standard orientation:
 ---------------------------------------------------------------------
 Center     Atomic      Atomic             Coordinates (Angstroms)
 Number     Number       Type             X           Y           Z
 ---------------------------------------------------------------------
      1          6           0       -1.884828    0.073107    0.077133
      2          6           0       -0.608246   -0.340277   -0.065740
      3          6           0        0.633358    0.457394   -0.078019
      4          6           0        1.848453   -0.173334    0.057835
      5          1           0       -2.625045   -0.588469    0.039687
      6          1           0       -2.083659    1.103991    0.094335
      7          1           0       -0.475175   -1.451096   -0.129376
      8          1           0        0.592332    1.537751   -0.192481
      9          1           0        2.007792   -1.226985   -0.004415
     10          1           0        2.651333    0.523469    0.245000
 ---------------------------------------------------------------------

 SCF Done:  E(RB2PLYPD3) =  -155.683789145     A.U. after   12 cycles
 E2(B2PLYPD3) =    -0.2268518854D+00 E(B2PLYPD3) =    -0.15591064103005D+03

 The electronic state is 1-A.
 Alpha  occ. eigenvalues --  -10.63619 -10.63043 -10.62233 -10.60124  -0.92128
 Alpha  occ. eigenvalues --   -0.84902  -0.70688  -0.63866  -0.54917  -0.54117
 Alpha  occ. eigenvalues --   -0.47921  -0.44871  -0.41802  -0.36961  -0.27236
 Alpha virt. eigenvalues --    0.01155   0.07025   0.07435   0.08033   0.09286
 Alpha virt. eigenvalues --    0.11598   0.12308   0.14754   0.15661   0.16422
 Alpha virt. eigenvalues --    0.18925   0.19757   0.21614   0.23070   0.24059

 Mulliken charges:
               1
     1  C   -0.186142
     2  C   -0.019320
     3  C   -0.055509
     4  C   -0.176984
     5  H    0.093860
     6  H    0.064331
     7  H    0.041933
     8  H    0.067904
     9  H    0.087937
    10  H    0.081988
 Sum of Mulliken charges =   0.00000

 Dipole moment (field-independent basis, Debye):
    X=              0.1343    Y=              0.0248    Z=             -0.0541  Tot=              0.1469
 Quadrupole moment (field-independent basis, Debye-Ang):
   XX=            -23.8674   YY=            -22.7939   ZZ=            -29.3287
   XY=             -0.0774   XZ=              0.3569   YZ=              0.1340

 1\1\GINC-NODE23\SP\RB2PLYPD3-FC\def2QZVP\C4H6\BOITTIER\26-Aug-2020\0\\
 #p B2PLYPD3/Def2QZVP\\butadiene\\0,1\C,0,-3.894608,0.1879,0.093036\C,0
 ,-2.710403,-0.447313,-0.029938\C,0,-1.34853,0.120027,-0.067857\C,0,-0.
 261961,-0.707844,0.095625\H,0,-4.739187,-0.335038,0.077871\H,0,-3.9101
 28,1.237578,0.070968\H,0,-2.773752,-1.565882,-0.051502\H,0,-1.200449,1
 .185868,-0.222813\H,0,-0.28945,-1.774706,0.073396\H,0,0.650953,-0.1555
 94,0.259298\\Version=ES64L-G09RevD.01\State=1-A\HF=-155.6837891\MP2=-1
 55.910641\RMSD=3.763e-09\PG=C01 [X(C4H6)]\\@

 Normal termination of Gaussian 09 at Wed Aug 26 13:10:03 2020.
