 Gaussian 09, Revision D.01,
 Gaussian 09:  ES64L-G09RevD.01 24-Apr-2013

 --------------------
 #p B2PLYPD3/Def2QZVP
 --------------------

 ---------
 butadiene
 ---------
 Symbolic Z-matrix:
 Charge =  0 Multiplicity = 1

                         Standard orientation:
 ---------------------------------------------------------------------
 Center     Atomic      Atomic             Coordinates (Angstroms)
 Number     Number       Type             X           Y           Z
 ---------------------------------------------------------------------
      1          6           0       -1.827826   -0.124644   -0.009758
      2          6           0       -0.598855    0.415595    0.016866
      3          6           0        0.599247   -0.384872    0.014107
      4          6           0        1.836518    0.095983   -0.025163
      5          1           0       -2.709066    0.511476   -0.001572
      6          1           0       -2.012648   -1.192040   -0.046664
      7          1           0       -0.499336    1.491535    0.034205
      8          1           0        0.487048   -1.448854    0.014385
      9          1           0        2.002702    1.164501   -0.043853
     10          1           0        2.676794   -0.538991    0.067192
 ---------------------------------------------------------------------

 SCF Done:  E(RB2PLYPD3) =  -155.700388942     A.U. after   11 cycles
 E2(B2PLYPD3) =    -0.2254937479D+00 E(B2PLYPD3) =    -0.15592588268992D+03

 The electronic state is 1-A.
 Alpha  occ. eigenvalues --  -10.62537 -10.62004 -10.61704 -10.60956  -0.93219
 Alpha  occ. eigenvalues --   -0.84977  -0.70300  -0.64331  -0.54797  -0.54159
 Alpha  occ. eigenvalues --   -0.46683  -0.45479  -0.41523  -0.38218  -0.27565
 Alpha virt. eigenvalues --    0.01677   0.07029   0.07480   0.08069   0.09683
 Alpha virt. eigenvalues --    0.11718   0.12451   0.14805   0.15881   0.16226
 Alpha virt. eigenvalues --    0.18800   0.20397   0.21726   0.22725   0.23962

 Mulliken charges:
               1
     1  C   -0.174692
     2  C   -0.036320
     3  C   -0.024444
     4  C   -0.176929
     5  H    0.081397
     6  H    0.068907
     7  H    0.058395
     8  H    0.055592
     9  H    0.061271
    10  H    0.086823
 Sum of Mulliken charges =   0.00000

 Dipole moment (field-independent basis, Debye):
    X=             -0.0369    Y=             -0.0158    Z=              0.0445  Tot=              0.0600
 Quadrupole moment (field-independent basis, Debye-Ang):
   XX=            -23.5556   YY=            -23.0178   ZZ=            -29.2045
   XY=              0.0931   XZ=              0.2194   YZ=             -0.0150

 1\1\GINC-NODE22\SP\RB2PLYPD3-FC\def2QZVP\C4H6\BOITTIER\26-Aug-2020\0\\
 #p B2PLYPD3/Def2QZVP\\butadiene\\0,1\C,0,-3.828065,0.238484,0.029984\C
 ,0,-2.717168,-0.515654,0.01892\C,0,-1.394089,0.054676,-0.00083\C,0,-0.
 263966,-0.64074,0.052289\H,0,-4.809821,-0.227736,0.0397\H,0,-3.816673,
 1.322311,0.036549\H,0,-2.813904,-1.591906,0.032142\H,0,-1.312074,1.120
 973,-0.031325\H,0,-0.293616,-1.720746,0.101327\H,0,0.676795,-0.171048,
 -0.057903\\Version=ES64L-G09RevD.01\State=1-A\HF=-155.7003889\MP2=-155
 .9258827\RMSD=5.479e-09\PG=C01 [X(C4H6)]\\@

 Normal termination of Gaussian 09 at Wed Aug 26 16:26:13 2020.
