 Gaussian 09, Revision D.01,
 Gaussian 09:  ES64L-G09RevD.01 24-Apr-2013

 --------------------
 #p B2PLYPD3/Def2QZVP
 --------------------

 ---------
 butadiene
 ---------
 Symbolic Z-matrix:
 Charge =  0 Multiplicity = 1

                         Standard orientation:
 ---------------------------------------------------------------------
 Center     Atomic      Atomic             Coordinates (Angstroms)
 Number     Number       Type             X           Y           Z
 ---------------------------------------------------------------------
      1          6           0        1.840259    0.099442    0.008571
      2          6           0        0.613600   -0.387903   -0.032588
      3          6           0       -0.605472    0.413727   -0.016317
      4          6           0       -1.837270   -0.126405    0.018297
      5          1           0        2.683792   -0.556011    0.019741
      6          1           0        2.010706    1.168755    0.125795
      7          1           0        0.464696   -1.452143   -0.031290
      8          1           0       -0.479898    1.499771   -0.061056
      9          1           0       -2.041798   -1.193988    0.091791
     10          1           0       -2.704198    0.540449   -0.012758
 ---------------------------------------------------------------------

 SCF Done:  E(RB2PLYPD3) =  -155.699938931     A.U. after   11 cycles
 E2(B2PLYPD3) =    -0.2256470832D+00 E(B2PLYPD3) =    -0.15592558601460D+03

 The electronic state is 1-A.
 Alpha  occ. eigenvalues --  -10.62828 -10.62108 -10.61917 -10.61148  -0.92931
 Alpha  occ. eigenvalues --   -0.84950  -0.70027  -0.63994  -0.54585  -0.53825
 Alpha  occ. eigenvalues --   -0.46747  -0.45664  -0.40963  -0.38051  -0.27754
 Alpha virt. eigenvalues --    0.01801   0.06998   0.07389   0.08059   0.09581
 Alpha virt. eigenvalues --    0.11702   0.12307   0.14829   0.15811   0.16083
 Alpha virt. eigenvalues --    0.18792   0.20513   0.21475   0.22755   0.23819

 Mulliken charges:
               1
     1  C   -0.175197
     2  C   -0.025543
     3  C   -0.037344
     4  C   -0.177204
     5  H    0.086629
     6  H    0.064353
     7  H    0.054664
     8  H    0.056444
     9  H    0.071393
    10  H    0.081804
 Sum of Mulliken charges =   0.00000

 Dipole moment (field-independent basis, Debye):
    X=             -0.0135    Y=             -0.0286    Z=              0.0966  Tot=              0.1017
 Quadrupole moment (field-independent basis, Debye-Ang):
   XX=            -23.6413   YY=            -23.0077   ZZ=            -29.2583
   XY=              0.1953   XZ=              0.1914   YZ=             -0.0357

 1\1\GINC-NODE35\SP\RB2PLYPD3-FC\def2QZVP\C4H6\BOITTIER\26-Aug-2020\0\\
 #p B2PLYPD3/Def2QZVP\\butadiene\\0,1\C,0,-3.843165,0.214338,0.00555\C,
 0,-2.724381,-0.484874,0.063149\C,0,-1.38081,0.08324,0.030355\C,0,-0.26
 6593,-0.670753,0.013572\H,0,-4.79104,-0.278428,0.008397\H,0,-3.818247,
 1.293483,-0.139531\H,0,-2.769742,-1.558199,0.089547\H,0,-1.308511,1.17
 4918,0.046901\H,0,-0.257944,-1.759248,-0.031935\H,0,0.706376,-0.170481
 ,0.030388\\Version=ES64L-G09RevD.01\State=1-A\HF=-155.6999389\MP2=-155
 .925586\RMSD=5.830e-09\PG=C01 [X(C4H6)]\\@

 Normal termination of Gaussian 09 at Wed Aug 26 21:01:09 2020.
