 Gaussian 09, Revision D.01,
 Gaussian 09:  ES64L-G09RevD.01 24-Apr-2013

 --------------------
 #p B2PLYPD3/Def2QZVP
 --------------------

 ---------
 butadiene
 ---------
 Symbolic Z-matrix:
 Charge =  0 Multiplicity = 1

                         Standard orientation:
 ---------------------------------------------------------------------
 Center     Atomic      Atomic             Coordinates (Angstroms)
 Number     Number       Type             X           Y           Z
 ---------------------------------------------------------------------
      1          6           0        1.837830    0.101188   -0.048978
      2          6           0        0.620193   -0.381224    0.027983
      3          6           0       -0.617429    0.412433    0.066621
      4          6           0       -1.851321   -0.114642   -0.025548
      5          1           0        2.684056   -0.578394    0.007540
      6          1           0        2.014137    1.190149   -0.021816
      7          1           0        0.509505   -1.428272    0.072160
      8          1           0       -0.465046    1.491046   -0.015584
      9          1           0       -1.932277   -1.242575   -0.083949
     10          1           0       -2.746019    0.461511   -0.078821
 ---------------------------------------------------------------------

 SCF Done:  E(RB2PLYPD3) =  -155.695728758     A.U. after   11 cycles
 E2(B2PLYPD3) =    -0.2257392771D+00 E(B2PLYPD3) =    -0.15592146803499D+03

 The electronic state is 1-A.
 Alpha  occ. eigenvalues --  -10.62920 -10.62198 -10.61890 -10.61361  -0.92931
 Alpha  occ. eigenvalues --   -0.85112  -0.69767  -0.63985  -0.54705  -0.53597
 Alpha  occ. eigenvalues --   -0.47131  -0.45092  -0.40788  -0.38037  -0.28014
 Alpha virt. eigenvalues --    0.01852   0.06999   0.07369   0.08091   0.09556
 Alpha virt. eigenvalues --    0.11687   0.12398   0.14475   0.15577   0.16262
 Alpha virt. eigenvalues --    0.18810   0.20123   0.21376   0.22797   0.24130

 Mulliken charges:
               1
     1  C   -0.172532
     2  C   -0.021703
     3  C   -0.040434
     4  C   -0.170379
     5  H    0.083945
     6  H    0.062133
     7  H    0.053939
     8  H    0.053496
     9  H    0.058148
    10  H    0.093387
 Sum of Mulliken charges =   0.00000

 Dipole moment (field-independent basis, Debye):
    X=             -0.0258    Y=             -0.0091    Z=             -0.0427  Tot=              0.0507
 Quadrupole moment (field-independent basis, Debye-Ang):
   XX=            -23.5181   YY=            -23.1845   ZZ=            -29.2692
   XY=             -0.1051   XZ=              0.4889   YZ=             -0.1008

 1\1\GINC-NODE04\SP\RB2PLYPD3-FC\def2QZVP\C4H6\BOITTIER\26-Aug-2020\0\\
 #p B2PLYPD3/Def2QZVP\\butadiene\\0,1\C,0,-3.84477,0.208861,0.063477\C,
 0,-2.731409,-0.482742,0.005203\C,0,-1.373045,0.078714,-0.04683\C,0,-0.
 251707,-0.655348,0.065182\H,0,-4.797668,-0.311893,0.019598\H,0,-3.8259
 67,1.310777,0.007924\H,0,-2.807341,-1.533671,-0.011967\H,0,-1.332608,1
 .169042,0.007336\H,0,-0.37127,-1.777974,0.152438\H,0,0.730638,-0.24500
 4,0.108684\\Version=ES64L-G09RevD.01\State=1-A\HF=-155.6957288\MP2=-15
 5.921468\RMSD=6.320e-09\PG=C01 [X(C4H6)]\\@

 Normal termination of Gaussian 09 at Wed Aug 26 10:07:51 2020.
