 Gaussian 09, Revision D.01,
 Gaussian 09:  ES64L-G09RevD.01 24-Apr-2013

 --------------------
 #p B2PLYPD3/Def2QZVP
 --------------------

 ---------
 butadiene
 ---------
 Symbolic Z-matrix:
 Charge =  0 Multiplicity = 1

                         Standard orientation:
 ---------------------------------------------------------------------
 Center     Atomic      Atomic             Coordinates (Angstroms)
 Number     Number       Type             X           Y           Z
 ---------------------------------------------------------------------
      1          6           0        1.842354   -0.125669    0.029047
      2          6           0        0.611927    0.397448   -0.065182
      3          6           0       -0.607776   -0.399041   -0.041751
      4          6           0       -1.842208    0.105086    0.025862
      5          1           0        2.682860    0.564827    0.156074
      6          1           0        2.048400   -1.141399   -0.000989
      7          1           0        0.518989    1.504073   -0.015746
      8          1           0       -0.469666   -1.442597    0.031391
      9          1           0       -2.063001    1.144906    0.067617
     10          1           0       -2.743362   -0.496755    0.073798
 ---------------------------------------------------------------------

 SCF Done:  E(RB2PLYPD3) =  -155.696425950     A.U. after   11 cycles
 E2(B2PLYPD3) =    -0.2255844803D+00 E(B2PLYPD3) =    -0.15592201043040D+03

 The electronic state is 1-A.
 Alpha  occ. eigenvalues --  -10.62865 -10.62368 -10.61361 -10.61257  -0.92889
 Alpha  occ. eigenvalues --   -0.84976  -0.70514  -0.64463  -0.54562  -0.54396
 Alpha  occ. eigenvalues --   -0.46631  -0.45856  -0.41074  -0.38004  -0.27634
 Alpha virt. eigenvalues --    0.01627   0.06966   0.07571   0.08020   0.09505
 Alpha virt. eigenvalues --    0.11665   0.12503   0.14848   0.15849   0.16246
 Alpha virt. eigenvalues --    0.18889   0.20175   0.21970   0.23087   0.23684

 Mulliken charges:
               1
     1  C   -0.180082
     2  C   -0.026463
     3  C   -0.040329
     4  C   -0.167857
     5  H    0.080286
     6  H    0.074698
     7  H    0.053864
     8  H    0.063032
     9  H    0.064261
    10  H    0.078591
 Sum of Mulliken charges =   0.00000

 Dipole moment (field-independent basis, Debye):
    X=             -0.0105    Y=             -0.0200    Z=              0.2028  Tot=              0.2040
 Quadrupole moment (field-independent basis, Debye-Ang):
   XX=            -23.3550   YY=            -23.1178   ZZ=            -29.1998
   XY=             -0.3571   XZ=              0.0793   YZ=              0.1023

 1\1\GINC-NODE26\SP\RB2PLYPD3-FC\def2QZVP\C4H6\BOITTIER\26-Aug-2020\0\\
 #p B2PLYPD3/Def2QZVP\\butadiene\\0,1\C,0,-3.841921,0.237145,0.052854\C
 ,0,-2.725486,-0.500793,-0.021315\C,0,-1.382801,0.064724,-0.023839\C,0,
 -0.25825,-0.649676,0.063081\H,0,-4.791843,-0.286872,0.202609\H,0,-3.86
 2944,1.271703,-0.012816\H,0,-2.831922,-1.603797,0.066742\H,0,-1.33151,
 1.118035,0.012737\H,0,-0.226975,-1.710156,0.141323\H,0,0.736307,-0.217
 651,0.091357\\Version=ES64L-G09RevD.01\State=1-A\HF=-155.696426\MP2=-1
 55.9220104\RMSD=5.418e-09\PG=C01 [X(C4H6)]\\@

 Normal termination of Gaussian 09 at Wed Aug 26 09:12:54 2020.
