 Gaussian 09, Revision D.01,
 Gaussian 09:  ES64L-G09RevD.01 24-Apr-2013

 --------------------
 #p B2PLYPD3/Def2QZVP
 --------------------

 ---------
 butadiene
 ---------
 Symbolic Z-matrix:
 Charge =  0 Multiplicity = 1

                         Standard orientation:
 ---------------------------------------------------------------------
 Center     Atomic      Atomic             Coordinates (Angstroms)
 Number     Number       Type             X           Y           Z
 ---------------------------------------------------------------------
      1          6           0        1.814882   -0.139550    0.054113
      2          6           0        0.629855    0.435461   -0.029549
      3          6           0       -0.591237   -0.376275   -0.073841
      4          6           0       -1.860504    0.075068    0.032183
      5          1           0        2.784917    0.431099    0.194537
      6          1           0        1.816096   -1.279120   -0.164248
      7          1           0        0.599505    1.577239   -0.135253
      8          1           0       -0.389732   -1.379279    0.014984
      9          1           0       -2.016352    1.213387   -0.009347
     10          1           0       -2.752415   -0.531552    0.201887
 ---------------------------------------------------------------------

 SCF Done:  E(RB2PLYPD3) =  -155.678442323     A.U. after   11 cycles
 E2(B2PLYPD3) =    -0.2275269137D+00 E(B2PLYPD3) =    -0.15590596923708D+03

 The electronic state is 1-A.
 Alpha  occ. eigenvalues --  -10.63210 -10.62725 -10.62671 -10.62462  -0.93023
 Alpha  occ. eigenvalues --   -0.84564  -0.69167  -0.63422  -0.54360  -0.52809
 Alpha  occ. eigenvalues --   -0.46788  -0.44051  -0.41170  -0.37658  -0.27711
 Alpha virt. eigenvalues --    0.01676   0.06932   0.07064   0.07799   0.09078
 Alpha virt. eigenvalues --    0.11543   0.12408   0.14032   0.15399   0.16404
 Alpha virt. eigenvalues --    0.18428   0.19719   0.20955   0.23119   0.23995

 Mulliken charges:
               1
     1  C   -0.170527
     2  C   -0.022259
     3  C   -0.041863
     4  C   -0.171600
     5  H    0.087885
     6  H    0.055842
     7  H    0.050492
     8  H    0.064567
     9  H    0.056539
    10  H    0.090922
 Sum of Mulliken charges =   0.00000

 Dipole moment (field-independent basis, Debye):
    X=              0.0744    Y=              0.0158    Z=              0.0336  Tot=              0.0831
 Quadrupole moment (field-independent basis, Debye-Ang):
   XX=            -23.5415   YY=            -23.4604   ZZ=            -29.3771
   XY=              0.3879   XZ=             -0.4412   YZ=             -0.0431

 1\1\GINC-NODE35\SP\RB2PLYPD3-FC\def2QZVP\C4H6\BOITTIER\26-Aug-2020\0\\
 #p B2PLYPD3/Def2QZVP\\butadiene\\0,1\C,0,-3.815607,0.239028,0.068631\C
 ,0,-2.748894,-0.535273,0.00149\C,0,-1.404813,0.050116,-0.050559\C,0,-0
 .233996,-0.613652,0.070224\H,0,-4.870632,-0.151034,0.21389\H,0,-3.6175
 01,1.357154,-0.169804\H,0,-2.91798,-1.666587,-0.08389\H,0,-1.428431,1.
 074347,0.019474\H,0,-0.279047,-1.762272,0.04962\H,0,0.749695,-0.168874
 ,0.233986\\Version=ES64L-G09RevD.01\State=1-A\HF=-155.6784423\MP2=-155
 .9059692\RMSD=7.926e-09\PG=C01 [X(C4H6)]\\@

 Normal termination of Gaussian 09 at Wed Aug 26 12:48:48 2020.
