 Gaussian 09, Revision D.01,
 Gaussian 09:  ES64L-G09RevD.01 24-Apr-2013

 --------------------
 #p B2PLYPD3/Def2QZVP
 --------------------

 ---------
 butadiene
 ---------
 Symbolic Z-matrix:
 Charge =  0 Multiplicity = 1

                         Standard orientation:
 ---------------------------------------------------------------------
 Center     Atomic      Atomic             Coordinates (Angstroms)
 Number     Number       Type             X           Y           Z
 ---------------------------------------------------------------------
      1          6           0        1.849917   -0.160764    0.039990
      2          6           0        0.601789    0.413074   -0.090824
      3          6           0       -0.625173   -0.308575   -0.033853
      4          6           0       -1.851767    0.076463    0.083246
      5          1           0        2.664182    0.513929    0.270819
      6          1           0        2.011647   -1.212333   -0.016304
      7          1           0        0.553852    1.554665   -0.058069
      8          1           0       -0.434126   -1.443275   -0.183264
      9          1           0       -1.970215    1.154602   -0.094112
     10          1           0       -2.673937   -0.688781    0.089577
 ---------------------------------------------------------------------

 SCF Done:  E(RB2PLYPD3) =  -155.676503360     A.U. after   12 cycles
 E2(B2PLYPD3) =    -0.2276119936D+00 E(B2PLYPD3) =    -0.15590411535397D+03

 The electronic state is 1-A.
 Alpha  occ. eigenvalues --  -10.63761 -10.62487 -10.62352 -10.61448  -0.93343
 Alpha  occ. eigenvalues --   -0.85173  -0.70560  -0.62330  -0.54458  -0.53528
 Alpha  occ. eigenvalues --   -0.46559  -0.45696  -0.40684  -0.37434  -0.27635
 Alpha virt. eigenvalues --    0.00967   0.06860   0.07055   0.07804   0.09857
 Alpha virt. eigenvalues --    0.11668   0.12154   0.14747   0.15512   0.15992
 Alpha virt. eigenvalues --    0.18750   0.19683   0.20919   0.22983   0.24264

 Mulliken charges:
               1
     1  C   -0.177062
     2  C   -0.041011
     3  C    0.008738
     4  C   -0.178927
     5  H    0.089892
     6  H    0.079218
     7  H    0.038440
     8  H    0.024336
     9  H    0.062563
    10  H    0.093812
 Sum of Mulliken charges =   0.00000

 Dipole moment (field-independent basis, Debye):
    X=              0.1486    Y=             -0.0494    Z=             -0.0766  Tot=              0.1743
 Quadrupole moment (field-independent basis, Debye-Ang):
   XX=            -23.9091   YY=            -23.3411   ZZ=            -29.2692
   XY=              0.2077   XZ=              0.8484   YZ=              0.1367

 1\1\GINC-NODE37\SP\RB2PLYPD3-FC\def2QZVP\C4H6\BOITTIER\26-Aug-2020\0\\
 #p B2PLYPD3/Def2QZVP\\butadiene\\0,1\C,0,-3.847258,0.26966,0.067439\C,
 0,-2.719951,-0.51742,-0.050505\C,0,-1.385267,-0.020176,-0.0218\C,0,-0.
 243735,-0.610128,0.102141\H,0,-4.764583,-0.244802,0.323105\H,0,-3.8232
 95,1.331091,-0.021511\H,0,-2.871913,-1.64825,0.018271\H,0,-1.376556,1.
 125354,-0.206332\H,0,-0.317251,-1.697261,-0.041409\H,0,0.699526,-0.000
 704,0.080604\\Version=ES64L-G09RevD.01\State=1-A\HF=-155.6765034\MP2=-
 155.9041154\RMSD=3.823e-09\PG=C01 [X(C4H6)]\\@

 Normal termination of Gaussian 09 at Wed Aug 26 14:50:06 2020.
