 Gaussian 09, Revision D.01,
 Gaussian 09:  ES64L-G09RevD.01 24-Apr-2013

 --------------------
 #p B2PLYPD3/Def2QZVP
 --------------------

 ---------
 butadiene
 ---------
 Symbolic Z-matrix:
 Charge =  0 Multiplicity = 1

                         Standard orientation:
 ---------------------------------------------------------------------
 Center     Atomic      Atomic             Coordinates (Angstroms)
 Number     Number       Type             X           Y           Z
 ---------------------------------------------------------------------
      1          6           0       -1.850118    0.103322    0.026840
      2          6           0       -0.610972   -0.394782   -0.018343
      3          6           0        0.613622    0.398365   -0.038228
      4          6           0        1.849404   -0.114057    0.016213
      5          1           0       -2.732759   -0.514351    0.032042
      6          1           0       -2.013843    1.187490   -0.025018
      7          1           0       -0.462438   -1.440147   -0.027427
      8          1           0        0.516656    1.484544    0.021966
      9          1           0        1.973184   -1.195699    0.014557
     10          1           0        2.707588    0.521080    0.064989
 ---------------------------------------------------------------------

 SCF Done:  E(RB2PLYPD3) =  -155.699872099     A.U. after   11 cycles
 E2(B2PLYPD3) =    -0.2257191221D+00 E(B2PLYPD3) =    -0.15592559122126D+03

 The electronic state is 1-A.
 Alpha  occ. eigenvalues --  -10.62614 -10.62367 -10.61702 -10.61536  -0.92886
 Alpha  occ. eigenvalues --   -0.84961  -0.70204  -0.64169  -0.54748  -0.53903
 Alpha  occ. eigenvalues --   -0.46951  -0.45463  -0.41175  -0.38020  -0.27730
 Alpha virt. eigenvalues --    0.01646   0.07012   0.07480   0.08090   0.09589
 Alpha virt. eigenvalues --    0.11670   0.12465   0.14605   0.15786   0.16228
 Alpha virt. eigenvalues --    0.18842   0.20343   0.21528   0.22990   0.23874

 Mulliken charges:
               1
     1  C   -0.171750
     2  C   -0.036836
     3  C   -0.025588
     4  C   -0.179289
     5  H    0.086824
     6  H    0.063496
     7  H    0.057270
     8  H    0.051398
     9  H    0.063878
    10  H    0.090597
 Sum of Mulliken charges =   0.00000

 Dipole moment (field-independent basis, Debye):
    X=              0.0050    Y=             -0.0104    Z=              0.0338  Tot=              0.0357
 Quadrupole moment (field-independent basis, Debye-Ang):
   XX=            -23.3732   YY=            -23.1663   ZZ=            -29.2792
   XY=              0.0238   XZ=              0.2321   YZ=              0.0449

 1\1\GINC-NODE13\SP\RB2PLYPD3-FC\def2QZVP\C4H6\BOITTIER\26-Aug-2020\0\\
 #p B2PLYPD3/Def2QZVP\\butadiene\\0,1\C,0,-3.854512,0.216798,0.044046\C
 ,0,-2.723608,-0.494481,0.016295\C,0,-1.37763,0.067757,-0.020311\C,0,-0
 .25245,-0.654361,0.051892\H,0,-4.832825,-0.233939,0.062518\H,0,-3.8231
 23,1.31104,-0.036982\H,0,-2.763133,-1.549473,0.035326\H,0,-1.28004,1.1
 551,0.010849\H,0,-0.32277,-1.740446,0.079222\H,0,0.704968,-0.180664,0.
 086834\\Version=ES64L-G09RevD.01\State=1-A\HF=-155.6998721\MP2=-155.92
 55912\RMSD=3.634e-09\PG=C01 [X(C4H6)]\\@

 Normal termination of Gaussian 09 at Wed Aug 26 18:30:39 2020.
