 Gaussian 09, Revision D.01,
 Gaussian 09:  ES64L-G09RevD.01 24-Apr-2013

 --------------------
 #p B2PLYPD3/Def2QZVP
 --------------------

 ---------
 butadiene
 ---------
 Symbolic Z-matrix:
 Charge =  0 Multiplicity = 1

                         Standard orientation:
 ---------------------------------------------------------------------
 Center     Atomic      Atomic             Coordinates (Angstroms)
 Number     Number       Type             X           Y           Z
 ---------------------------------------------------------------------
      1          6           0        1.818400    0.123165   -0.048587
      2          6           0        0.612692   -0.403148    0.062900
      3          6           0       -0.606277    0.440961    0.028604
      4          6           0       -1.819543   -0.123341   -0.043005
      5          1           0        2.663919   -0.598857   -0.131973
      6          1           0        1.873507    1.201143   -0.164537
      7          1           0        0.524457   -1.444657    0.362057
      8          1           0       -0.447115    1.465434    0.227171
      9          1           0       -1.805271   -1.214628   -0.313949
     10          1           0       -2.841130    0.365743    0.021761
 ---------------------------------------------------------------------

 SCF Done:  E(RB2PLYPD3) =  -155.684704161     A.U. after   11 cycles
 E2(B2PLYPD3) =    -0.2266761577D+00 E(B2PLYPD3) =    -0.15591138031910D+03

 The electronic state is 1-A.
 Alpha  occ. eigenvalues --  -10.62624 -10.62497 -10.62263 -10.61506  -0.92991
 Alpha  occ. eigenvalues --   -0.84800  -0.68647  -0.64221  -0.54117  -0.53475
 Alpha  occ. eigenvalues --   -0.46560  -0.45136  -0.41087  -0.37104  -0.27977
 Alpha virt. eigenvalues --    0.02146   0.07122   0.07391   0.07571   0.08881
 Alpha virt. eigenvalues --    0.11666   0.12477   0.14198   0.14967   0.16165
 Alpha virt. eigenvalues --    0.18553   0.19223   0.21279   0.22693   0.24042

 Mulliken charges:
               1
     1  C   -0.182142
     2  C   -0.031113
     3  C   -0.047275
     4  C   -0.172756
     5  H    0.086556
     6  H    0.067802
     7  H    0.069430
     8  H    0.065946
     9  H    0.059311
    10  H    0.084242
 Sum of Mulliken charges =   0.00000

 Dipole moment (field-independent basis, Debye):
    X=             -0.0129    Y=              0.0045    Z=              0.0774  Tot=              0.0786
 Quadrupole moment (field-independent basis, Debye-Ang):
   XX=            -24.0219   YY=            -23.2965   ZZ=            -29.0997
   XY=             -0.2545   XZ=             -0.1943   YZ=              0.1457

 1\1\GINC-NODE36\SP\RB2PLYPD3-FC\def2QZVP\C4H6\BOITTIER\26-Aug-2020\0\\
 #p B2PLYPD3/Def2QZVP\\butadiene\\0,1\C,0,-3.821735,0.217752,0.065193\C
 ,0,-2.72541,-0.512406,-0.024836\C,0,-1.37904,0.109575,-0.021697\C,0,-0
 .280787,-0.652336,0.072699\H,0,-4.778547,-0.343986,0.175344\H,0,-3.689
 599,1.292698,0.139691\H,0,-2.81966,-1.564115,-0.283771\H,0,-1.36039,1.
 13787,-0.259538\H,0,-0.48138,-1.713747,0.385251\H,0,0.809419,-0.349528
 ,-0.009742\\Version=ES64L-G09RevD.01\State=1-A\HF=-155.6847042\MP2=-15
 5.9113803\RMSD=4.651e-09\PG=C01 [X(C4H6)]\\@

 Normal termination of Gaussian 09 at Wed Aug 26 13:05:05 2020.
