 Gaussian 09, Revision D.01,
 Gaussian 09:  ES64L-G09RevD.01 24-Apr-2013

 --------------------
 #p B2PLYPD3/Def2QZVP
 --------------------

 ---------
 butadiene
 ---------
 Symbolic Z-matrix:
 Charge =  0 Multiplicity = 1

                         Standard orientation:
 ---------------------------------------------------------------------
 Center     Atomic      Atomic             Coordinates (Angstroms)
 Number     Number       Type             X           Y           Z
 ---------------------------------------------------------------------
      1          6           0       -1.823330   -0.133211    0.022035
      2          6           0       -0.587904    0.434072   -0.049456
      3          6           0        0.591807   -0.381813   -0.035066
      4          6           0        1.828795    0.080044    0.013137
      5          1           0       -2.717426    0.465623    0.132185
      6          1           0       -1.985941   -1.189017    0.008713
      7          1           0       -0.494582    1.521297   -0.037827
      8          1           0        0.464498   -1.410624    0.017296
      9          1           0        2.000086    1.169785    0.108907
     10          1           0        2.677158   -0.551617    0.066831
 ---------------------------------------------------------------------

 SCF Done:  E(RB2PLYPD3) =  -155.696365118     A.U. after   11 cycles
 E2(B2PLYPD3) =    -0.2258051069D+00 E(B2PLYPD3) =    -0.15592217022503D+03

 The electronic state is 1-A.
 Alpha  occ. eigenvalues --  -10.62909 -10.61760 -10.61551 -10.61088  -0.93359
 Alpha  occ. eigenvalues --   -0.84740  -0.70380  -0.64668  -0.55022  -0.53978
 Alpha  occ. eigenvalues --   -0.46556  -0.45424  -0.41805  -0.38238  -0.27337
 Alpha virt. eigenvalues --    0.01539   0.07050   0.07476   0.08119   0.09518
 Alpha virt. eigenvalues --    0.11701   0.12539   0.14733   0.15888   0.16364
 Alpha virt. eigenvalues --    0.18768   0.20405   0.21696   0.22960   0.23913

 Mulliken charges:
               1
     1  C   -0.177844
     2  C   -0.035662
     3  C   -0.025376
     4  C   -0.173986
     5  H    0.080488
     6  H    0.069501
     7  H    0.060379
     8  H    0.060357
     9  H    0.056774
    10  H    0.085370
 Sum of Mulliken charges =   0.00000

 Dipole moment (field-independent basis, Debye):
    X=             -0.0512    Y=             -0.0569    Z=              0.2114  Tot=              0.2248
 Quadrupole moment (field-independent basis, Debye-Ang):
   XX=            -23.5885   YY=            -23.0346   ZZ=            -29.1928
   XY=              0.0833   XZ=              0.0207   YZ=              0.0856

 1\1\GINC-NODE05\SP\RB2PLYPD3-FC\def2QZVP\C4H6\BOITTIER\26-Aug-2020\0\\
 #p B2PLYPD3/Def2QZVP\\butadiene\\0,1\C,0,-3.821157,0.249177,-0.009245\
 C,0,-2.710487,-0.532887,0.080129\C,0,-1.401198,0.05198,0.044273\C,0,-0
 .270109,-0.630153,0.011008\H,0,-4.810337,-0.178322,-0.103632\H,0,-3.78
 729,1.316844,-0.026164\H,0,-2.818224,-1.618667,0.099533\H,0,-1.337829,
 1.084792,-0.037486\H,0,-0.301979,-1.735082,-0.053511\H,0,0.679516,-0.1
 66626,-0.059382\\Version=ES64L-G09RevD.01\State=1-A\HF=-155.6963651\MP
 2=-155.9221702\RMSD=5.718e-09\PG=C01 [X(C4H6)]\\@

 Normal termination of Gaussian 09 at Wed Aug 26 12:01:49 2020.
