 Gaussian 09, Revision D.01,
 Gaussian 09:  ES64L-G09RevD.01 24-Apr-2013

 --------------------
 #p B2PLYPD3/Def2QZVP
 --------------------

 ---------
 butadiene
 ---------
 Symbolic Z-matrix:
 Charge =  0 Multiplicity = 1

                         Standard orientation:
 ---------------------------------------------------------------------
 Center     Atomic      Atomic             Coordinates (Angstroms)
 Number     Number       Type             X           Y           Z
 ---------------------------------------------------------------------
      1          6           0        1.834698    0.124262    0.006261
      2          6           0        0.618632   -0.417995   -0.024310
      3          6           0       -0.605504    0.382949   -0.019799
      4          6           0       -1.844853   -0.099789    0.014197
      5          1           0        2.724027   -0.499108    0.072188
      6          1           0        2.005063    1.206515    0.016698
      7          1           0        0.514506   -1.484083   -0.016884
      8          1           0       -0.496448    1.480368    0.019561
      9          1           0       -2.015083   -1.158642    0.045242
     10          1           0       -2.749910    0.518387    0.005099
 ---------------------------------------------------------------------

 SCF Done:  E(RB2PLYPD3) =  -155.700061233     A.U. after   11 cycles
 E2(B2PLYPD3) =    -0.2256274493D+00 E(B2PLYPD3) =    -0.15592568868208D+03

 The electronic state is 1-A.
 Alpha  occ. eigenvalues --  -10.62686 -10.62577 -10.61756 -10.61410  -0.92877
 Alpha  occ. eigenvalues --   -0.85002  -0.69882  -0.64067  -0.54545  -0.53908
 Alpha  occ. eigenvalues --   -0.46899  -0.45147  -0.40958  -0.38095  -0.27841
 Alpha virt. eigenvalues --    0.01862   0.06983   0.07434   0.07991   0.09587
 Alpha virt. eigenvalues --    0.11618   0.12461   0.14581   0.15846   0.16285
 Alpha virt. eigenvalues --    0.18854   0.20362   0.21735   0.22750   0.23668

 Mulliken charges:
               1
     1  C   -0.167827
     2  C   -0.040922
     3  C   -0.025147
     4  C   -0.174013
     5  H    0.082314
     6  H    0.067344
     7  H    0.060728
     8  H    0.051895
     9  H    0.060652
    10  H    0.084976
 Sum of Mulliken charges =   0.00000

 Dipole moment (field-independent basis, Debye):
    X=              0.0369    Y=             -0.0274    Z=              0.0982  Tot=              0.1084
 Quadrupole moment (field-independent basis, Debye-Ang):
   XX=            -23.3371   YY=            -23.1525   ZZ=            -29.2801
   XY=              0.1095   XZ=              0.1318   YZ=             -0.0291

 1\1\GINC-NODE16\SP\RB2PLYPD3-FC\def2QZVP\C4H6\BOITTIER\26-Aug-2020\0\\
 #p B2PLYPD3/Def2QZVP\\butadiene\\0,1\C,0,-3.835177,0.2323,0.007231\C,0
 ,-2.734064,-0.515266,0.057114\C,0,-1.38762,0.056139,0.032091\C,0,-0.25
 3238,-0.638905,0.015731\H,0,-4.820879,-0.225693,-0.042532\H,0,-3.81154
 1,1.326831,-0.035772\H,0,-2.820084,-1.582713,0.081605\H,0,-1.301036,1.
 153892,-0.040109\H,0,-0.272979,-1.711622,0.016575\H,0,0.746877,-0.1904
 89,0.008887\\Version=ES64L-G09RevD.01\State=1-A\HF=-155.7000612\MP2=-1
 55.9256887\RMSD=4.677e-09\PG=C01 [X(C4H6)]\\@

 Normal termination of Gaussian 09 at Wed Aug 26 19:12:16 2020.
