 Gaussian 09, Revision D.01,
 Gaussian 09:  ES64L-G09RevD.01 24-Apr-2013

 --------------------
 #p B2PLYPD3/Def2QZVP
 --------------------

 ---------
 butadiene
 ---------
 Symbolic Z-matrix:
 Charge =  0 Multiplicity = 1

                         Standard orientation:
 ---------------------------------------------------------------------
 Center     Atomic      Atomic             Coordinates (Angstroms)
 Number     Number       Type             X           Y           Z
 ---------------------------------------------------------------------
      1          6           0        1.836703   -0.084028   -0.039308
      2          6           0        0.603876    0.390329    0.034486
      3          6           0       -0.589708   -0.430223    0.051327
      4          6           0       -1.830405    0.111415   -0.022865
      5          1           0        2.744923    0.497567   -0.021445
      6          1           0        1.961358   -1.149488    0.004919
      7          1           0        0.414327    1.455894    0.023650
      8          1           0       -0.447381   -1.456757   -0.042049
      9          1           0       -2.037554    1.185485   -0.049357
     10          1           0       -2.758472   -0.457659   -0.057558
 ---------------------------------------------------------------------

 SCF Done:  E(RB2PLYPD3) =  -155.696189273     A.U. after   11 cycles
 E2(B2PLYPD3) =    -0.2258555254D+00 E(B2PLYPD3) =    -0.15592204479858D+03

 The electronic state is 1-A.
 Alpha  occ. eigenvalues --  -10.62537 -10.62226 -10.62171 -10.61141  -0.93204
 Alpha  occ. eigenvalues --   -0.84678  -0.70448  -0.64821  -0.55158  -0.53508
 Alpha  occ. eigenvalues --   -0.47426  -0.45029  -0.41204  -0.38152  -0.27569
 Alpha virt. eigenvalues --    0.01532   0.07026   0.07463   0.08233   0.09402
 Alpha virt. eigenvalues --    0.11645   0.12716   0.14587   0.15762   0.16325
 Alpha virt. eigenvalues --    0.18848   0.20180   0.22158   0.23138   0.23490

 Mulliken charges:
               1
     1  C   -0.173380
     2  C   -0.019311
     3  C   -0.042582
     4  C   -0.169864
     5  H    0.086810
     6  H    0.056719
     7  H    0.054163
     8  H    0.067192
     9  H    0.061812
    10  H    0.078440
 Sum of Mulliken charges =   0.00000

 Dipole moment (field-independent basis, Debye):
    X=             -0.0516    Y=              0.0049    Z=             -0.0661  Tot=              0.0840
 Quadrupole moment (field-independent basis, Debye-Ang):
   XX=            -23.1093   YY=            -23.3398   ZZ=            -29.2269
   XY=             -0.3358   XZ=              0.2797   YZ=              0.0338

 1\1\GINC-NODE34\SP\RB2PLYPD3-FC\def2QZVP\C4H6\BOITTIER\26-Aug-2020\0\\
 #p B2PLYPD3/Def2QZVP\\butadiene\\0,1\C,0,-3.839793,0.205391,-0.019097\
 C,0,-2.71579,-0.486903,0.068478\C,0,-1.390761,0.098302,0.06035\C,0,-0.
 272359,-0.665882,0.002018\H,0,-4.839926,-0.196984,0.016471\H,0,-3.7646
 18,1.276323,-0.006764\H,0,-2.727019,-1.568987,0.089504\H,0,-1.340972,1
 .130235,-0.063687\H,0,-0.267961,-1.760043,0.007644\H,0,0.744858,-0.279
 98,-0.050003\\Version=ES64L-G09RevD.01\State=1-A\HF=-155.6961893\MP2=-
 155.9220448\RMSD=6.553e-09\PG=C01 [X(C4H6)]\\@

 Normal termination of Gaussian 09 at Wed Aug 26 08:45:22 2020.
