 Gaussian 09, Revision D.01,
 Gaussian 09:  ES64L-G09RevD.01 24-Apr-2013

 --------------------
 #p B2PLYPD3/Def2QZVP
 --------------------

 ---------
 butadiene
 ---------
 Symbolic Z-matrix:
 Charge =  0 Multiplicity = 1

                         Standard orientation:
 ---------------------------------------------------------------------
 Center     Atomic      Atomic             Coordinates (Angstroms)
 Number     Number       Type             X           Y           Z
 ---------------------------------------------------------------------
      1          6           0        1.834274    0.100289   -0.016577
      2          6           0        0.596173   -0.400596    0.024082
      3          6           0       -0.604143    0.416951    0.004036
      4          6           0       -1.837807   -0.104746   -0.029574
      5          1           0        2.720466   -0.527849   -0.008583
      6          1           0        2.047620    1.152073   -0.059804
      7          1           0        0.430427   -1.443012    0.055076
      8          1           0       -0.447642    1.480355    0.108158
      9          1           0       -1.938951   -1.199179   -0.010019
     10          1           0       -2.742905    0.466225    0.023365
 ---------------------------------------------------------------------

 SCF Done:  E(RB2PLYPD3) =  -155.699537056     A.U. after   11 cycles
 E2(B2PLYPD3) =    -0.2257008689D+00 E(B2PLYPD3) =    -0.15592523792513D+03

 The electronic state is 1-A.
 Alpha  occ. eigenvalues --  -10.62512 -10.62269 -10.61671 -10.61503  -0.93087
 Alpha  occ. eigenvalues --   -0.84745  -0.70318  -0.64576  -0.55007  -0.53564
 Alpha  occ. eigenvalues --   -0.47236  -0.45381  -0.41240  -0.38022  -0.27623
 Alpha virt. eigenvalues --    0.01668   0.07037   0.07433   0.08176   0.09470
 Alpha virt. eigenvalues --    0.11665   0.12598   0.14655   0.15778   0.16273
 Alpha virt. eigenvalues --    0.18810   0.20412   0.21833   0.22923   0.23711

 Mulliken charges:
               1
     1  C   -0.173872
     2  C   -0.032475
     3  C   -0.029932
     4  C   -0.174369
     5  H    0.080956
     6  H    0.065776
     7  H    0.060063
     8  H    0.057854
     9  H    0.057743
    10  H    0.088255
 Sum of Mulliken charges =   0.00000

 Dipole moment (field-independent basis, Debye):
    X=              0.0115    Y=              0.0175    Z=              0.1200  Tot=              0.1218
 Quadrupole moment (field-independent basis, Debye-Ang):
   XX=            -23.3085   YY=            -23.2231   ZZ=            -29.2376
   XY=              0.2502   XZ=             -0.2582   YZ=              0.0289

 1\1\GINC-NODE04\SP\RB2PLYPD3-FC\def2QZVP\C4H6\BOITTIER\26-Aug-2020\0\\
 #p B2PLYPD3/Def2QZVP\\butadiene\\0,1\C,0,-3.838235,0.219943,0.03575\C,
 0,-2.713409,-0.500897,0.011433\C,0,-1.383301,0.082462,0.004512\C,0,-0.
 266203,-0.655613,0.055107\H,0,-4.824717,-0.234644,0.048469\H,0,-3.8545
 87,1.293857,0.044448\H,0,-2.742052,-1.556469,0.01466\H,0,-1.342545,1.1
 52599,-0.134447\H,0,-0.367828,-1.750054,0.07148\H,0,0.727995,-0.262628
 ,-0.016636\\Version=ES64L-G09RevD.01\State=1-A\HF=-155.6995371\MP2=-15
 5.9252379\RMSD=2.969e-09\PG=C01 [X(C4H6)]\\@

 Normal termination of Gaussian 09 at Wed Aug 26 18:38:06 2020.
