 Gaussian 09, Revision D.01,
 Gaussian 09:  ES64L-G09RevD.01 24-Apr-2013

 --------------------
 #p B2PLYPD3/Def2QZVP
 --------------------

 ---------
 butadiene
 ---------
 Symbolic Z-matrix:
 Charge =  0 Multiplicity = 1

                         Standard orientation:
 ---------------------------------------------------------------------
 Center     Atomic      Atomic             Coordinates (Angstroms)
 Number     Number       Type             X           Y           Z
 ---------------------------------------------------------------------
      1          6           0       -1.820420    0.098689    0.019298
      2          6           0       -0.594392   -0.369340   -0.005632
      3          6           0        0.605646    0.435957   -0.078076
      4          6           0        1.789244   -0.132950    0.069967
      5          1           0       -2.568063   -0.666235   -0.084956
      6          1           0       -2.109479    1.154550    0.244156
      7          1           0       -0.438234   -1.408775   -0.151597
      8          1           0        0.552772    1.586031   -0.084845
      9          1           0        1.825207   -1.250585    0.120939
     10          1           0        2.857325    0.390877   -0.077038
 ---------------------------------------------------------------------

 SCF Done:  E(RB2PLYPD3) =  -155.679371588     A.U. after   11 cycles
 E2(B2PLYPD3) =    -0.2267572235D+00 E(B2PLYPD3) =    -0.15590612881108D+03

 The electronic state is 1-A.
 Alpha  occ. eigenvalues --  -10.62962 -10.62798 -10.61884 -10.61316  -0.93571
 Alpha  occ. eigenvalues --   -0.85122  -0.68831  -0.63404  -0.54154  -0.53242
 Alpha  occ. eigenvalues --   -0.46180  -0.44595  -0.40397  -0.38325  -0.28038
 Alpha virt. eigenvalues --    0.01959   0.06959   0.07133   0.07708   0.09364
 Alpha virt. eigenvalues --    0.11539   0.12170   0.14542   0.15269   0.16416
 Alpha virt. eigenvalues --    0.18436   0.19574   0.21126   0.22403   0.24485

 Mulliken charges:
               1
     1  C   -0.180195
     2  C   -0.029094
     3  C   -0.034022
     4  C   -0.151428
     5  H    0.076794
     6  H    0.078890
     7  H    0.060767
     8  H    0.054833
     9  H    0.050589
    10  H    0.072866
 Sum of Mulliken charges =   0.00000

 Dipole moment (field-independent basis, Debye):
    X=              0.0093    Y=             -0.0402    Z=             -0.0706  Tot=              0.0818
 Quadrupole moment (field-independent basis, Debye-Ang):
   XX=            -24.0380   YY=            -23.1241   ZZ=            -29.2245
   XY=             -0.1421   XZ=             -0.2785   YZ=              0.3223

 1\1\GINC-NODE05\SP\RB2PLYPD3-FC\def2QZVP\C4H6\BOITTIER\26-Aug-2020\0\\
 #p B2PLYPD3/Def2QZVP\\butadiene\\0,1\C,0,-3.823846,0.204391,0.044606\C
 ,0,-2.701259,-0.475464,0.024273\C,0,-1.377026,0.101349,-0.062535\C,0,-
 0.31341,-0.667689,0.091674\H,0,-4.696565,-0.416064,-0.046751\H,0,-3.91
 8628,1.298023,0.254235\H,0,-2.733944,-1.528059,-0.106458\H,0,-1.223658
 ,1.242147,-0.086376\H,0,-0.47742,-1.772918,0.159261\H,0,0.830372,-0.34
 5282,-0.065225\\Version=ES64L-G09RevD.01\State=1-A\HF=-155.6793716\MP2
 =-155.9061288\RMSD=7.268e-09\PG=C01 [X(C4H6)]\\@

 Normal termination of Gaussian 09 at Wed Aug 26 13:22:06 2020.
