 Gaussian 09, Revision D.01,
 Gaussian 09:  ES64L-G09RevD.01 24-Apr-2013

 --------------------
 #p B2PLYPD3/Def2QZVP
 --------------------

 ---------
 butadiene
 ---------
 Symbolic Z-matrix:
 Charge =  0 Multiplicity = 1

                         Standard orientation:
 ---------------------------------------------------------------------
 Center     Atomic      Atomic             Coordinates (Angstroms)
 Number     Number       Type             X           Y           Z
 ---------------------------------------------------------------------
      1          6           0       -1.851136   -0.122400    0.039898
      2          6           0       -0.627155    0.406737   -0.013845
      3          6           0        0.606190   -0.365240   -0.045661
      4          6           0        1.853452    0.098626    0.015193
      5          1           0       -2.733509    0.483683   -0.003109
      6          1           0       -1.896762   -1.232269   -0.060448
      7          1           0       -0.481761    1.523014   -0.016236
      8          1           0        0.460924   -1.446717    0.016134
      9          1           0        2.062396    1.160052   -0.009875
     10          1           0        2.700605   -0.594096    0.100022
 ---------------------------------------------------------------------

 SCF Done:  E(RB2PLYPD3) =  -155.696316386     A.U. after   11 cycles
 E2(B2PLYPD3) =    -0.2263055530D+00 E(B2PLYPD3) =    -0.15592262193876D+03

 The electronic state is 1-A.
 Alpha  occ. eigenvalues --  -10.63027 -10.62571 -10.61909 -10.61772  -0.92907
 Alpha  occ. eigenvalues --   -0.85047  -0.70064  -0.63296  -0.54718  -0.53465
 Alpha  occ. eigenvalues --   -0.46993  -0.45216  -0.40528  -0.38180  -0.27894
 Alpha virt. eigenvalues --    0.01564   0.06977   0.07284   0.07976   0.09682
 Alpha virt. eigenvalues --    0.11692   0.12358   0.14595   0.15745   0.15974
 Alpha virt. eigenvalues --    0.18801   0.20149   0.21238   0.22705   0.24135

 Mulliken charges:
               1
     1  C   -0.170913
     2  C   -0.029180
     3  C   -0.020141
     4  C   -0.178304
     5  H    0.094245
     6  H    0.060609
     7  H    0.042688
     8  H    0.045921
     9  H    0.067743
    10  H    0.087334
 Sum of Mulliken charges =   0.00000

 Dipole moment (field-independent basis, Debye):
    X=              0.0125    Y=              0.0347    Z=             -0.0248  Tot=              0.0444
 Quadrupole moment (field-independent basis, Debye-Ang):
   XX=            -23.4830   YY=            -23.2783   ZZ=            -29.3385
   XY=             -0.0767   XZ=              0.4529   YZ=             -0.0620

 1\1\GINC-NODE22\SP\RB2PLYPD3-FC\def2QZVP\C4H6\BOITTIER\26-Aug-2020\0\\
 #p B2PLYPD3/Def2QZVP\\butadiene\\0,1\C,0,-3.850326,0.23221,-0.016987\C
 ,0,-2.738503,-0.502549,0.053608\C,0,-1.388098,0.040131,0.055687\C,0,-0
 .24276,-0.638539,0.009383\H,0,-4.825412,-0.20665,0.049179\H,0,-3.69863
 3,1.335511,0.043632\H,0,-2.792308,-1.626182,0.095722\H,0,-1.340781,1.1
 27434,-0.044546\H,0,-0.224155,-1.718647,0.072088\H,0,0.712611,-0.10969
 8,-0.101621\\Version=ES64L-G09RevD.01\State=1-A\HF=-155.6963164\MP2=-1
 55.9226219\RMSD=3.467e-09\PG=C01 [X(C4H6)]\\@

 Normal termination of Gaussian 09 at Wed Aug 26 22:16:26 2020.
