 Gaussian 09, Revision D.01,
 Gaussian 09:  ES64L-G09RevD.01 24-Apr-2013

 --------------------
 #p B2PLYPD3/Def2QZVP
 --------------------

 ---------
 butadiene
 ---------
 Symbolic Z-matrix:
 Charge =  0 Multiplicity = 1

                         Standard orientation:
 ---------------------------------------------------------------------
 Center     Atomic      Atomic             Coordinates (Angstroms)
 Number     Number       Type             X           Y           Z
 ---------------------------------------------------------------------
      1          6           0       -1.820578   -0.157621   -0.055512
      2          6           0       -0.571822    0.443926   -0.007355
      3          6           0        0.595825   -0.378405    0.016895
      4          6           0        1.825265    0.080585   -0.000754
      5          1           0       -2.658007    0.569051    0.130140
      6          1           0       -2.074405   -1.191534    0.099721
      7          1           0       -0.467100    1.608170   -0.013066
      8          1           0        0.422095   -1.455953    0.103040
      9          1           0        1.972724    1.124200    0.116161
     10          1           0        2.632545   -0.584844   -0.155642
 ---------------------------------------------------------------------

 SCF Done:  E(RB2PLYPD3) =  -155.680271865     A.U. after   12 cycles
 E2(B2PLYPD3) =    -0.2276799388D+00 E(B2PLYPD3) =    -0.15590795180389D+03

 The electronic state is 1-A.
 Alpha  occ. eigenvalues --  -10.64165 -10.62497 -10.61905 -10.60581  -0.93302
 Alpha  occ. eigenvalues --   -0.84441  -0.70176  -0.63483  -0.54956  -0.53254
 Alpha  occ. eigenvalues --   -0.46577  -0.44727  -0.41437  -0.37986  -0.27094
 Alpha virt. eigenvalues --    0.01001   0.06867   0.07078   0.07950   0.09263
 Alpha virt. eigenvalues --    0.11731   0.12345   0.15072   0.15440   0.16363
 Alpha virt. eigenvalues --    0.18521   0.19279   0.22064   0.23364   0.23759

 Mulliken charges:
               1
     1  C   -0.173931
     2  C   -0.039046
     3  C   -0.009156
     4  C   -0.183900
     5  H    0.065350
     6  H    0.075197
     7  H    0.053725
     8  H    0.053867
     9  H    0.067308
    10  H    0.090587
 Sum of Mulliken charges =   0.00000

 Dipole moment (field-independent basis, Debye):
    X=              0.1155    Y=             -0.0326    Z=              0.2736  Tot=              0.2987
 Quadrupole moment (field-independent basis, Debye-Ang):
   XX=            -24.4077   YY=            -22.8061   ZZ=            -29.3269
   XY=              0.3398   XZ=             -0.8281   YZ=              0.0950

 1\1\GINC-NODE29\SP\RB2PLYPD3-FC\def2QZVP\C4H6\BOITTIER\26-Aug-2020\0\\
 #p B2PLYPD3/Def2QZVP\\butadiene\\0,1\C,0,-3.814963,0.278098,0.055907\C
 ,0,-2.699782,-0.546169,0.033021\C,0,-1.399439,0.043829,-0.002009\C,0,-
 0.276941,-0.635117,0.037188\H,0,-4.772325,-0.28478,-0.118543\H,0,-3.87
 1437,1.336795,-0.127055\H,0,-2.813537,-1.709037,0.068519\H,0,-1.369337
 ,1.132285,-0.116329\H,0,-0.325833,-1.690628,-0.052542\H,0,0.63951,-0.1
 27586,0.182157\\Version=ES64L-G09RevD.01\State=1-A\HF=-155.6802719\MP2
 =-155.9079518\RMSD=3.833e-09\PG=C01 [X(C4H6)]\\@

 Normal termination of Gaussian 09 at Wed Aug 26 13:14:38 2020.
