 Gaussian 09, Revision D.01,
 Gaussian 09:  ES64L-G09RevD.01 24-Apr-2013

 --------------------
 #p B2PLYPD3/Def2QZVP
 --------------------

 ---------
 butadiene
 ---------
 Symbolic Z-matrix:
 Charge =  0 Multiplicity = 1

                         Standard orientation:
 ---------------------------------------------------------------------
 Center     Atomic      Atomic             Coordinates (Angstroms)
 Number     Number       Type             X           Y           Z
 ---------------------------------------------------------------------
      1          6           0        1.846441    0.105542    0.011290
      2          6           0        0.613859   -0.383444   -0.015393
      3          6           0       -0.607244    0.403427   -0.015717
      4          6           0       -1.843087   -0.111669    0.001537
      5          1           0        2.647176   -0.579263    0.052451
      6          1           0        2.057053    1.149190    0.009833
      7          1           0        0.435276   -1.453381   -0.012567
      8          1           0       -0.485129    1.490855   -0.042782
      9          1           0       -1.994058   -1.205082   -0.004789
     10          1           0       -2.720135    0.514555    0.107551
 ---------------------------------------------------------------------

 SCF Done:  E(RB2PLYPD3) =  -155.699742333     A.U. after   11 cycles
 E2(B2PLYPD3) =    -0.2255348848D+00 E(B2PLYPD3) =    -0.15592527721774D+03

 The electronic state is 1-A.
 Alpha  occ. eigenvalues --  -10.62580 -10.62334 -10.61841 -10.60958  -0.93012
 Alpha  occ. eigenvalues --   -0.85098  -0.70406  -0.63870  -0.54687  -0.54064
 Alpha  occ. eigenvalues --   -0.46870  -0.45849  -0.40930  -0.38093  -0.27764
 Alpha virt. eigenvalues --    0.01705   0.07003   0.07405   0.08106   0.09741
 Alpha virt. eigenvalues --    0.11701   0.12363   0.14820   0.15800   0.16066
 Alpha virt. eigenvalues --    0.18801   0.20475   0.21619   0.22830   0.23851

 Mulliken charges:
               1
     1  C   -0.179926
     2  C   -0.026218
     3  C   -0.029032
     4  C   -0.175909
     5  H    0.087706
     6  H    0.072349
     7  H    0.050832
     8  H    0.050867
     9  H    0.061207
    10  H    0.088125
 Sum of Mulliken charges =   0.00000

 Dipole moment (field-independent basis, Debye):
    X=              0.0128    Y=              0.0145    Z=              0.0807  Tot=              0.0830
 Quadrupole moment (field-independent basis, Debye-Ang):
   XX=            -23.5184   YY=            -23.0927   ZZ=            -29.2259
   XY=              0.1962   XZ=             -0.1338   YZ=              0.0136

 1\1\GINC-NODE25\SP\RB2PLYPD3-FC\def2QZVP\C4H6\BOITTIER\26-Aug-2020\0\\
 #p B2PLYPD3/Def2QZVP\\butadiene\\0,1\C,0,-3.848077,0.221548,0.007047\C
 ,0,-2.724383,-0.481777,0.048553\C,0,-1.380936,0.070461,0.027559\C,0,-0
 .258956,-0.660353,0.025888\H,0,-4.759803,-0.307681,-0.015336\H,0,-3.86
 6109,1.285708,-0.021229\H,0,-2.742618,-1.566014,0.07618\H,0,-1.303893,
 1.162338,0.023711\H,0,-0.30856,-1.762407,0.063307\H,0,0.716565,-0.2066
 62,-0.097124\\Version=ES64L-G09RevD.01\State=1-A\HF=-155.6997423\MP2=-
 155.9252772\RMSD=3.077e-09\PG=C01 [X(C4H6)]\\@

 Normal termination of Gaussian 09 at Wed Aug 26 18:54:07 2020.
