 Gaussian 09, Revision D.01,
 Gaussian 09:  ES64L-G09RevD.01 24-Apr-2013

 --------------------
 #p B2PLYPD3/Def2QZVP
 --------------------

 ---------
 butadiene
 ---------
 Symbolic Z-matrix:
 Charge =  0 Multiplicity = 1

                         Standard orientation:
 ---------------------------------------------------------------------
 Center     Atomic      Atomic             Coordinates (Angstroms)
 Number     Number       Type             X           Y           Z
 ---------------------------------------------------------------------
      1          6           0       -1.829606   -0.093719    0.015757
      2          6           0       -0.598442    0.359859    0.007109
      3          6           0        0.601149   -0.412582   -0.032684
      4          6           0        1.829115    0.119743    0.001288
      5          1           0       -2.666004    0.583499   -0.078043
      6          1           0       -2.048781   -1.139128    0.097792
      7          1           0       -0.482484    1.462063   -0.085430
      8          1           0        0.475179   -1.478916   -0.018989
      9          1           0        1.950071    1.179707    0.139028
     10          1           0        2.758722   -0.447032   -0.003177
 ---------------------------------------------------------------------

 SCF Done:  E(RB2PLYPD3) =  -155.698199919     A.U. after   11 cycles
 E2(B2PLYPD3) =    -0.2253962246D+00 E(B2PLYPD3) =    -0.15592359614314D+03

 The electronic state is 1-A.
 Alpha  occ. eigenvalues --  -10.62365 -10.62084 -10.61673 -10.60965  -0.93548
 Alpha  occ. eigenvalues --   -0.85210  -0.70533  -0.63949  -0.54881  -0.54217
 Alpha  occ. eigenvalues --   -0.47017  -0.45286  -0.40889  -0.38536  -0.27733
 Alpha virt. eigenvalues --    0.01635   0.07016   0.07471   0.07987   0.09878
 Alpha virt. eigenvalues --    0.11676   0.12507   0.14855   0.15700   0.16347
 Alpha virt. eigenvalues --    0.18801   0.20283   0.21828   0.22450   0.23953

 Mulliken charges:
               1
     1  C   -0.180792
     2  C   -0.010364
     3  C   -0.039159
     4  C   -0.168103
     5  H    0.085473
     6  H    0.064185
     7  H    0.045158
     8  H    0.056010
     9  H    0.063288
    10  H    0.084304
 Sum of Mulliken charges =   0.00000

 Dipole moment (field-independent basis, Debye):
    X=              0.0257    Y=             -0.0289    Z=              0.0413  Tot=              0.0566
 Quadrupole moment (field-independent basis, Debye-Ang):
   XX=            -23.2951   YY=            -23.3083   ZZ=            -29.0955
   XY=              0.1158   XZ=              0.3569   YZ=             -0.0946

 1\1\GINC-NODE39\SP\RB2PLYPD3-FC\def2QZVP\C4H6\BOITTIER\26-Aug-2020\0\\
 #p B2PLYPD3/Def2QZVP\\butadiene\\0,1\C,0,-3.835606,0.205037,0.006724\C
 ,0,-2.706685,-0.463184,0.031042\C,0,-1.386962,0.080408,0.041391\C,0,-0
 .275739,-0.666166,0.026019\H,0,-4.779918,-0.305858,0.126074\H,0,-3.862
 803,1.2692,-0.113548\H,0,-2.791189,-1.564114,0.163987\H,0,-1.3182,1.15
 0738,-0.011435\H,0,-0.349413,-1.734786,-0.072718\H,0,0.741014,-0.27713
 9,0.008855\\Version=ES64L-G09RevD.01\State=1-A\HF=-155.6981999\MP2=-15
 5.9235961\RMSD=5.844e-09\PG=C01 [X(C4H6)]\\@

 Normal termination of Gaussian 09 at Wed Aug 26 09:26:02 2020.
