 Gaussian 09, Revision D.01,
 Gaussian 09:  ES64L-G09RevD.01 24-Apr-2013

 --------------------
 #p B2PLYPD3/Def2QZVP
 --------------------

 ---------
 butadiene
 ---------
 Symbolic Z-matrix:
 Charge =  0 Multiplicity = 1

                         Standard orientation:
 ---------------------------------------------------------------------
 Center     Atomic      Atomic             Coordinates (Angstroms)
 Number     Number       Type             X           Y           Z
 ---------------------------------------------------------------------
      1          6           0        1.832035   -0.105593    0.010443
      2          6           0        0.594686    0.393810   -0.019193
      3          6           0       -0.607571   -0.416606   -0.031257
      4          6           0       -1.830461    0.117241    0.015485
      5          1           0        2.704037    0.529153    0.028623
      6          1           0        2.001806   -1.181176    0.064680
      7          1           0        0.507802    1.497280    0.003726
      8          1           0       -0.468049   -1.492469   -0.029676
      9          1           0       -1.936097    1.188048    0.007303
     10          1           0       -2.741634   -0.473949    0.072474
 ---------------------------------------------------------------------

 SCF Done:  E(RB2PLYPD3) =  -155.700349223     A.U. after   11 cycles
 E2(B2PLYPD3) =    -0.2258555917D+00 E(B2PLYPD3) =    -0.15592620481446D+03

 The electronic state is 1-A.
 Alpha  occ. eigenvalues --  -10.62661 -10.62588 -10.61544 -10.61423  -0.93060
 Alpha  occ. eigenvalues --   -0.84888  -0.69969  -0.63948  -0.54570  -0.53991
 Alpha  occ. eigenvalues --   -0.46576  -0.45272  -0.41308  -0.38205  -0.27632
 Alpha virt. eigenvalues --    0.01790   0.07036   0.07351   0.08010   0.09545
 Alpha virt. eigenvalues --    0.11669   0.12514   0.14589   0.15908   0.16207
 Alpha virt. eigenvalues --    0.18723   0.20488   0.21614   0.22724   0.23961

 Mulliken charges:
               1
     1  C   -0.177857
     2  C   -0.023568
     3  C   -0.033767
     4  C   -0.171479
     5  H    0.085795
     6  H    0.061612
     7  H    0.049747
     8  H    0.057300
     9  H    0.066024
    10  H    0.086193
 Sum of Mulliken charges =   0.00000

 Dipole moment (field-independent basis, Debye):
    X=             -0.0221    Y=             -0.0023    Z=              0.1014  Tot=              0.1038
 Quadrupole moment (field-independent basis, Debye-Ang):
   XX=            -23.4874   YY=            -23.1047   ZZ=            -29.2867
   XY=             -0.0217   XZ=             -0.0102   YZ=             -0.0566

 1\1\GINC-NODE24\SP\RB2PLYPD3-FC\def2QZVP\C4H6\BOITTIER\26-Aug-2020\0\\
 #p B2PLYPD3/Def2QZVP\\butadiene\\0,1\C,0,-3.837279,0.215839,0.032086\C
 ,0,-2.709262,-0.497389,0.018062\C,0,-1.381524,0.084355,-0.01401\C,0,-0
 .273645,-0.658101,0.049227\H,0,-4.808657,-0.252021,0.06605\H,0,-3.8118
 29,1.305511,0.056825\H,0,-2.821,-1.597582,0.071072\H,0,-1.326433,1.167
 47,-0.041866\H,0,-0.361194,-1.730363,0.070291\H,0,0.728727,-0.238054,0
 .091652\\Version=ES64L-G09RevD.01\State=1-A\HF=-155.7003492\MP2=-155.9
 262048\RMSD=4.474e-09\PG=C01 [X(C4H6)]\\@

 Normal termination of Gaussian 09 at Wed Aug 26 19:30:28 2020.
