 Gaussian 09, Revision D.01,
 Gaussian 09:  ES64L-G09RevD.01 24-Apr-2013

 --------------------
 #p B2PLYPD3/Def2QZVP
 --------------------

 ---------
 butadiene
 ---------
 Symbolic Z-matrix:
 Charge =  0 Multiplicity = 1

                         Standard orientation:
 ---------------------------------------------------------------------
 Center     Atomic      Atomic             Coordinates (Angstroms)
 Number     Number       Type             X           Y           Z
 ---------------------------------------------------------------------
      1          6           0       -1.833881   -0.132461    0.048118
      2          6           0       -0.615003    0.411319   -0.065671
      3          6           0        0.606098   -0.366550   -0.048073
      4          6           0        1.845305    0.092839    0.041027
      5          1           0       -2.703667    0.535495    0.110473
      6          1           0       -2.005820   -1.221606   -0.031352
      7          1           0       -0.568811    1.516865   -0.030223
      8          1           0        0.447506   -1.430064    0.005509
      9          1           0        2.111506    1.133053    0.047484
     10          1           0        2.704171   -0.564623    0.045702
 ---------------------------------------------------------------------

 SCF Done:  E(RB2PLYPD3) =  -155.697531908     A.U. after   11 cycles
 E2(B2PLYPD3) =    -0.2258872460D+00 E(B2PLYPD3) =    -0.15592341915360D+03

 The electronic state is 1-A.
 Alpha  occ. eigenvalues --  -10.62781 -10.62339 -10.62065 -10.61265  -0.93031
 Alpha  occ. eigenvalues --   -0.85014  -0.70190  -0.63763  -0.54668  -0.53857
 Alpha  occ. eigenvalues --   -0.46576  -0.45332  -0.40844  -0.38229  -0.27775
 Alpha virt. eigenvalues --    0.01637   0.06968   0.07445   0.07926   0.09678
 Alpha virt. eigenvalues --    0.11618   0.12377   0.14771   0.15784   0.16154
 Alpha virt. eigenvalues --    0.18919   0.20023   0.21664   0.22841   0.23785

 Mulliken charges:
               1
     1  C   -0.172865
     2  C   -0.033006
     3  C   -0.029199
     4  C   -0.171069
     5  H    0.081779
     6  H    0.068417
     7  H    0.053127
     8  H    0.056559
     9  H    0.065387
    10  H    0.080869
 Sum of Mulliken charges =   0.00000

 Dipole moment (field-independent basis, Debye):
    X=             -0.0189    Y=              0.0200    Z=              0.0450  Tot=              0.0527
 Quadrupole moment (field-independent basis, Debye-Ang):
   XX=            -23.4108   YY=            -23.1489   ZZ=            -29.2647
   XY=              0.1598   XZ=             -0.0212   YZ=              0.1063

 1\1\GINC-NODE21\SP\RB2PLYPD3-FC\def2QZVP\C4H6\BOITTIER\26-Aug-2020\0\\
 #p B2PLYPD3/Def2QZVP\\butadiene\\0,1\C,0,-3.833071,0.241447,-0.03249\C
 ,0,-2.730401,-0.507783,0.098207\C,0,-1.39016,0.038868,0.060754\C,0,-0.
 253141,-0.636601,-0.01368\H,0,-4.808306,-0.262014,-0.077501\H,0,-3.807
 614,1.345567,0.016355\H,0,-2.882358,-1.604374,0.093638\H,0,-1.356611,1
 .111715,-0.022668\H,0,-0.176862,-1.707398,0.009237\H,0,0.709241,-0.143
 368,-0.035397\\Version=ES64L-G09RevD.01\State=1-A\HF=-155.6975319\MP2=
 -155.9234192\RMSD=6.321e-09\PG=C01 [X(C4H6)]\\@

 Normal termination of Gaussian 09 at Wed Aug 26 09:21:51 2020.
