 Gaussian 09, Revision D.01,
 Gaussian 09:  ES64L-G09RevD.01 24-Apr-2013

 --------------------
 #p B2PLYPD3/Def2QZVP
 --------------------

 ---------
 butadiene
 ---------
 Symbolic Z-matrix:
 Charge =  0 Multiplicity = 1

                         Standard orientation:
 ---------------------------------------------------------------------
 Center     Atomic      Atomic             Coordinates (Angstroms)
 Number     Number       Type             X           Y           Z
 ---------------------------------------------------------------------
      1          6           0        1.852033    0.089288    0.023203
      2          6           0        0.609819   -0.359739   -0.059189
      3          6           0       -0.612066    0.411944   -0.013105
      4          6           0       -1.840505   -0.132486    0.009042
      5          1           0        2.626413   -0.582328    0.139904
      6          1           0        2.017377    1.170822    0.033508
      7          1           0        0.494433   -1.427466   -0.032998
      8          1           0       -0.498097    1.449424   -0.079140
      9          1           0       -2.004784   -1.193686    0.049627
     10          1           0       -2.691025    0.529188    0.129394
 ---------------------------------------------------------------------

 SCF Done:  E(RB2PLYPD3) =  -155.696067545     A.U. after   11 cycles
 E2(B2PLYPD3) =    -0.2252695872D+00 E(B2PLYPD3) =    -0.15592133713187D+03

 The electronic state is 1-A.
 Alpha  occ. eigenvalues --  -10.62218 -10.61841 -10.61681 -10.60830  -0.93232
 Alpha  occ. eigenvalues --   -0.85307  -0.70626  -0.64398  -0.55058  -0.54176
 Alpha  occ. eigenvalues --   -0.47356  -0.45535  -0.41351  -0.38084  -0.27709
 Alpha virt. eigenvalues --    0.01601   0.07015   0.07588   0.08143   0.09788
 Alpha virt. eigenvalues --    0.11752   0.12372   0.14849   0.15643   0.16242
 Alpha virt. eigenvalues --    0.18764   0.20186   0.21766   0.22771   0.24175

 Mulliken charges:
               1
     1  C   -0.182849
     2  C   -0.016370
     3  C   -0.043108
     4  C   -0.174395
     5  H    0.092332
     6  H    0.061951
     7  H    0.046098
     8  H    0.061823
     9  H    0.072236
    10  H    0.082282
 Sum of Mulliken charges =   0.00000

 Dipole moment (field-independent basis, Debye):
    X=             -0.0317    Y=             -0.0132    Z=              0.1771  Tot=              0.1804
 Quadrupole moment (field-independent basis, Debye-Ang):
   XX=            -23.7101   YY=            -23.0174   ZZ=            -29.1012
   XY=             -0.0128   XZ=              0.0619   YZ=             -0.1340

 1\1\GINC-NODE13\SP\RB2PLYPD3-FC\def2QZVP\C4H6\BOITTIER\26-Aug-2020\0\\
 #p B2PLYPD3/Def2QZVP\\butadiene\\0,1\C,0,-3.857667,0.202968,-0.007536\
 C,0,-2.71574,-0.4596,0.08475\C,0,-1.375555,0.080073,0.027495\C,0,-0.26
 4396,-0.675685,0.016878\H,0,-4.739888,-0.321156,-0.113987\H,0,-3.82682
 5,1.29629,-0.036776\H,0,-2.793313,-1.531032,0.077175\H,0,-1.301946,1.1
 22185,0.075432\H,0,-0.292717,-1.749694,-0.005117\H,0,0.690631,-0.17906
 ,-0.113384\\Version=ES64L-G09RevD.01\State=1-A\HF=-155.6960675\MP2=-15
 5.9213371\RMSD=6.474e-09\PG=C01 [X(C4H6)]\\@

 Normal termination of Gaussian 09 at Wed Aug 26 09:46:28 2020.
