 Gaussian 09, Revision D.01,
 Gaussian 09:  ES64L-G09RevD.01 24-Apr-2013

 --------------------
 #p B2PLYPD3/Def2QZVP
 --------------------

 ---------
 butadiene
 ---------
 Symbolic Z-matrix:
 Charge =  0 Multiplicity = 1

                         Standard orientation:
 ---------------------------------------------------------------------
 Center     Atomic      Atomic             Coordinates (Angstroms)
 Number     Number       Type             X           Y           Z
 ---------------------------------------------------------------------
      1          6           0       -1.832939    0.082381    0.022220
      2          6           0       -0.604819   -0.370929   -0.023511
      3          6           0        0.601662    0.432270   -0.061514
      4          6           0        1.817396   -0.125248    0.015598
      5          1           0       -2.681726   -0.555669    0.049448
      6          1           0       -1.933505    1.168114    0.064947
      7          1           0       -0.440685   -1.451180   -0.040277
      8          1           0        0.474486    1.531464    0.028415
      9          1           0        1.959396   -1.244862    0.072439
     10          1           0        2.734239    0.441295    0.108271
 ---------------------------------------------------------------------

 SCF Done:  E(RB2PLYPD3) =  -155.696100877     A.U. after   11 cycles
 E2(B2PLYPD3) =    -0.2258327176D+00 E(B2PLYPD3) =    -0.15592193359461D+03

 The electronic state is 1-A.
 Alpha  occ. eigenvalues --  -10.62984 -10.62253 -10.61979 -10.60857  -0.93279
 Alpha  occ. eigenvalues --   -0.85099  -0.69881  -0.63573  -0.55150  -0.53383
 Alpha  occ. eigenvalues --   -0.47169  -0.44637  -0.40851  -0.38393  -0.27887
 Alpha virt. eigenvalues --    0.01918   0.07056   0.07188   0.08063   0.09640
 Alpha virt. eigenvalues --    0.11691   0.12475   0.14510   0.15655   0.16291
 Alpha virt. eigenvalues --    0.18704   0.20146   0.21694   0.22897   0.23838

 Mulliken charges:
               1
     1  C   -0.180604
     2  C   -0.009564
     3  C   -0.037190
     4  C   -0.166433
     5  H    0.094186
     6  H    0.057956
     7  H    0.045215
     8  H    0.052397
     9  H    0.059323
    10  H    0.084714
 Sum of Mulliken charges =   0.00000

 Dipole moment (field-independent basis, Debye):
    X=              0.0725    Y=             -0.0227    Z=              0.2021  Tot=              0.2159
 Quadrupole moment (field-independent basis, Debye-Ang):
   XX=            -23.5130   YY=            -23.2209   ZZ=            -29.2274
   XY=              0.0280   XZ=              0.2670   YZ=              0.1121

 1\1\GINC-NODE15\SP\RB2PLYPD3-FC\def2QZVP\C4H6\BOITTIER\26-Aug-2020\0\\
 #p B2PLYPD3/Def2QZVP\\butadiene\\0,1\C,0,-3.838344,0.196473,0.043401\C
 ,0,-2.712572,-0.472567,0.013686\C,0,-1.380693,0.097865,-0.039931\C,0,-
 0.285857,-0.668271,0.055728\H,0,-4.788558,-0.276579,0.083446\H,0,-3.74
 0735,1.283212,0.058476\H,0,-2.746648,-1.564758,0.024665\H,0,-1.306779,
 1.20385,0.021893\H,0,-0.348762,-1.79329,0.141195\H,0,0.71845,-0.274793
 ,0.137596\\Version=ES64L-G09RevD.01\State=1-A\HF=-155.6961009\MP2=-155
 .9219336\RMSD=6.211e-09\PG=C01 [X(C4H6)]\\@

 Normal termination of Gaussian 09 at Wed Aug 26 08:52:34 2020.
