 Gaussian 09, Revision D.01,
 Gaussian 09:  ES64L-G09RevD.01 24-Apr-2013

 --------------------
 #p B2PLYPD3/Def2QZVP
 --------------------

 ---------
 butadiene
 ---------
 Symbolic Z-matrix:
 Charge =  0 Multiplicity = 1

                         Standard orientation:
 ---------------------------------------------------------------------
 Center     Atomic      Atomic             Coordinates (Angstroms)
 Number     Number       Type             X           Y           Z
 ---------------------------------------------------------------------
      1          6           0        1.850975   -0.121818   -0.043815
      2          6           0        0.609132    0.411088    0.015465
      3          6           0       -0.626299   -0.401800    0.037878
      4          6           0       -1.857641    0.102240   -0.020070
      5          1           0        2.749323    0.500670    0.136312
      6          1           0        2.057391   -1.138902   -0.102732
      7          1           0        0.558792    1.476825    0.051961
      8          1           0       -0.423045   -1.437178    0.071790
      9          1           0       -2.047502    1.179263   -0.102564
     10          1           0       -2.751963   -0.518937    0.008485
 ---------------------------------------------------------------------

 SCF Done:  E(RB2PLYPD3) =  -155.695151524     A.U. after   11 cycles
 E2(B2PLYPD3) =    -0.2258450599D+00 E(B2PLYPD3) =    -0.15592099658342D+03

 The electronic state is 1-A.
 Alpha  occ. eigenvalues --  -10.62792 -10.62618 -10.61886 -10.61497  -0.92554
 Alpha  occ. eigenvalues --   -0.84781  -0.70197  -0.64823  -0.54528  -0.53790
 Alpha  occ. eigenvalues --   -0.46973  -0.45763  -0.41025  -0.37600  -0.27717
 Alpha virt. eigenvalues --    0.01542   0.06944   0.07563   0.08120   0.09360
 Alpha virt. eigenvalues --    0.11632   0.12466   0.14676   0.15941   0.16118
 Alpha virt. eigenvalues --    0.19080   0.20308   0.21570   0.22805   0.23536

 Mulliken charges:
               1
     1  C   -0.175516
     2  C   -0.032539
     3  C   -0.047672
     4  C   -0.165184
     5  H    0.074753
     6  H    0.065088
     7  H    0.063753
     8  H    0.065961
     9  H    0.067348
    10  H    0.084009
 Sum of Mulliken charges =   0.00000

 Dipole moment (field-independent basis, Debye):
    X=             -0.0304    Y=             -0.0352    Z=              0.0878  Tot=              0.0994
 Quadrupole moment (field-independent basis, Debye-Ang):
   XX=            -23.2976   YY=            -23.1774   ZZ=            -29.2724
   XY=             -0.3721   XZ=              0.3987   YZ=              0.0640

 1\1\GINC-NODE38\SP\RB2PLYPD3-FC\def2QZVP\C4H6\BOITTIER\26-Aug-2020\0\\
 #p B2PLYPD3/Def2QZVP\\butadiene\\0,1\C,0,-3.855268,0.231782,-0.018637\
 C,0,-2.727534,-0.511376,0.056256\C,0,-1.367158,0.069077,0.05056\C,0,-0
 .245461,-0.647544,0.007362\H,0,-4.848653,-0.214937,0.182846\H,0,-3.878
 025,1.266971,-0.110308\H,0,-2.86717,-1.567366,0.12731\H,0,-1.382892,1.
 124644,0.05107\H,0,-0.250654,-1.743231,-0.040332\H,0,0.745214,-0.19477
 3,0.014499\\Version=ES64L-G09RevD.01\State=1-A\HF=-155.6951515\MP2=-15
 5.9209966\RMSD=6.370e-09\PG=C01 [X(C4H6)]\\@

 Normal termination of Gaussian 09 at Wed Aug 26 09:41:29 2020.
