 Gaussian 09, Revision D.01,
 Gaussian 09:  ES64L-G09RevD.01 24-Apr-2013

 --------------------
 #p B2PLYPD3/Def2QZVP
 --------------------

 ---------
 butadiene
 ---------
 Symbolic Z-matrix:
 Charge =  0 Multiplicity = 1

                         Standard orientation:
 ---------------------------------------------------------------------
 Center     Atomic      Atomic             Coordinates (Angstroms)
 Number     Number       Type             X           Y           Z
 ---------------------------------------------------------------------
      1          6           0        1.822400   -0.156784   -0.041057
      2          6           0        0.647945    0.407600    0.007539
      3          6           0       -0.613990   -0.324476    0.031815
      4          6           0       -1.876179    0.092898   -0.011073
      5          1           0        2.677213    0.518466   -0.049808
      6          1           0        1.954215   -1.258684    0.145394
      7          1           0        0.660331    1.526532    0.054775
      8          1           0       -0.412101   -1.346422   -0.002796
      9          1           0       -2.060909    1.079199    0.051062
     10          1           0       -2.699803   -0.634520   -0.121975
 ---------------------------------------------------------------------

 SCF Done:  E(RB2PLYPD3) =  -155.685975651     A.U. after   11 cycles
 E2(B2PLYPD3) =    -0.2251744062D+00 E(B2PLYPD3) =    -0.15591115005684D+03

 The electronic state is 1-A.
 Alpha  occ. eigenvalues --  -10.62441 -10.61880 -10.61669 -10.60884  -0.93358
 Alpha  occ. eigenvalues --   -0.85802  -0.70447  -0.63700  -0.54918  -0.53973
 Alpha  occ. eigenvalues --   -0.46833  -0.45958  -0.40615  -0.38057  -0.28199
 Alpha virt. eigenvalues --    0.01861   0.06894   0.07509   0.07921   0.09935
 Alpha virt. eigenvalues --    0.11815   0.12224   0.14846   0.15687   0.16097
 Alpha virt. eigenvalues --    0.18845   0.20268   0.21037   0.22943   0.24259

 Mulliken charges:
               1
     1  C   -0.168623
     2  C   -0.026658
     3  C   -0.023120
     4  C   -0.188407
     5  H    0.081407
     6  H    0.065157
     7  H    0.039614
     8  H    0.053677
     9  H    0.077055
    10  H    0.089899
 Sum of Mulliken charges =   0.00000

 Dipole moment (field-independent basis, Debye):
    X=              0.0808    Y=              0.0365    Z=              0.1148  Tot=              0.1450
 Quadrupole moment (field-independent basis, Debye-Ang):
   XX=            -23.6084   YY=            -23.1842   ZZ=            -29.0625
   XY=              0.1534   XZ=              0.4738   YZ=              0.0283

 1\1\GINC-NODE03\SP\RB2PLYPD3-FC\def2QZVP\C4H6\BOITTIER\26-Aug-2020\0\\
 #p B2PLYPD3/Def2QZVP\\butadiene\\0,1\C,0,-3.823164,0.249344,-0.016297\
 C,0,-2.76109,-0.504235,0.049672\C,0,-1.393112,0.003327,0.044938\C,0,-0
 .220405,-0.623542,0.014041\H,0,-4.780166,-0.270842,0.000989\H,0,-3.764
 617,1.363426,0.131073\H,0,-2.962689,-1.60249,0.136779\H,0,-1.419022,1.
 042886,-0.025602\H,0,-0.205131,-1.624126,0.110857\H,0,0.713713,-0.0508
 36,-0.12461\\Version=ES64L-G09RevD.01\State=1-A\HF=-155.6859757\MP2=-1
 55.9111501\RMSD=6.436e-09\PG=C01 [X(C4H6)]\\@

 Normal termination of Gaussian 09 at Wed Aug 26 15:17:27 2020.
