 Gaussian 09, Revision D.01,
 Gaussian 09:  ES64L-G09RevD.01 24-Apr-2013

 --------------------
 #p B2PLYPD3/Def2QZVP
 --------------------

 ---------
 butadiene
 ---------
 Symbolic Z-matrix:
 Charge =  0 Multiplicity = 1

                         Standard orientation:
 ---------------------------------------------------------------------
 Center     Atomic      Atomic             Coordinates (Angstroms)
 Number     Number       Type             X           Y           Z
 ---------------------------------------------------------------------
      1          6           0        1.834298    0.104425   -0.028797
      2          6           0        0.607835   -0.393431    0.016162
      3          6           0       -0.601914    0.435854    0.037380
      4          6           0       -1.841194   -0.133582   -0.050562
      5          1           0        2.682409   -0.571643    0.027740
      6          1           0        1.963286    1.161615   -0.129714
      7          1           0        0.486154   -1.463430    0.113952
      8          1           0       -0.463427    1.552321    0.157109
      9          1           0       -1.907869   -1.206545   -0.008271
     10          1           0       -2.754706    0.448086   -0.005918
 ---------------------------------------------------------------------

 SCF Done:  E(RB2PLYPD3) =  -155.695532522     A.U. after   11 cycles
 E2(B2PLYPD3) =    -0.2265532345D+00 E(B2PLYPD3) =    -0.15592208575600D+03

 The electronic state is 1-A.
 Alpha  occ. eigenvalues --  -10.63648 -10.62301 -10.61959 -10.61130  -0.92709
 Alpha  occ. eigenvalues --   -0.84648  -0.69718  -0.63850  -0.54238  -0.53869
 Alpha  occ. eigenvalues --   -0.46189  -0.45830  -0.41490  -0.37632  -0.27549
 Alpha virt. eigenvalues --    0.01654   0.07082   0.07243   0.07983   0.09255
 Alpha virt. eigenvalues --    0.11698   0.12458   0.14565   0.15864   0.15996
 Alpha virt. eigenvalues --    0.18700   0.20354   0.21284   0.22775   0.24189

 Mulliken charges:
               1
     1  C   -0.183152
     2  C   -0.017065
     3  C   -0.044956
     4  C   -0.174765
     5  H    0.087201
     6  H    0.069481
     7  H    0.054419
     8  H    0.054338
     9  H    0.067613
    10  H    0.086886
 Sum of Mulliken charges =   0.00000

 Dipole moment (field-independent basis, Debye):
    X=             -0.0002    Y=             -0.0224    Z=              0.1760  Tot=              0.1774
 Quadrupole moment (field-independent basis, Debye-Ang):
   XX=            -23.7843   YY=            -22.9927   ZZ=            -29.3705
   XY=             -0.0017   XZ=             -0.1491   YZ=             -0.1218

 1\1\GINC-NODE35\SP\RB2PLYPD3-FC\def2QZVP\C4H6\BOITTIER\26-Aug-2020\0\\
 #p B2PLYPD3/Def2QZVP\\butadiene\\0,1\C,0,-3.839251,0.212049,0.046594\C
 ,0,-2.720431,-0.495998,0.014907\C,0,-1.383141,0.105268,-0.027393\C,0,-
 0.263803,-0.672082,0.075633\H,0,-4.793836,-0.30446,0.007311\H,0,-3.778
 716,1.277605,0.120082\H,0,-2.790411,-1.572783,-0.055125\H,0,-1.322411,
 1.225195,-0.176014\H,0,-0.388207,-1.740631,0.06114\H,0,0.738015,-0.262
 609,0.016231\\Version=ES64L-G09RevD.01\State=1-A\HF=-155.6955325\MP2=-
 155.9220858\RMSD=8.429e-09\PG=C01 [X(C4H6)]\\@

 Normal termination of Gaussian 09 at Wed Aug 26 21:15:36 2020.
