 Gaussian 09, Revision D.01,
 Gaussian 09:  ES64L-G09RevD.01 24-Apr-2013

 --------------------
 #p B2PLYPD3/Def2QZVP
 --------------------

 ---------
 butadiene
 ---------
 Symbolic Z-matrix:
 Charge =  0 Multiplicity = 1

                         Standard orientation:
 ---------------------------------------------------------------------
 Center     Atomic      Atomic             Coordinates (Angstroms)
 Number     Number       Type             X           Y           Z
 ---------------------------------------------------------------------
      1          6           0        1.840895   -0.105607   -0.014153
      2          6           0        0.595801    0.379755    0.012912
      3          6           0       -0.611956   -0.407220    0.016935
      4          6           0       -1.837084    0.119088   -0.024735
      5          1           0        2.683599    0.570396   -0.023816
      6          1           0        2.036866   -1.159622   -0.012726
      7          1           0        0.488549    1.455011    0.059532
      8          1           0       -0.461882   -1.462166    0.025573
      9          1           0       -1.948202    1.191158   -0.015766
     10          1           0       -2.724871   -0.510873    0.021450
 ---------------------------------------------------------------------

 SCF Done:  E(RB2PLYPD3) =  -155.700799187     A.U. after   11 cycles
 E2(B2PLYPD3) =    -0.2255387494D+00 E(B2PLYPD3) =    -0.15592633793677D+03

 The electronic state is 1-A.
 Alpha  occ. eigenvalues --  -10.62260 -10.62185 -10.61595 -10.61333  -0.93227
 Alpha  occ. eigenvalues --   -0.84984  -0.70316  -0.64349  -0.54531  -0.54194
 Alpha  occ. eigenvalues --   -0.46650  -0.45856  -0.41315  -0.38212  -0.27629
 Alpha virt. eigenvalues --    0.01641   0.06989   0.07507   0.08062   0.09760
 Alpha virt. eigenvalues --    0.11744   0.12413   0.14803   0.15800   0.16139
 Alpha virt. eigenvalues --    0.18746   0.20419   0.21628   0.22675   0.24153

 Mulliken charges:
               1
     1  C   -0.183290
     2  C   -0.021185
     3  C   -0.034750
     4  C   -0.173583
     5  H    0.085591
     6  H    0.066307
     7  H    0.049980
     8  H    0.056611
     9  H    0.067381
    10  H    0.086940
 Sum of Mulliken charges =   0.00000

 Dipole moment (field-independent basis, Debye):
    X=             -0.0111    Y=             -0.0152    Z=              0.0712  Tot=              0.0736
 Quadrupole moment (field-independent basis, Debye-Ang):
   XX=            -23.5605   YY=            -23.0762   ZZ=            -29.2214
   XY=             -0.0597   XZ=             -0.1162   YZ=              0.0071

 1\1\GINC-NODE02\SP\RB2PLYPD3-FC\def2QZVP\C4H6\BOITTIER\26-Aug-2020\0\\
 #p B2PLYPD3/Def2QZVP\\butadiene\\0,1\C,0,-3.846034,0.217494,0.003726\C
 ,0,-2.708145,-0.482314,0.048967\C,0,-1.378791,0.074967,0.032274\C,0,-0
 .268083,-0.663617,0.010007\H,0,-4.796366,-0.296332,0.01239\H,0,-3.8497
 27,1.289112,-0.027524\H,0,-2.795408,-1.557436,0.128648\H,0,-1.337145,1
 .139486,0.008328\H,0,-0.351075,-1.737448,0.051968\H,0,0.718443,-0.2020
 39,0.039374\\Version=ES64L-G09RevD.01\State=1-A\HF=-155.7007992\MP2=-1
 55.9263379\RMSD=3.609e-09\PG=C01 [X(C4H6)]\\@

 Normal termination of Gaussian 09 at Wed Aug 26 22:06:57 2020.
