 Gaussian 09, Revision D.01,
 Gaussian 09:  ES64L-G09RevD.01 24-Apr-2013

 --------------------
 #p B2PLYPD3/Def2QZVP
 --------------------

 ---------
 butadiene
 ---------
 Symbolic Z-matrix:
 Charge =  0 Multiplicity = 1

                         Standard orientation:
 ---------------------------------------------------------------------
 Center     Atomic      Atomic             Coordinates (Angstroms)
 Number     Number       Type             X           Y           Z
 ---------------------------------------------------------------------
      1          6           0        1.795383    0.102935   -0.024219
      2          6           0        0.590320   -0.432346    0.043502
      3          6           0       -0.560734    0.412052    0.039127
      4          6           0       -1.815242   -0.120136   -0.051496
      5          1           0        2.741979   -0.502084   -0.024651
      6          1           0        1.997643    1.186764   -0.332187
      7          1           0        0.469625   -1.453748    0.189210
      8          1           0       -0.406422    1.530102    0.325812
      9          1           0       -2.144058   -1.126663   -0.157380
     10          1           0       -2.717133    0.590597   -0.042286
 ---------------------------------------------------------------------

 SCF Done:  E(RB2PLYPD3) =  -155.677651058     A.U. after   12 cycles
 E2(B2PLYPD3) =    -0.2276616965D+00 E(B2PLYPD3) =    -0.15590531275457D+03

 The electronic state is 1-A.
 Alpha  occ. eigenvalues --  -10.63734 -10.62442 -10.62225 -10.61775  -0.93437
 Alpha  occ. eigenvalues --   -0.84016  -0.69648  -0.64029  -0.54852  -0.52906
 Alpha  occ. eigenvalues --   -0.46412  -0.44325  -0.40589  -0.37874  -0.27386
 Alpha virt. eigenvalues --    0.01464   0.06917   0.07259   0.07455   0.09030
 Alpha virt. eigenvalues --    0.11406   0.12405   0.14696   0.15470   0.16286
 Alpha virt. eigenvalues --    0.18605   0.19883   0.21838   0.22346   0.23058

 Mulliken charges:
               1
     1  C   -0.162593
     2  C   -0.037622
     3  C   -0.032498
     4  C   -0.185624
     5  H    0.068648
     6  H    0.061531
     7  H    0.074594
     8  H    0.072112
     9  H    0.077245
    10  H    0.064207
 Sum of Mulliken charges =   0.00000

 Dipole moment (field-independent basis, Debye):
    X=              0.0064    Y=             -0.1495    Z=              0.0180  Tot=              0.1507
 Quadrupole moment (field-independent basis, Debye-Ang):
   XX=            -23.8989   YY=            -23.2195   ZZ=            -29.2075
   XY=              0.6292   XZ=             -0.2653   YZ=             -0.0097

 1\1\GINC-NODE16\SP\RB2PLYPD3-FC\def2QZVP\C4H6\BOITTIER\26-Aug-2020\0\\
 #p B2PLYPD3/Def2QZVP\\butadiene\\0,1\C,0,-3.793307,0.230837,0.046129\C
 ,0,-2.71184,-0.52474,-0.006981\C,0,-1.421703,0.086068,-0.027291\C,0,-0
 .290161,-0.67143,0.077765\H,0,-4.837329,-0.183626,0.064313\H,0,-3.7848
 28,1.341509,0.323212\H,0,-2.787621,-1.554166,-0.123604\H,0,-1.363194,1
 .204674,-0.34562\H,0,-0.15728,-1.718677,0.212094\H,0,0.729933,-0.14498
 4,0.047819\\Version=ES64L-G09RevD.01\State=1-A\HF=-155.6776511\MP2=-15
 5.9053128\RMSD=3.019e-09\PG=C01 [X(C4H6)]\\@

 Normal termination of Gaussian 09 at Wed Aug 26 13:36:34 2020.
