 Gaussian 09, Revision D.01,
 Gaussian 09:  ES64L-G09RevD.01 24-Apr-2013

 --------------------
 #p B2PLYPD3/Def2QZVP
 --------------------

 ---------
 butadiene
 ---------
 Symbolic Z-matrix:
 Charge =  0 Multiplicity = 1

                         Standard orientation:
 ---------------------------------------------------------------------
 Center     Atomic      Atomic             Coordinates (Angstroms)
 Number     Number       Type             X           Y           Z
 ---------------------------------------------------------------------
      1          6           0       -1.831493   -0.116375    0.007493
      2          6           0       -0.603830    0.411737   -0.015317
      3          6           0        0.597570   -0.386622   -0.033390
      4          6           0        1.836518    0.099637    0.017237
      5          1           0       -2.728470    0.497057    0.086399
      6          1           0       -1.944102   -1.215334    0.027350
      7          1           0       -0.502119    1.509131   -0.040059
      8          1           0        0.430991   -1.472426   -0.018870
      9          1           0        2.007596    1.148234    0.014595
     10          1           0        2.743513   -0.516926    0.074448
 ---------------------------------------------------------------------

 SCF Done:  E(RB2PLYPD3) =  -155.699323887     A.U. after   11 cycles
 E2(B2PLYPD3) =    -0.2260424985D+00 E(B2PLYPD3) =    -0.15592536638585D+03

 The electronic state is 1-A.
 Alpha  occ. eigenvalues --  -10.62681 -10.62597 -10.61880 -10.61457  -0.93156
 Alpha  occ. eigenvalues --   -0.84844  -0.70075  -0.63831  -0.54704  -0.53676
 Alpha  occ. eigenvalues --   -0.46723  -0.45158  -0.41083  -0.38313  -0.27660
 Alpha virt. eigenvalues --    0.01676   0.07005   0.07324   0.07983   0.09643
 Alpha virt. eigenvalues --    0.11651   0.12519   0.14579   0.15812   0.16199
 Alpha virt. eigenvalues --    0.18754   0.20423   0.21686   0.22833   0.23610

 Mulliken charges:
               1
     1  C   -0.173786
     2  C   -0.027861
     3  C   -0.024786
     4  C   -0.173927
     5  H    0.087918
     6  H    0.060911
     7  H    0.051459
     8  H    0.050695
     9  H    0.064942
    10  H    0.084435
 Sum of Mulliken charges =   0.00000

 Dipole moment (field-independent basis, Debye):
    X=             -0.0010    Y=              0.0397    Z=              0.0989  Tot=              0.1066
 Quadrupole moment (field-independent basis, Debye-Ang):
   XX=            -23.3965   YY=            -23.2234   ZZ=            -29.2933
   XY=              0.0870   XZ=             -0.0404   YZ=             -0.0455

 1\1\GINC-NODE22\SP\RB2PLYPD3-FC\def2QZVP\C4H6\BOITTIER\26-Aug-2020\0\\
 #p B2PLYPD3/Def2QZVP\\butadiene\\0,1\C,0,-3.832348,0.229435,0.006676\C
 ,0,-2.719688,-0.509935,0.050235\C,0,-1.394164,0.05928,0.043507\C,0,-0.
 263169,-0.643483,0.012262\H,0,-4.825388,-0.214855,-0.053079\H,0,-3.745
 425,1.329386,-0.051106\H,0,-2.817029,-1.606219,0.112822\H,0,-1.362675,
 1.156195,-0.008606\H,0,-0.283584,-1.705036,0.051238\H,0,0.739738,-0.20
 2564,-0.064105\\Version=ES64L-G09RevD.01\State=1-A\HF=-155.6993239\MP2
 =-155.9253664\RMSD=2.904e-09\PG=C01 [X(C4H6)]\\@

 Normal termination of Gaussian 09 at Wed Aug 26 15:04:10 2020.
