 Gaussian 09, Revision D.01,
 Gaussian 09:  ES64L-G09RevD.01 24-Apr-2013

 --------------------
 #p B2PLYPD3/Def2QZVP
 --------------------

 ---------
 butadiene
 ---------
 Symbolic Z-matrix:
 Charge =  0 Multiplicity = 1

                         Standard orientation:
 ---------------------------------------------------------------------
 Center     Atomic      Atomic             Coordinates (Angstroms)
 Number     Number       Type             X           Y           Z
 ---------------------------------------------------------------------
      1          6           0       -1.835872    0.113136   -0.057886
      2          6           0       -0.625014   -0.369632    0.034953
      3          6           0        0.604807    0.341469    0.093473
      4          6           0        1.861921   -0.101676   -0.102178
      5          1           0       -2.766886   -0.542071   -0.024965
      6          1           0       -1.984697    1.181078   -0.182098
      7          1           0       -0.554448   -1.465933    0.222291
      8          1           0        0.465814    1.478829    0.228165
      9          1           0        2.156169   -1.137941   -0.048926
     10          1           0        2.648996    0.586254   -0.004639
 ---------------------------------------------------------------------

 SCF Done:  E(RB2PLYPD3) =  -155.686629060     A.U. after   12 cycles
 E2(B2PLYPD3) =    -0.2264426477D+00 E(B2PLYPD3) =    -0.15591307170788D+03

 The electronic state is 1-A.
 Alpha  occ. eigenvalues --  -10.63392 -10.62239 -10.61986 -10.61499  -0.93376
 Alpha  occ. eigenvalues --   -0.85301  -0.70886  -0.62828  -0.54483  -0.53997
 Alpha  occ. eigenvalues --   -0.47380  -0.45039  -0.40475  -0.37566  -0.28105
 Alpha virt. eigenvalues --    0.01186   0.06940   0.07247   0.07730   0.10120
 Alpha virt. eigenvalues --    0.11433   0.12384   0.14855   0.15594   0.16175
 Alpha virt. eigenvalues --    0.19093   0.19721   0.21216   0.22003   0.23741

 Mulliken charges:
               1
     1  C   -0.170749
     2  C   -0.006184
     3  C   -0.050053
     4  C   -0.159184
     5  H    0.085497
     6  H    0.064070
     7  H    0.047973
     8  H    0.038848
     9  H    0.067509
    10  H    0.082273
 Sum of Mulliken charges =   0.00000

 Dipole moment (field-independent basis, Debye):
    X=             -0.0548    Y=             -0.0247    Z=              0.2372  Tot=              0.2447
 Quadrupole moment (field-independent basis, Debye-Ang):
   XX=            -23.1620   YY=            -23.5770   ZZ=            -29.1544
   XY=             -0.1331   XZ=              0.2663   YZ=             -0.1724

 1\1\GINC-NODE19\SP\RB2PLYPD3-FC\def2QZVP\C4H6\BOITTIER\26-Aug-2020\0\\
 #p B2PLYPD3/Def2QZVP\\butadiene\\0,1\C,0,-3.839416,0.220625,-0.040781\
 C,0,-2.732758,-0.463919,0.079922\C,0,-1.396186,0.020116,0.108834\C,0,-
 0.238354,-0.647562,-0.060347\H,0,-4.871575,-0.256982,0.020101\H,0,-3.7
 97362,1.290802,-0.216934\H,0,-2.856556,-1.545073,0.320192\H,0,-1.33093
 7,1.169258,0.187972\H,0,-0.132012,-1.715773,0.043964\H,0,0.658555,-0.1
 06014,0.006943\\Version=ES64L-G09RevD.01\State=1-A\HF=-155.6866291\MP2
 =-155.9130717\RMSD=2.883e-09\PG=C01 [X(C4H6)]\\@

 Normal termination of Gaussian 09 at Wed Aug 26 12:31:29 2020.
