 Gaussian 09, Revision D.01,
 Gaussian 09:  ES64L-G09RevD.01 24-Apr-2013

 --------------------
 #p B2PLYPD3/Def2QZVP
 --------------------

 ---------
 butadiene
 ---------
 Symbolic Z-matrix:
 Charge =  0 Multiplicity = 1

                         Standard orientation:
 ---------------------------------------------------------------------
 Center     Atomic      Atomic             Coordinates (Angstroms)
 Number     Number       Type             X           Y           Z
 ---------------------------------------------------------------------
      1          6           0        1.842481    0.103306   -0.020577
      2          6           0        0.613515   -0.385396    0.019560
      3          6           0       -0.608866    0.407779    0.034435
      4          6           0       -1.836142   -0.117492   -0.030161
      5          1           0        2.700529   -0.539005   -0.043027
      6          1           0        2.039758    1.164770   -0.022445
      7          1           0        0.473371   -1.452363    0.050693
      8          1           0       -0.530044    1.497050    0.032576
      9          1           0       -1.976210   -1.208221    0.000871
     10          1           0       -2.773330    0.488582   -0.038208
 ---------------------------------------------------------------------

 SCF Done:  E(RB2PLYPD3) =  -155.699824854     A.U. after   11 cycles
 E2(B2PLYPD3) =    -0.2256285298D+00 E(B2PLYPD3) =    -0.15592545338398D+03

 The electronic state is 1-A.
 Alpha  occ. eigenvalues --  -10.62687 -10.62369 -10.62096 -10.61217  -0.92996
 Alpha  occ. eigenvalues --   -0.85019  -0.69906  -0.64024  -0.54547  -0.53922
 Alpha  occ. eigenvalues --   -0.46845  -0.45160  -0.40940  -0.38172  -0.27867
 Alpha virt. eigenvalues --    0.01840   0.06974   0.07438   0.07980   0.09672
 Alpha virt. eigenvalues --    0.11615   0.12448   0.14581   0.15848   0.16266
 Alpha virt. eigenvalues --    0.18848   0.20404   0.21633   0.22651   0.23741

 Mulliken charges:
               1
     1  C   -0.173408
     2  C   -0.029873
     3  C   -0.033220
     4  C   -0.168594
     5  H    0.085432
     6  H    0.066341
     7  H    0.055665
     8  H    0.055099
     9  H    0.059912
    10  H    0.082645
 Sum of Mulliken charges =   0.00000

 Dipole moment (field-independent basis, Debye):
    X=              0.0058    Y=              0.0016    Z=              0.0217  Tot=              0.0226
 Quadrupole moment (field-independent basis, Debye-Ang):
   XX=            -23.3234   YY=            -23.1906   ZZ=            -29.2726
   XY=              0.0710   XZ=             -0.0447   YZ=             -0.0538

 1\1\GINC-NODE28\SP\RB2PLYPD3-FC\def2QZVP\C4H6\BOITTIER\26-Aug-2020\0\\
 #p B2PLYPD3/Def2QZVP\\butadiene\\0,1\C,0,-3.846003,0.212826,0.040467\C
 ,0,-2.723219,-0.486817,0.014928\C,0,-1.379701,0.076507,-0.019552\C,0,-
 0.264694,-0.656042,0.060577\H,0,-4.804198,-0.26644,0.078956\H,0,-3.852
 079,1.292121,0.013778\H,0,-2.774449,-1.562177,0.012437\H,0,-1.264269,1
 .162167,-0.046843\H,0,-0.320209,-1.754762,0.058821\H,0,0.765074,-0.225
 644,0.053641\\Version=ES64L-G09RevD.01\State=1-A\HF=-155.6998249\MP2=-
 155.9254534\RMSD=3.987e-09\PG=C01 [X(C4H6)]\\@

 Normal termination of Gaussian 09 at Wed Aug 26 18:52:10 2020.
