 Gaussian 09, Revision D.01,
 Gaussian 09:  ES64L-G09RevD.01 24-Apr-2013

 --------------------
 #p B2PLYPD3/Def2QZVP
 --------------------

 ---------
 butadiene
 ---------
 Symbolic Z-matrix:
 Charge =  0 Multiplicity = 1

                         Standard orientation:
 ---------------------------------------------------------------------
 Center     Atomic      Atomic             Coordinates (Angstroms)
 Number     Number       Type             X           Y           Z
 ---------------------------------------------------------------------
      1          6           0       -1.842952   -0.127139    0.011086
      2          6           0       -0.606313    0.417967   -0.052683
      3          6           0        0.610592   -0.381622   -0.029219
      4          6           0        1.844582    0.109376    0.032951
      5          1           0       -2.803009    0.477952    0.057480
      6          1           0       -1.932105   -1.222975    0.179164
      7          1           0       -0.559821    1.500525   -0.013404
      8          1           0        0.511480   -1.447811   -0.103852
      9          1           0        2.067478    1.137511    0.102382
     10          1           0        2.680522   -0.556692    0.005417
 ---------------------------------------------------------------------

 SCF Done:  E(RB2PLYPD3) =  -155.695125108     A.U. after   11 cycles
 E2(B2PLYPD3) =    -0.2262456646D+00 E(B2PLYPD3) =    -0.15592137077240D+03

 The electronic state is 1-A.
 Alpha  occ. eigenvalues --  -10.62902 -10.62625 -10.62457 -10.60960  -0.92851
 Alpha  occ. eigenvalues --   -0.84792  -0.69821  -0.64216  -0.54301  -0.54108
 Alpha  occ. eigenvalues --   -0.46317  -0.45269  -0.41373  -0.37959  -0.27599
 Alpha virt. eigenvalues --    0.01550   0.06940   0.07526   0.07872   0.09452
 Alpha virt. eigenvalues --    0.11608   0.12435   0.14579   0.15771   0.16377
 Alpha virt. eigenvalues --    0.18830   0.20330   0.21527   0.22502   0.23765

 Mulliken charges:
               1
     1  C   -0.167415
     2  C   -0.040313
     3  C   -0.030209
     4  C   -0.175535
     5  H    0.081291
     6  H    0.059774
     7  H    0.060540
     8  H    0.059963
     9  H    0.070351
    10  H    0.081553
 Sum of Mulliken charges =   0.00000

 Dipole moment (field-independent basis, Debye):
    X=              0.0399    Y=              0.0362    Z=              0.1578  Tot=              0.1668
 Quadrupole moment (field-independent basis, Debye-Ang):
   XX=            -23.4832   YY=            -23.1369   ZZ=            -29.3080
   XY=             -0.0682   XZ=             -0.3626   YZ=              0.0582

 1\1\GINC-NODE05\SP\RB2PLYPD3-FC\def2QZVP\C4H6\BOITTIER\26-Aug-2020\0\\
 #p B2PLYPD3/Def2QZVP\\butadiene\\0,1\C,0,-3.845029,0.232394,-0.002194\
 C,0,-2.722226,-0.51767,0.082673\C,0,-1.384649,0.05677,0.041981\C,0,-0.
 255091,-0.643203,-0.000591\H,0,-4.895838,-0.197344,-0.035702\H,0,-3.74
 2003,1.321705,-0.201795\H,0,-2.86505,-1.592458,0.074431\H,0,-1.296475,
 1.125629,0.085789\H,0,-0.214742,-1.696011,-0.03972\H,0,0.684112,-0.132
 374,0.011767\\Version=ES64L-G09RevD.01\State=1-A\HF=-155.6951251\MP2=-
 155.9213708\RMSD=6.638e-09\PG=C01 [X(C4H6)]\\@

 Normal termination of Gaussian 09 at Wed Aug 26 09:43:33 2020.
