 Gaussian 09, Revision D.01,
 Gaussian 09:  ES64L-G09RevD.01 24-Apr-2013

 --------------------
 #p B2PLYPD3/Def2QZVP
 --------------------

 ---------
 butadiene
 ---------
 Symbolic Z-matrix:
 Charge =  0 Multiplicity = 1

                         Standard orientation:
 ---------------------------------------------------------------------
 Center     Atomic      Atomic             Coordinates (Angstroms)
 Number     Number       Type             X           Y           Z
 ---------------------------------------------------------------------
      1          6           0        1.830019    0.132108    0.045063
      2          6           0        0.582084   -0.438316   -0.049673
      3          6           0       -0.602594    0.352390   -0.098465
      4          6           0       -1.819665   -0.084869    0.027952
      5          1           0        2.728733   -0.458677    0.165734
      6          1           0        1.888764    1.247867    0.085559
      7          1           0        0.431639   -1.497212   -0.072646
      8          1           0       -0.498624    1.468488   -0.152555
      9          1           0       -1.972140   -1.153805    0.070264
     10          1           0       -2.517435    0.625460    0.354377
 ---------------------------------------------------------------------

 SCF Done:  E(RB2PLYPD3) =  -155.686242544     A.U. after   12 cycles
 E2(B2PLYPD3) =    -0.2266463056D+00 E(B2PLYPD3) =    -0.15591288884953D+03

 The electronic state is 1-A.
 Alpha  occ. eigenvalues --  -10.62889 -10.62610 -10.61878 -10.60324  -0.93704
 Alpha  occ. eigenvalues --   -0.84968  -0.70338  -0.63687  -0.54716  -0.54062
 Alpha  occ. eigenvalues --   -0.46432  -0.45361  -0.41873  -0.38047  -0.27328
 Alpha virt. eigenvalues --    0.01333   0.06973   0.07309   0.08034   0.09600
 Alpha virt. eigenvalues --    0.11800   0.12471   0.14618   0.15624   0.16164
 Alpha virt. eigenvalues --    0.18683   0.19914   0.21341   0.22506   0.24441

 Mulliken charges:
               1
     1  C   -0.175973
     2  C   -0.054840
     3  C    0.006462
     4  C   -0.173443
     5  H    0.090417
     6  H    0.067013
     7  H    0.057264
     8  H    0.040251
     9  H    0.057686
    10  H    0.085163
 Sum of Mulliken charges =   0.00000

 Dipole moment (field-independent basis, Debye):
    X=              0.0804    Y=             -0.0298    Z=              0.3300  Tot=              0.3410
 Quadrupole moment (field-independent basis, Debye-Ang):
   XX=            -24.3973   YY=            -23.0080   ZZ=            -29.0670
   XY=             -0.1005   XZ=             -0.4535   YZ=              0.1687

 1\1\GINC-NODE40\SP\RB2PLYPD3-FC\def2QZVP\C4H6\BOITTIER\26-Aug-2020\0\\
 #p B2PLYPD3/Def2QZVP\\butadiene\\0,1\C,0,-3.827827,0.250734,-0.033368\
 C,0,-2.704307,-0.533422,0.087069\C,0,-1.394685,0.02857,0.097769\C,0,-0
 .279244,-0.629339,-0.00893\H,0,-4.820452,-0.170556,-0.125475\H,0,-3.68
 2074,1.355341,-0.126148\H,0,-2.749681,-1.599771,0.159604\H,0,-1.292448
 ,1.146136,0.099491\H,0,-0.325067,-1.708924,-0.001138\H,0,0.533493,-0.0
 74454,-0.368881\\Version=ES64L-G09RevD.01\State=1-A\HF=-155.6862425\MP
 2=-155.9128888\RMSD=4.786e-09\PG=C01 [X(C4H6)]\\@

 Normal termination of Gaussian 09 at Wed Aug 26 14:22:11 2020.
