 Gaussian 09, Revision D.01,
 Gaussian 09:  ES64L-G09RevD.01 24-Apr-2013

 --------------------
 #p B2PLYPD3/Def2QZVP
 --------------------

 ---------
 butadiene
 ---------
 Symbolic Z-matrix:
 Charge =  0 Multiplicity = 1

                         Standard orientation:
 ---------------------------------------------------------------------
 Center     Atomic      Atomic             Coordinates (Angstroms)
 Number     Number       Type             X           Y           Z
 ---------------------------------------------------------------------
      1          6           0        1.832290   -0.131935   -0.005086
      2          6           0        0.595306    0.411642    0.004682
      3          6           0       -0.606147   -0.363956    0.026364
      4          6           0       -1.827319    0.099503   -0.021856
      5          1           0        2.749525    0.509908   -0.025577
      6          1           0        1.926493   -1.209729   -0.133475
      7          1           0        0.464983    1.472560    0.094379
      8          1           0       -0.500201   -1.414772    0.148847
      9          1           0       -1.987297    1.148905   -0.049730
     10          1           0       -2.618282   -0.598398   -0.059067
 ---------------------------------------------------------------------

 SCF Done:  E(RB2PLYPD3) =  -155.695587729     A.U. after   11 cycles
 E2(B2PLYPD3) =    -0.2254261711D+00 E(B2PLYPD3) =    -0.15592101389979D+03

 The electronic state is 1-A.
 Alpha  occ. eigenvalues --  -10.62391 -10.62230 -10.61349 -10.60438  -0.93649
 Alpha  occ. eigenvalues --   -0.85179  -0.70222  -0.64407  -0.54868  -0.54067
 Alpha  occ. eigenvalues --   -0.46538  -0.45819  -0.41563  -0.38204  -0.27682
 Alpha virt. eigenvalues --    0.01701   0.07029   0.07531   0.08008   0.09792
 Alpha virt. eigenvalues --    0.11807   0.12381   0.14807   0.15679   0.15996
 Alpha virt. eigenvalues --    0.18592   0.20240   0.21501   0.22723   0.24383

 Mulliken charges:
               1
     1  C   -0.178472
     2  C   -0.040714
     3  C   -0.010700
     4  C   -0.185163
     5  H    0.084460
     6  H    0.069505
     7  H    0.056028
     8  H    0.050460
     9  H    0.066239
    10  H    0.088356
 Sum of Mulliken charges =   0.00000

 Dipole moment (field-independent basis, Debye):
    X=             -0.0250    Y=             -0.0026    Z=             -0.0133  Tot=              0.0284
 Quadrupole moment (field-independent basis, Debye-Ang):
   XX=            -23.8021   YY=            -23.0598   ZZ=            -29.0961
   XY=              0.1075   XZ=             -0.0866   YZ=              0.1025

 1\1\GINC-NODE28\SP\RB2PLYPD3-FC\def2QZVP\C4H6\BOITTIER\26-Aug-2020\0\\
 #p B2PLYPD3/Def2QZVP\\butadiene\\0,1\C,0,-3.831785,0.242679,0.009827\C
 ,0,-2.71158,-0.512116,0.043411\C,0,-1.390964,0.036945,0.039277\C,0,-0.
 272257,-0.638425,0.011863\H,0,-4.848879,-0.22553,0.010915\H,0,-3.73272
 1,1.314414,-0.159195\H,0,-2.772247,-1.57515,0.173235\H,0,-1.307269,1.0
 9364,0.12193\H,0,-0.302159,-1.699828,0.023848\H,0,0.630362,-0.094728,-
 0.049339\\Version=ES64L-G09RevD.01\State=1-A\HF=-155.6955877\MP2=-155.
 9210139\RMSD=8.263e-09\PG=C01 [X(C4H6)]\\@

 Normal termination of Gaussian 09 at Wed Aug 26 09:27:49 2020.
