 Gaussian 09, Revision D.01,
 Gaussian 09:  ES64L-G09RevD.01 24-Apr-2013

 --------------------
 #p B2PLYPD3/Def2QZVP
 --------------------

 ---------
 butadiene
 ---------
 Symbolic Z-matrix:
 Charge =  0 Multiplicity = 1

                         Standard orientation:
 ---------------------------------------------------------------------
 Center     Atomic      Atomic             Coordinates (Angstroms)
 Number     Number       Type             X           Y           Z
 ---------------------------------------------------------------------
      1          6           0        1.877437   -0.106815   -0.000632
      2          6           0        0.603441    0.426407    0.044831
      3          6           0       -0.619149   -0.408440    0.001240
      4          6           0       -1.871392    0.102030   -0.029604
      5          1           0        2.793539    0.448020   -0.188319
      6          1           0        2.058000   -1.182121   -0.108844
      7          1           0        0.508192    1.531973    0.140836
      8          1           0       -0.480499   -1.471086    0.185349
      9          1           0       -2.150976    1.097617   -0.089801
     10          1           0       -2.670275   -0.503495   -0.034234
 ---------------------------------------------------------------------

 SCF Done:  E(RB2PLYPD3) =  -155.683883702     A.U. after   11 cycles
 E2(B2PLYPD3) =    -0.2271379563D+00 E(B2PLYPD3) =    -0.15591102165853D+03

 The electronic state is 1-A.
 Alpha  occ. eigenvalues --  -10.64028 -10.63408 -10.62408 -10.60586  -0.91965
 Alpha  occ. eigenvalues --   -0.84415  -0.71134  -0.64254  -0.54924  -0.53621
 Alpha  occ. eigenvalues --   -0.46801  -0.45647  -0.41556  -0.37023  -0.27304
 Alpha virt. eigenvalues --    0.00952   0.07056   0.07495   0.07964   0.08895
 Alpha virt. eigenvalues --    0.11368   0.12791   0.14623   0.15704   0.16338
 Alpha virt. eigenvalues --    0.18953   0.20319   0.22234   0.22826   0.23193

 Mulliken charges:
               1
     1  C   -0.165060
     2  C   -0.049169
     3  C   -0.037767
     4  C   -0.171299
     5  H    0.080859
     6  H    0.056250
     7  H    0.065862
     8  H    0.070243
     9  H    0.068044
    10  H    0.082038
 Sum of Mulliken charges =   0.00000

 Dipole moment (field-independent basis, Debye):
    X=             -0.1227    Y=              0.0165    Z=             -0.0661  Tot=              0.1403
 Quadrupole moment (field-independent basis, Debye-Ang):
   XX=            -22.9549   YY=            -23.2747   ZZ=            -29.3630
   XY=             -0.4708   XZ=             -0.5724   YZ=             -0.1333

 1\1\GINC-NODE20\SP\RB2PLYPD3-FC\def2QZVP\C4H6\BOITTIER\26-Aug-2020\0\\
 #p B2PLYPD3/Def2QZVP\\butadiene\\0,1\C,0,-3.879809,0.23198,0.008939\C,
 0,-2.723895,-0.522252,0.075685\C,0,-1.369965,0.0754,0.018382\C,0,-0.23
 1204,-0.654506,0.008137\H,0,-4.881175,-0.152062,-0.170193\H,0,-3.86194
 2,1.319007,-0.127621\H,0,-2.831135,-1.623859,0.200289\H,0,-1.313588,1.
 149991,0.174621\H,0,-0.136986,-1.685527,-0.025074\H,0,0.664365,-0.2043
 69,-0.006984\\Version=ES64L-G09RevD.01\State=1-A\HF=-155.6838837\MP2=-
 155.9110217\RMSD=5.820e-09\PG=C01 [X(C4H6)]\\@

 Normal termination of Gaussian 09 at Wed Aug 26 14:24:08 2020.
