 Gaussian 09, Revision D.01,
 Gaussian 09:  ES64L-G09RevD.01 24-Apr-2013

 --------------------
 #p B2PLYPD3/Def2QZVP
 --------------------

 ---------
 butadiene
 ---------
 Symbolic Z-matrix:
 Charge =  0 Multiplicity = 1

                         Standard orientation:
 ---------------------------------------------------------------------
 Center     Atomic      Atomic             Coordinates (Angstroms)
 Number     Number       Type             X           Y           Z
 ---------------------------------------------------------------------
      1          6           0        1.851699   -0.147363   -0.010141
      2          6           0        0.651655    0.431981    0.047824
      3          6           0       -0.638628   -0.369295    0.018338
      4          6           0       -1.875343    0.086159   -0.051071
      5          1           0        2.707694    0.517002   -0.125310
      6          1           0        1.941842   -1.333961   -0.285799
      7          1           0        0.663203    1.559221    0.209857
      8          1           0       -0.412709   -1.366546    0.335855
      9          1           0       -2.071784    1.149443   -0.200979
     10          1           0       -2.764544   -0.534055    0.036673
 ---------------------------------------------------------------------

 SCF Done:  E(RB2PLYPD3) =  -155.676736413     A.U. after   11 cycles
 E2(B2PLYPD3) =    -0.2270669098D+00 E(B2PLYPD3) =    -0.15590380332299D+03

 The electronic state is 1-A.
 Alpha  occ. eigenvalues --  -10.63674 -10.62928 -10.62888 -10.61760  -0.92156
 Alpha  occ. eigenvalues --   -0.85179  -0.69229  -0.62466  -0.54501  -0.52830
 Alpha  occ. eigenvalues --   -0.47169  -0.44259  -0.40154  -0.36913  -0.28644
 Alpha virt. eigenvalues --    0.01982   0.06960   0.07174   0.07621   0.08907
 Alpha virt. eigenvalues --    0.11452   0.12193   0.14110   0.15165   0.16009
 Alpha virt. eigenvalues --    0.18854   0.19527   0.20899   0.22491   0.23516

 Mulliken charges:
               1
     1  C   -0.163454
     2  C   -0.051101
     3  C   -0.034072
     4  C   -0.173938
     5  H    0.086151
     6  H    0.054476
     7  H    0.055466
     8  H    0.069960
     9  H    0.068312
    10  H    0.088200
 Sum of Mulliken charges =   0.00000

 Dipole moment (field-independent basis, Debye):
    X=             -0.1016    Y=              0.1377    Z=              0.0096  Tot=              0.1714
 Quadrupole moment (field-independent basis, Debye-Ang):
   XX=            -23.6480   YY=            -23.4220   ZZ=            -29.2473
   XY=              0.1998   XZ=             -0.6367   YZ=             -0.1216

 1\1\GINC-NODE39\SP\RB2PLYPD3-FC\def2QZVP\C4H6\BOITTIER\26-Aug-2020\0\\
 #p B2PLYPD3/Def2QZVP\\butadiene\\0,1\C,0,-3.85319,0.241938,-0.000191\C
 ,0,-2.768115,-0.528996,0.08571\C,0,-1.361118,0.041493,0.034303\C,0,-0.
 21906,-0.618306,-0.0114\H,0,-4.809104,-0.272303,-0.095876\H,0,-3.74191
 6,1.415726,-0.319514\H,0,-2.969667,-1.631363,0.28874\H,0,-1.415293,1.0
 73607,0.313895\H,0,-0.204989,-1.704293,-0.121253\H,0,0.762117,-0.15416
 7,0.058679\\Version=ES64L-G09RevD.01\State=1-A\HF=-155.6767364\MP2=-15
 5.9038033\RMSD=6.550e-09\PG=C01 [X(C4H6)]\\@

 Normal termination of Gaussian 09 at Wed Aug 26 13:11:55 2020.
