 Gaussian 09, Revision D.01,
 Gaussian 09:  ES64L-G09RevD.01 24-Apr-2013

 --------------------
 #p B2PLYPD3/Def2QZVP
 --------------------

 ---------
 butadiene
 ---------
 Symbolic Z-matrix:
 Charge =  0 Multiplicity = 1

                         Standard orientation:
 ---------------------------------------------------------------------
 Center     Atomic      Atomic             Coordinates (Angstroms)
 Number     Number       Type             X           Y           Z
 ---------------------------------------------------------------------
      1          6           0        1.828174   -0.109134   -0.018676
      2          6           0        0.595299    0.390633    0.013552
      3          6           0       -0.605909   -0.395790    0.027597
      4          6           0       -1.827806    0.106457   -0.028005
      5          1           0        2.711360    0.536707   -0.002248
      6          1           0        2.017344   -1.176036   -0.055071
      7          1           0        0.491469    1.467340    0.061386
      8          1           0       -0.467114   -1.454220    0.059869
      9          1           0       -1.972059    1.174732   -0.025389
     10          1           0       -2.719546   -0.501523   -0.005360
 ---------------------------------------------------------------------

 SCF Done:  E(RB2PLYPD3) =  -155.701174561     A.U. after   11 cycles
 E2(B2PLYPD3) =    -0.2252138818D+00 E(B2PLYPD3) =    -0.15592638844314D+03

 The electronic state is 1-A.
 Alpha  occ. eigenvalues --  -10.62217 -10.61984 -10.61540 -10.61239  -0.93461
 Alpha  occ. eigenvalues --   -0.85112  -0.70266  -0.64312  -0.54794  -0.54130
 Alpha  occ. eigenvalues --   -0.46883  -0.45398  -0.41144  -0.38430  -0.27764
 Alpha virt. eigenvalues --    0.01818   0.07009   0.07484   0.08046   0.09848
 Alpha virt. eigenvalues --    0.11700   0.12492   0.14765   0.15864   0.16216
 Alpha virt. eigenvalues --    0.18794   0.20508   0.21714   0.22591   0.23892

 Mulliken charges:
               1
     1  C   -0.177148
     2  C   -0.025056
     3  C   -0.030232
     4  C   -0.171295
     5  H    0.083072
     6  H    0.063978
     7  H    0.052997
     8  H    0.055753
     9  H    0.062661
    10  H    0.085271
 Sum of Mulliken charges =   0.00000

 Dipole moment (field-independent basis, Debye):
    X=             -0.0127    Y=             -0.0099    Z=              0.0583  Tot=              0.0605
 Quadrupole moment (field-independent basis, Debye-Ang):
   XX=            -23.3896   YY=            -23.1797   ZZ=            -29.1490
   XY=             -0.0986   XZ=             -0.0451   YZ=              0.0497

 1\1\GINC-NODE02\SP\RB2PLYPD3-FC\def2QZVP\C4H6\BOITTIER\26-Aug-2020\0\\
 #p B2PLYPD3/Def2QZVP\\butadiene\\0,1\C,0,-3.831927,0.221125,-0.000699\
 C,0,-2.709452,-0.491735,0.05093\C,0,-1.385939,0.064852,0.041671\C,0,-0
 .275036,-0.651365,0.005575\H,0,-4.817149,-0.253696,0.035091\H,0,-3.825
 468,1.302854,-0.072883\H,0,-2.801575,-1.567312,0.134674\H,0,-1.331209,
 1.131423,0.038513\H,0,-0.326046,-1.727447,0.04394\H,0,0.711908,-0.2140
 15,0.010112\\Version=ES64L-G09RevD.01\State=1-A\HF=-155.7011746\MP2=-1
 55.9263884\RMSD=2.859e-09\PG=C01 [X(C4H6)]\\@

 Normal termination of Gaussian 09 at Wed Aug 26 21:42:56 2020.
