 Gaussian 09, Revision D.01,
 Gaussian 09:  ES64L-G09RevD.01 24-Apr-2013

 --------------------
 #p B2PLYPD3/Def2QZVP
 --------------------

 ---------
 butadiene
 ---------
 Symbolic Z-matrix:
 Charge =  0 Multiplicity = 1

                         Standard orientation:
 ---------------------------------------------------------------------
 Center     Atomic      Atomic             Coordinates (Angstroms)
 Number     Number       Type             X           Y           Z
 ---------------------------------------------------------------------
      1          6           0        1.859279    0.070755   -0.079039
      2          6           0        0.603223   -0.344039    0.018298
      3          6           0       -0.626150    0.410017    0.076361
      4          6           0       -1.819237   -0.146236   -0.043810
      5          1           0        2.746551   -0.520309    0.253245
      6          1           0        2.073469    1.103757   -0.164628
      7          1           0        0.393734   -1.364642    0.172711
      8          1           0       -0.619197    1.577770    0.065680
      9          1           0       -1.914796   -1.156036   -0.226589
     10          1           0       -2.782456    0.416475    0.068721
 ---------------------------------------------------------------------

 SCF Done:  E(RB2PLYPD3) =  -155.681899537     A.U. after   11 cycles
 E2(B2PLYPD3) =    -0.2261268142D+00 E(B2PLYPD3) =    -0.15590802635075D+03

 The electronic state is 1-A.
 Alpha  occ. eigenvalues --  -10.63198 -10.62237 -10.61506 -10.61454  -0.93442
 Alpha  occ. eigenvalues --   -0.85340  -0.70556  -0.63923  -0.54482  -0.54172
 Alpha  occ. eigenvalues --   -0.47327  -0.45151  -0.40354  -0.37966  -0.27979
 Alpha virt. eigenvalues --    0.01146   0.06955   0.07553   0.07785   0.09717
 Alpha virt. eigenvalues --    0.11653   0.12560   0.14681   0.15662   0.16144
 Alpha virt. eigenvalues --    0.19024   0.20165   0.21577   0.22024   0.23448

 Mulliken charges:
               1
     1  C   -0.168994
     2  C   -0.029436
     3  C   -0.030606
     4  C   -0.164843
     5  H    0.078280
     6  H    0.061366
     7  H    0.061124
     8  H    0.044545
     9  H    0.065314
    10  H    0.083251
 Sum of Mulliken charges =   0.00000

 Dipole moment (field-independent basis, Debye):
    X=             -0.2051    Y=             -0.0157    Z=              0.1911  Tot=              0.2808
 Quadrupole moment (field-independent basis, Debye-Ang):
   XX=            -23.1816   YY=            -23.6835   ZZ=            -28.9887
   XY=              0.3156   XZ=              0.7680   YZ=             -0.2024

 1\1\GINC-NODE26\SP\RB2PLYPD3-FC\def2QZVP\C4H6\BOITTIER\26-Aug-2020\0\\
 #p B2PLYPD3/Def2QZVP\\butadiene\\0,1\C,0,-3.868576,0.18279,0.085529\C,
 0,-2.704212,-0.447563,0.007323\C,0,-1.361848,0.078247,-0.062766\C,0,-0
 .284588,-0.674416,0.079797\H,0,-4.844941,-0.252988,-0.236696\H,0,-3.89
 9024,1.239267,0.142333\H,0,-2.676107,-1.492888,-0.118639\H,0,-1.164564
 ,1.229105,-0.083075\H,0,-0.36735,-1.680026,0.289881\H,0,0.762364,-0.29
 1919,-0.041386\\Version=ES64L-G09RevD.01\State=1-A\HF=-155.6818995\MP2
 =-155.9080264\RMSD=7.016e-09\PG=C01 [X(C4H6)]\\@

 Normal termination of Gaussian 09 at Wed Aug 26 13:48:20 2020.
