 Gaussian 09, Revision D.01,
 Gaussian 09:  ES64L-G09RevD.01 24-Apr-2013

 --------------------
 #p B2PLYPD3/Def2QZVP
 --------------------

 ---------
 butadiene
 ---------
 Symbolic Z-matrix:
 Charge =  0 Multiplicity = 1

                         Standard orientation:
 ---------------------------------------------------------------------
 Center     Atomic      Atomic             Coordinates (Angstroms)
 Number     Number       Type             X           Y           Z
 ---------------------------------------------------------------------
      1          6           0        1.831040    0.089875   -0.015460
      2          6           0        0.598609   -0.389962    0.002872
      3          6           0       -0.592476    0.415545    0.013928
      4          6           0       -1.825272   -0.117891   -0.012668
      5          1           0        2.700531   -0.537973   -0.022094
      6          1           0        2.021899    1.164264    0.043403
      7          1           0        0.409029   -1.440592    0.048664
      8          1           0       -0.478930    1.518477    0.002957
      9          1           0       -1.993503   -1.178202    0.013803
     10          1           0       -2.730433    0.488620   -0.018768
 ---------------------------------------------------------------------

 SCF Done:  E(RB2PLYPD3) =  -155.699829060     A.U. after   11 cycles
 E2(B2PLYPD3) =    -0.2256852529D+00 E(B2PLYPD3) =    -0.15592551431287D+03

 The electronic state is 1-A.
 Alpha  occ. eigenvalues --  -10.62751 -10.62058 -10.61636 -10.61317  -0.93311
 Alpha  occ. eigenvalues --   -0.84847  -0.70367  -0.64132  -0.54933  -0.53753
 Alpha  occ. eigenvalues --   -0.46825  -0.45397  -0.41153  -0.38336  -0.27603
 Alpha virt. eigenvalues --    0.01693   0.07030   0.07361   0.08088   0.09646
 Alpha virt. eigenvalues --    0.11680   0.12508   0.14764   0.15812   0.16251
 Alpha virt. eigenvalues --    0.18755   0.20457   0.21863   0.22961   0.23589

 Mulliken charges:
               1
     1  C   -0.173536
     2  C   -0.027745
     3  C   -0.025830
     4  C   -0.176813
     5  H    0.085520
     6  H    0.063055
     7  H    0.056375
     8  H    0.052328
     9  H    0.063974
    10  H    0.082671
 Sum of Mulliken charges =   0.00000

 Dipole moment (field-independent basis, Debye):
    X=             -0.0191    Y=             -0.0271    Z=              0.0768  Tot=              0.0836
 Quadrupole moment (field-independent basis, Debye-Ang):
   XX=            -23.3728   YY=            -23.1806   ZZ=            -29.2277
   XY=              0.2637   XZ=              0.0824   YZ=             -0.0200

 1\1\GINC-NODE34\SP\RB2PLYPD3-FC\def2QZVP\C4H6\BOITTIER\26-Aug-2020\0\\
 #p B2PLYPD3/Def2QZVP\\butadiene\\0,1\C,0,-3.833729,0.211806,0.031762\C
 ,0,-2.711022,-0.487473,0.029871\C,0,-1.391816,0.083855,-0.000594\C,0,-
 0.278519,-0.6669,0.043917\H,0,-4.804099,-0.244433,0.053673\H,0,-3.8232
 69,1.300906,-0.057433\H,0,-2.718635,-1.555904,0.013788\H,0,-1.299919,1
 .188675,-0.020582\H,0,-0.308848,-1.740367,0.047363\H,0,0.723007,-0.237
 851,0.035418\\Version=ES64L-G09RevD.01\State=1-A\HF=-155.6998291\MP2=-
 155.9255143\RMSD=5.291e-09\PG=C01 [X(C4H6)]\\@

 Normal termination of Gaussian 09 at Wed Aug 26 20:24:13 2020.
