 Gaussian 09, Revision D.01,
 Gaussian 09:  ES64L-G09RevD.01 24-Apr-2013

 --------------------
 #p B2PLYPD3/Def2QZVP
 --------------------

 ---------
 butadiene
 ---------
 Symbolic Z-matrix:
 Charge =  0 Multiplicity = 1

                         Standard orientation:
 ---------------------------------------------------------------------
 Center     Atomic      Atomic             Coordinates (Angstroms)
 Number     Number       Type             X           Y           Z
 ---------------------------------------------------------------------
      1          6           0       -1.848195    0.107951   -0.009770
      2          6           0       -0.608259   -0.381766   -0.012606
      3          6           0        0.610973    0.412336   -0.019448
      4          6           0        1.846780   -0.124499   -0.001202
      5          1           0       -2.660447   -0.613510    0.027208
      6          1           0       -2.053982    1.163818    0.086594
      7          1           0       -0.477145   -1.450520    0.076676
      8          1           0        0.445096    1.442906   -0.009701
      9          1           0        2.018921   -1.142217   -0.015634
     10          1           0        2.719767    0.515392    0.093018
 ---------------------------------------------------------------------

 SCF Done:  E(RB2PLYPD3) =  -155.696575164     A.U. after   11 cycles
 E2(B2PLYPD3) =    -0.2255186178D+00 E(B2PLYPD3) =    -0.15592209378164D+03

 The electronic state is 1-A.
 Alpha  occ. eigenvalues --  -10.62300 -10.62228 -10.61447 -10.61311  -0.92989
 Alpha  occ. eigenvalues --   -0.84959  -0.70624  -0.64646  -0.54574  -0.54151
 Alpha  occ. eigenvalues --   -0.47041  -0.46205  -0.41194  -0.37882  -0.27584
 Alpha virt. eigenvalues --    0.01538   0.06953   0.07580   0.08134   0.09563
 Alpha virt. eigenvalues --    0.11786   0.12389   0.14944   0.15665   0.16191
 Alpha virt. eigenvalues --    0.18777   0.20350   0.21787   0.22934   0.24063

 Mulliken charges:
               1
     1  C   -0.182024
     2  C   -0.025039
     3  C   -0.039367
     4  C   -0.176795
     5  H    0.083046
     6  H    0.069531
     7  H    0.052464
     8  H    0.062563
     9  H    0.074011
    10  H    0.081611
 Sum of Mulliken charges =   0.00000

 Dipole moment (field-independent basis, Debye):
    X=              0.0420    Y=             -0.0135    Z=              0.2165  Tot=              0.2209
 Quadrupole moment (field-independent basis, Debye-Ang):
   XX=            -23.6692   YY=            -22.9936   ZZ=            -29.1975
   XY=             -0.2941   XZ=             -0.0638   YZ=              0.0682

 1\1\GINC-NODE20\SP\RB2PLYPD3-FC\def2QZVP\C4H6\BOITTIER\26-Aug-2020\0\\
 #p B2PLYPD3/Def2QZVP\\butadiene\\0,1\C,0,-3.850952,0.22317,0.015059\C,
 0,-2.719726,-0.48213,0.027386\C,0,-1.377278,0.078432,-0.000429\C,0,-0.
 25853,-0.671862,0.034293\H,0,-4.779876,-0.338569,0.07141\H,0,-3.862498
 ,1.301107,0.081452\H,0,-2.783214,-1.554089,0.146845\H,0,-1.354477,1.12
 1882,-0.019862\H,0,-0.27287,-1.703936,0.048689\H,0,0.715939,-0.197624,
 0.111451\\Version=ES64L-G09RevD.01\State=1-A\HF=-155.6965752\MP2=-155.
 9220938\RMSD=5.838e-09\PG=C01 [X(C4H6)]\\@

 Normal termination of Gaussian 09 at Wed Aug 26 08:43:33 2020.
