 Gaussian 09, Revision D.01,
 Gaussian 09:  ES64L-G09RevD.01 24-Apr-2013

 --------------------
 #p B2PLYPD3/Def2QZVP
 --------------------

 ---------
 butadiene
 ---------
 Symbolic Z-matrix:
 Charge =  0 Multiplicity = 1

                         Standard orientation:
 ---------------------------------------------------------------------
 Center     Atomic      Atomic             Coordinates (Angstroms)
 Number     Number       Type             X           Y           Z
 ---------------------------------------------------------------------
      1          6           0        1.832658   -0.101679    0.057388
      2          6           0        0.580686    0.386070   -0.088437
      3          6           0       -0.598423   -0.444162   -0.084024
      4          6           0       -1.831001    0.121862   -0.000312
      5          1           0        2.546172    0.607903    0.051052
      6          1           0        2.156672   -1.064635    0.141641
      7          1           0        0.389165    1.452366    0.070140
      8          1           0       -0.474846   -1.518559   -0.025880
      9          1           0       -1.884206    1.272461    0.129561
     10          1           0       -2.636472   -0.522090    0.325796
 ---------------------------------------------------------------------

 SCF Done:  E(RB2PLYPD3) =  -155.677307659     A.U. after   12 cycles
 E2(B2PLYPD3) =    -0.2273143439D+00 E(B2PLYPD3) =    -0.15590462200330D+03

 The electronic state is 1-A.
 Alpha  occ. eigenvalues --  -10.62769 -10.62689 -10.62408 -10.60263  -0.93058
 Alpha  occ. eigenvalues --   -0.84760  -0.70768  -0.64131  -0.55021  -0.53728
 Alpha  occ. eigenvalues --   -0.46473  -0.45446  -0.41740  -0.37818  -0.27157
 Alpha virt. eigenvalues --    0.01001   0.06963   0.07249   0.08147   0.08998
 Alpha virt. eigenvalues --    0.11756   0.12547   0.15025   0.15474   0.16311
 Alpha virt. eigenvalues --    0.18589   0.19362   0.22147   0.23409   0.23786

 Mulliken charges:
               1
     1  C   -0.179746
     2  C   -0.025544
     3  C   -0.036091
     4  C   -0.162427
     5  H    0.079706
     6  H    0.073622
     7  H    0.057096
     8  H    0.060316
     9  H    0.052691
    10  H    0.080377
 Sum of Mulliken charges =   0.00000

 Dipole moment (field-independent basis, Debye):
    X=              0.2092    Y=             -0.1163    Z=              0.5274  Tot=              0.5792
 Quadrupole moment (field-independent basis, Debye-Ang):
   XX=            -24.4368   YY=            -22.8573   ZZ=            -29.1603
   XY=             -0.2832   XZ=             -0.7179   YZ=             -0.0645

 1\1\GINC-NODE12\SP\RB2PLYPD3-FC\def2QZVP\C4H6\BOITTIER\26-Aug-2020\0\\
 #p B2PLYPD3/Def2QZVP\\butadiene\\0,1\C,0,-3.835724,0.228867,0.078342\C
 ,0,-2.698025,-0.491078,-0.039634\C,0,-1.383661,0.10196,-0.058511\C,0,-
 0.279724,-0.682201,0.055734\H,0,-4.670103,-0.333463,0.094041\H,0,-3.97
 2584,1.238133,0.123294\H,0,-2.710721,-1.567356,0.161061\H,0,-1.302687,
 1.181852,-0.042469\H,0,-0.44414,-1.816301,0.229977\H,0,0.632644,-0.189
 115,0.362744\\Version=ES64L-G09RevD.01\State=1-A\HF=-155.6773077\MP2=-
 155.904622\RMSD=5.244e-09\PG=C01 [X(C4H6)]\\@

 Normal termination of Gaussian 09 at Wed Aug 26 15:18:31 2020.
