 Gaussian 09, Revision D.01,
 Gaussian 09:  ES64L-G09RevD.01 24-Apr-2013

 --------------------
 #p B2PLYPD3/Def2QZVP
 --------------------

 ---------
 butadiene
 ---------
 Symbolic Z-matrix:
 Charge =  0 Multiplicity = 1

                         Standard orientation:
 ---------------------------------------------------------------------
 Center     Atomic      Atomic             Coordinates (Angstroms)
 Number     Number       Type             X           Y           Z
 ---------------------------------------------------------------------
      1          6           0        1.841814   -0.105686    0.027768
      2          6           0        0.598633    0.386674   -0.026062
      3          6           0       -0.607607   -0.389911   -0.024208
      4          6           0       -1.839365    0.108107    0.019267
      5          1           0        2.728374    0.523980    0.026668
      6          1           0        2.005661   -1.173459   -0.003376
      7          1           0        0.509123    1.472199   -0.009416
      8          1           0       -0.468924   -1.465860   -0.053427
      9          1           0       -2.036262    1.187282   -0.024123
     10          1           0       -2.698820   -0.539251    0.083088
 ---------------------------------------------------------------------

 SCF Done:  E(RB2PLYPD3) =  -155.700349200     A.U. after   11 cycles
 E2(B2PLYPD3) =    -0.2257475002D+00 E(B2PLYPD3) =    -0.15592609669997D+03

 The electronic state is 1-A.
 Alpha  occ. eigenvalues --  -10.62431 -10.62366 -10.61650 -10.61581  -0.93235
 Alpha  occ. eigenvalues --   -0.84974  -0.70387  -0.63928  -0.54704  -0.54009
 Alpha  occ. eigenvalues --   -0.46836  -0.45306  -0.41104  -0.38322  -0.27649
 Alpha virt. eigenvalues --    0.01555   0.06991   0.07440   0.07995   0.09846
 Alpha virt. eigenvalues --    0.11649   0.12415   0.14733   0.15813   0.16269
 Alpha virt. eigenvalues --    0.18834   0.20297   0.21740   0.22657   0.23755

 Mulliken charges:
               1
     1  C   -0.175434
     2  C   -0.023990
     3  C   -0.031219
     4  C   -0.173675
     5  H    0.086041
     6  H    0.061004
     7  H    0.050729
     8  H    0.053121
     9  H    0.067156
    10  H    0.086268
 Sum of Mulliken charges =   0.00000

 Dipole moment (field-independent basis, Debye):
    X=             -0.0162    Y=             -0.0039    Z=             -0.0212  Tot=              0.0270
 Quadrupole moment (field-independent basis, Debye-Ang):
   XX=            -23.3404   YY=            -23.2092   ZZ=            -29.2403
   XY=             -0.0627   XZ=             -0.1056   YZ=             -0.0081

 1\1\GINC-NODE38\SP\RB2PLYPD3-FC\def2QZVP\C4H6\BOITTIER\26-Aug-2020\0\\
 #p B2PLYPD3/Def2QZVP\\butadiene\\0,1\C,0,-3.845587,0.221336,0.044867\C
 ,0,-2.711542,-0.488234,0.00924\C,0,-1.385187,0.05815,-0.009468\C,0,-0.
 263109,-0.651966,0.052308\H,0,-4.831032,-0.238139,0.060673\H,0,-3.8145
 88,1.299709,-0.019201\H,0,-2.818903,-1.571116,0.059167\H,0,-1.327958,1
 .140089,-0.071796\H,0,-0.263873,-1.749768,0.042309\H,0,0.699046,-0.168
 308,0.098585\\Version=ES64L-G09RevD.01\State=1-A\HF=-155.7003492\MP2=-
 155.9260967\RMSD=3.598e-09\PG=C01 [X(C4H6)]\\@

 Normal termination of Gaussian 09 at Wed Aug 26 21:27:22 2020.
