 Gaussian 09, Revision D.01,
 Gaussian 09:  ES64L-G09RevD.01 24-Apr-2013

 --------------------
 #p B2PLYPD3/Def2QZVP
 --------------------

 ---------
 butadiene
 ---------
 Symbolic Z-matrix:
 Charge =  0 Multiplicity = 1

                         Standard orientation:
 ---------------------------------------------------------------------
 Center     Atomic      Atomic             Coordinates (Angstroms)
 Number     Number       Type             X           Y           Z
 ---------------------------------------------------------------------
      1          6           0       -1.834776    0.098016   -0.011076
      2          6           0       -0.600633   -0.395681    0.017525
      3          6           0        0.590302    0.409330   -0.003575
      4          6           0        1.835281   -0.110160   -0.003185
      5          1           0       -2.682788   -0.524573   -0.011816
      6          1           0       -2.008653    1.169269   -0.046026
      7          1           0       -0.438609   -1.480439    0.053502
      8          1           0        0.452764    1.476394    0.076047
      9          1           0        2.022850   -1.162473   -0.062773
     10          1           0        2.713393    0.512788   -0.007069
 ---------------------------------------------------------------------

 SCF Done:  E(RB2PLYPD3) =  -155.700220623     A.U. after   11 cycles
 E2(B2PLYPD3) =    -0.2257028461D+00 E(B2PLYPD3) =    -0.15592592346901D+03

 The electronic state is 1-A.
 Alpha  occ. eigenvalues --  -10.62535 -10.62375 -10.61539 -10.61129  -0.93182
 Alpha  occ. eigenvalues --   -0.84828  -0.70660  -0.64144  -0.55012  -0.53893
 Alpha  occ. eigenvalues --   -0.46798  -0.45699  -0.41351  -0.38206  -0.27490
 Alpha virt. eigenvalues --    0.01553   0.07067   0.07405   0.08124   0.09611
 Alpha virt. eigenvalues --    0.11687   0.12515   0.14847   0.15810   0.16202
 Alpha virt. eigenvalues --    0.18767   0.20427   0.21938   0.22941   0.23644

 Mulliken charges:
               1
     1  C   -0.177309
     2  C   -0.024580
     3  C   -0.031049
     4  C   -0.178624
     5  H    0.088675
     6  H    0.063368
     7  H    0.051393
     8  H    0.058037
     9  H    0.066850
    10  H    0.083239
 Sum of Mulliken charges =   0.00000

 Dipole moment (field-independent basis, Debye):
    X=             -0.0007    Y=             -0.0086    Z=              0.0055  Tot=              0.0102
 Quadrupole moment (field-independent basis, Debye-Ang):
   XX=            -23.3814   YY=            -23.1321   ZZ=            -29.2232
   XY=             -0.2596   XZ=              0.0024   YZ=              0.0665

 1\1\GINC-NODE27\SP\RB2PLYPD3-FC\def2QZVP\C4H6\BOITTIER\26-Aug-2020\0\\
 #p B2PLYPD3/Def2QZVP\\butadiene\\0,1\C,0,-3.836108,0.220038,0.008529\C
 ,0,-2.714431,-0.492468,0.051426\C,0,-1.395267,0.077718,0.01259\C,0,-0.
 267789,-0.662823,0.027938\H,0,-4.784599,-0.234863,0.021638\H,0,-3.8090
 44,1.303786,-0.053084\H,0,-2.755637,-1.587267,0.114378\H,0,-1.33294,1.
 15344,0.06568\H,0,-0.278164,-1.732812,-0.0054\H,0,0.710336,-0.213248,0
 .01025\\Version=ES64L-G09RevD.01\State=1-A\HF=-155.7002206\MP2=-155.92
 59235\RMSD=5.367e-09\PG=C01 [X(C4H6)]\\@

 Normal termination of Gaussian 09 at Wed Aug 26 20:54:09 2020.
