 Gaussian 09, Revision D.01,
 Gaussian 09:  ES64L-G09RevD.01 24-Apr-2013

 --------------------
 #p B2PLYPD3/Def2QZVP
 --------------------

 ---------
 butadiene
 ---------
 Symbolic Z-matrix:
 Charge =  0 Multiplicity = 1

                         Standard orientation:
 ---------------------------------------------------------------------
 Center     Atomic      Atomic             Coordinates (Angstroms)
 Number     Number       Type             X           Y           Z
 ---------------------------------------------------------------------
      1          6           0        1.833255   -0.102352   -0.065217
      2          6           0        0.591964    0.403800    0.034343
      3          6           0       -0.614482   -0.465982    0.063441
      4          6           0       -1.855035    0.145932   -0.025736
      5          1           0        2.789929    0.545469    0.043220
      6          1           0        1.998261   -1.159614   -0.201765
      7          1           0        0.467558    1.536288    0.220061
      8          1           0       -0.419265   -1.546015    0.258320
      9          1           0       -1.874768    1.229409   -0.172817
     10          1           0       -2.695926   -0.493926   -0.188004
 ---------------------------------------------------------------------

 SCF Done:  E(RB2PLYPD3) =  -155.680827063     A.U. after   11 cycles
 E2(B2PLYPD3) =    -0.2286941859D+00 E(B2PLYPD3) =    -0.15590952124902D+03

 The electronic state is 1-A.
 Alpha  occ. eigenvalues --  -10.64147 -10.63602 -10.62398 -10.62292  -0.91980
 Alpha  occ. eigenvalues --   -0.83912  -0.69191  -0.63292  -0.54130  -0.52423
 Alpha  occ. eigenvalues --   -0.46145  -0.45511  -0.40916  -0.37012  -0.27326
 Alpha virt. eigenvalues --    0.01290   0.06893   0.07066   0.07673   0.08676
 Alpha virt. eigenvalues --    0.11582   0.12328   0.14441   0.15326   0.15978
 Alpha virt. eigenvalues --    0.18700   0.19742   0.21198   0.22605   0.23331

 Mulliken charges:
               1
     1  C   -0.180702
     2  C   -0.025017
     3  C   -0.054274
     4  C   -0.174374
     5  H    0.077674
     6  H    0.066164
     7  H    0.056729
     8  H    0.070408
     9  H    0.073994
    10  H    0.089399
 Sum of Mulliken charges =   0.00000

 Dipole moment (field-independent basis, Debye):
    X=              0.0159    Y=             -0.0966    Z=              0.0074  Tot=              0.0982
 Quadrupole moment (field-independent basis, Debye-Ang):
   XX=            -24.2542   YY=            -22.9598   ZZ=            -29.5579
   XY=             -0.1677   XZ=              0.6757   YZ=              0.0996

 1\1\GINC-NODE33\SP\RB2PLYPD3-FC\def2QZVP\C4H6\BOITTIER\26-Aug-2020\0\\
 #p B2PLYPD3/Def2QZVP\\butadiene\\0,1\C,0,-3.844185,0.209064,-0.0368\C,
 0,-2.711862,-0.507051,0.072422\C,0,-1.369862,0.134752,0.074556\C,0,-0.
 258529,-0.69013,-0.002063\H,0,-4.899882,-0.255273,0.091852\H,0,-3.8197
 38,1.274946,-0.201035\H,0,-2.789247,-1.638448,0.287944\H,0,-1.368519,1
 .236939,0.241113\H,0,-0.432798,-1.763265,-0.120206\H,0,0.681397,-0.214
 42,-0.183957\\Version=ES64L-G09RevD.01\State=1-A\HF=-155.6808271\MP2=-
 155.9095212\RMSD=9.931e-09\PG=C01 [X(C4H6)]\\@

 Normal termination of Gaussian 09 at Wed Aug 26 15:08:53 2020.
