 Gaussian 09, Revision D.01,
 Gaussian 09:  ES64L-G09RevD.01 24-Apr-2013

 --------------------
 #p B2PLYPD3/Def2QZVP
 --------------------

 ---------
 butadiene
 ---------
 Symbolic Z-matrix:
 Charge =  0 Multiplicity = 1

                         Standard orientation:
 ---------------------------------------------------------------------
 Center     Atomic      Atomic             Coordinates (Angstroms)
 Number     Number       Type             X           Y           Z
 ---------------------------------------------------------------------
      1          6           0        1.837128    0.077365    0.014097
      2          6           0        0.578389   -0.363729   -0.036354
      3          6           0       -0.582877    0.423353   -0.086195
      4          6           0       -1.794968   -0.130419    0.039889
      5          1           0        2.603520   -0.586357    0.220056
      6          1           0        2.080330    1.143091    0.088802
      7          1           0        0.429695   -1.445853   -0.066143
      8          1           0       -0.573590    1.614667   -0.056477
      9          1           0       -1.998279   -1.216123   -0.051454
     10          1           0       -2.767708    0.451157    0.276591
 ---------------------------------------------------------------------

 SCF Done:  E(RB2PLYPD3) =  -155.680303870     A.U. after   11 cycles
 E2(B2PLYPD3) =    -0.2274167435D+00 E(B2PLYPD3) =    -0.15590772061356D+03

 The electronic state is 1-A.
 Alpha  occ. eigenvalues --  -10.63515 -10.62828 -10.62409 -10.60902  -0.93694
 Alpha  occ. eigenvalues --   -0.84724  -0.70337  -0.62990  -0.54930  -0.53456
 Alpha  occ. eigenvalues --   -0.46090  -0.44408  -0.41200  -0.38480  -0.27272
 Alpha virt. eigenvalues --    0.01238   0.06886   0.07009   0.07780   0.09592
 Alpha virt. eigenvalues --    0.11453   0.12482   0.14571   0.15783   0.16356
 Alpha virt. eigenvalues --    0.18569   0.20128   0.21503   0.22710   0.23741

 Mulliken charges:
               1
     1  C   -0.171329
     2  C   -0.028897
     3  C   -0.020854
     4  C   -0.164608
     5  H    0.083402
     6  H    0.062291
     7  H    0.054264
     8  H    0.050417
     9  H    0.062349
    10  H    0.072965
 Sum of Mulliken charges =   0.00000

 Dipole moment (field-independent basis, Debye):
    X=             -0.1423    Y=             -0.0800    Z=              0.2778  Tot=              0.3222
 Quadrupole moment (field-independent basis, Debye-Ang):
   XX=            -23.7382   YY=            -23.2311   ZZ=            -29.2250
   XY=              0.2087   XZ=              0.1160   YZ=              0.1762

 1\1\GINC-NODE39\SP\RB2PLYPD3-FC\def2QZVP\C4H6\BOITTIER\26-Aug-2020\0\\
 #p B2PLYPD3/Def2QZVP\\butadiene\\0,1\C,0,-3.839344,0.199219,-0.004703\
 C,0,-2.683708,-0.465064,0.064326\C,0,-1.396742,0.09491,0.090187\C,0,-0
 .308439,-0.677475,-0.01346\H,0,-4.716015,-0.317989,-0.189765\H,0,-3.88
 1546,1.288333,-0.116723\H,0,-2.737582,-1.554348,0.131765\H,0,-1.185673
 ,1.265655,0.019438\H,0,-0.309073,-1.778262,0.115768\H,0,0.754189,-0.29
 4312,-0.267406\\Version=ES64L-G09RevD.01\State=1-A\HF=-155.6803039\MP2
 =-155.9077206\RMSD=4.830e-09\PG=C01 [X(C4H6)]\\@

 Normal termination of Gaussian 09 at Wed Aug 26 13:57:22 2020.
