 Gaussian 09, Revision D.01,
 Gaussian 09:  ES64L-G09RevD.01 24-Apr-2013

 --------------------
 #p B2PLYPD3/Def2QZVP
 --------------------

 ---------
 butadiene
 ---------
 Symbolic Z-matrix:
 Charge =  0 Multiplicity = 1

                         Standard orientation:
 ---------------------------------------------------------------------
 Center     Atomic      Atomic             Coordinates (Angstroms)
 Number     Number       Type             X           Y           Z
 ---------------------------------------------------------------------
      1          6           0        1.842807   -0.101477    0.013036
      2          6           0        0.598188    0.386721    0.003976
      3          6           0       -0.607038   -0.412687   -0.014816
      4          6           0       -1.847647    0.113875    0.004096
      5          1           0        2.686675    0.560209   -0.054812
      6          1           0        2.054298   -1.154526    0.034697
      7          1           0        0.456717    1.465281   -0.052957
      8          1           0       -0.446882   -1.467140   -0.009533
      9          1           0       -1.970539    1.186570    0.068668
     10          1           0       -2.698129   -0.508982   -0.023815
 ---------------------------------------------------------------------

 SCF Done:  E(RB2PLYPD3) =  -155.700222570     A.U. after   11 cycles
 E2(B2PLYPD3) =    -0.2257284745D+00 E(B2PLYPD3) =    -0.15592595104425D+03

 The electronic state is 1-A.
 Alpha  occ. eigenvalues --  -10.62455 -10.62393 -10.61473 -10.61350  -0.93008
 Alpha  occ. eigenvalues --   -0.84844  -0.70611  -0.64269  -0.54876  -0.53924
 Alpha  occ. eigenvalues --   -0.46696  -0.46120  -0.41336  -0.38043  -0.27497
 Alpha virt. eigenvalues --    0.01496   0.07026   0.07469   0.08154   0.09612
 Alpha virt. eigenvalues --    0.11723   0.12435   0.14849   0.15808   0.16132
 Alpha virt. eigenvalues --    0.18801   0.20525   0.21643   0.22870   0.23933

 Mulliken charges:
               1
     1  C   -0.181310
     2  C   -0.021835
     3  C   -0.036387
     4  C   -0.178951
     5  H    0.085059
     6  H    0.066173
     7  H    0.051281
     8  H    0.056899
     9  H    0.068315
    10  H    0.090754
 Sum of Mulliken charges =   0.00000

 Dipole moment (field-independent basis, Debye):
    X=             -0.0065    Y=             -0.0298    Z=             -0.0381  Tot=              0.0488
 Quadrupole moment (field-independent basis, Debye-Ang):
   XX=            -23.4901   YY=            -23.0751   ZZ=            -29.2496
   XY=             -0.1874   XZ=             -0.1970   YZ=             -0.0383

 1\1\GINC-NODE27\SP\RB2PLYPD3-FC\def2QZVP\C4H6\BOITTIER\26-Aug-2020\0\\
 #p B2PLYPD3/Def2QZVP\\butadiene\\0,1\C,0,-3.847321,0.2203,0.028125\C,0
 ,-2.712752,-0.48694,0.035985\C,0,-1.381877,0.07827,0.000146\C,0,-0.258
 211,-0.665205,0.036963\H,0,-4.797905,-0.277799,-0.025079\H,0,-3.862989
 ,1.29446,0.021408\H,0,-2.77064,-1.574325,0.007883\H,0,-1.346842,1.1440
 06,-0.022812\H,0,-0.333104,-1.740222,0.130109\H,0,0.691638,-0.209008,-
 0.004516\\Version=ES64L-G09RevD.01\State=1-A\HF=-155.7002226\MP2=-155.
 925951\RMSD=5.262e-09\PG=C01 [X(C4H6)]\\@

 Normal termination of Gaussian 09 at Wed Aug 26 19:18:59 2020.
