 Gaussian 09, Revision D.01,
 Gaussian 09:  ES64L-G09RevD.01 24-Apr-2013

 --------------------
 #p B2PLYPD3/Def2QZVP
 --------------------

 ---------
 butadiene
 ---------
 Symbolic Z-matrix:
 Charge =  0 Multiplicity = 1

                         Standard orientation:
 ---------------------------------------------------------------------
 Center     Atomic      Atomic             Coordinates (Angstroms)
 Number     Number       Type             X           Y           Z
 ---------------------------------------------------------------------
      1          6           0       -1.853086    0.097062    0.006746
      2          6           0       -0.614972   -0.381938    0.003697
      3          6           0        0.621540    0.404919    0.011262
      4          6           0        1.846933   -0.119682   -0.019128
      5          1           0       -2.744784   -0.545361   -0.078334
      6          1           0       -2.047626    1.202039   -0.085786
      7          1           0       -0.433095   -1.451393    0.136642
      8          1           0        0.563672    1.481645    0.076416
      9          1           0        1.988601   -1.212640   -0.082171
     10          1           0        2.670740    0.523545    0.017770
 ---------------------------------------------------------------------

 SCF Done:  E(RB2PLYPD3) =  -155.696225041     A.U. after   11 cycles
 E2(B2PLYPD3) =    -0.2258732169D+00 E(B2PLYPD3) =    -0.15592209825763D+03

 The electronic state is 1-A.
 Alpha  occ. eigenvalues --  -10.62738 -10.62451 -10.62170 -10.61356  -0.92836
 Alpha  occ. eigenvalues --   -0.85125  -0.69943  -0.63654  -0.54834  -0.53453
 Alpha  occ. eigenvalues --   -0.46991  -0.45213  -0.40805  -0.37888  -0.27994
 Alpha virt. eigenvalues --    0.01769   0.07021   0.07366   0.07998   0.09574
 Alpha virt. eigenvalues --    0.11626   0.12310   0.14569   0.15527   0.16254
 Alpha virt. eigenvalues --    0.18857   0.19937   0.21570   0.22773   0.23745

 Mulliken charges:
               1
     1  C   -0.167693
     2  C   -0.035323
     3  C   -0.029093
     4  C   -0.178405
     5  H    0.085043
     6  H    0.060842
     7  H    0.057120
     8  H    0.052246
     9  H    0.064654
    10  H    0.090608
 Sum of Mulliken charges =   0.00000

 Dipole moment (field-independent basis, Debye):
    X=              0.0464    Y=              0.0227    Z=             -0.0113  Tot=              0.0529
 Quadrupole moment (field-independent basis, Debye-Ang):
   XX=            -23.4747   YY=            -23.1924   ZZ=            -29.2689
   XY=              0.0149   XZ=              0.2946   YZ=             -0.0118

 1\1\GINC-NODE35\SP\RB2PLYPD3-FC\def2QZVP\C4H6\BOITTIER\26-Aug-2020\0\\
 #p B2PLYPD3/Def2QZVP\\butadiene\\0,1\C,0,-3.858796,0.209087,0.020811\C
 ,0,-2.725173,-0.481541,0.038312\C,0,-1.368778,0.073622,0.026091\C,0,-0
 .255795,-0.660486,0.017663\H,0,-4.850351,-0.267583,-0.047571\H,0,-3.85
 4568,1.327501,-0.107702\H,0,-2.73551,-1.561472,0.206031\H,0,-1.234821,
 1.145095,0.056666\H,0,-0.310152,-1.762705,-0.009927\H,0,0.669016,-0.17
 2543,0.037572\\Version=ES64L-G09RevD.01\State=1-A\HF=-155.696225\MP2=-
 155.9220983\RMSD=6.078e-09\PG=C01 [X(C4H6)]\\@

 Normal termination of Gaussian 09 at Wed Aug 26 09:34:29 2020.
