 Gaussian 09, Revision D.01,
 Gaussian 09:  ES64L-G09RevD.01 24-Apr-2013

 --------------------
 #p B2PLYPD3/Def2QZVP
 --------------------

 ---------
 butadiene
 ---------
 Symbolic Z-matrix:
 Charge =  0 Multiplicity = 1

                         Standard orientation:
 ---------------------------------------------------------------------
 Center     Atomic      Atomic             Coordinates (Angstroms)
 Number     Number       Type             X           Y           Z
 ---------------------------------------------------------------------
      1          6           0       -1.849880   -0.108458    0.021328
      2          6           0       -0.621770    0.402035   -0.038484
      3          6           0        0.614402   -0.412389   -0.060412
      4          6           0        1.856243    0.107773    0.041782
      5          1           0       -2.666382    0.542221    0.077233
      6          1           0       -2.054720   -1.180095    0.125473
      7          1           0       -0.519662    1.474392   -0.034796
      8          1           0        0.442486   -1.480993   -0.077626
      9          1           0        2.023296    1.211580    0.020478
     10          1           0        2.781018   -0.500867    0.103955
 ---------------------------------------------------------------------

 SCF Done:  E(RB2PLYPD3) =  -155.696787367     A.U. after   11 cycles
 E2(B2PLYPD3) =    -0.2261263810D+00 E(B2PLYPD3) =    -0.15592291374825D+03

 The electronic state is 1-A.
 Alpha  occ. eigenvalues --  -10.63115 -10.62611 -10.62528 -10.61185  -0.92475
 Alpha  occ. eigenvalues --   -0.84749  -0.69907  -0.64017  -0.54621  -0.53404
 Alpha  occ. eigenvalues --   -0.46944  -0.45418  -0.40883  -0.37724  -0.27778
 Alpha virt. eigenvalues --    0.01709   0.06972   0.07384   0.08097   0.09333
 Alpha virt. eigenvalues --    0.11574   0.12371   0.14541   0.15953   0.16118
 Alpha virt. eigenvalues --    0.18916   0.20505   0.21449   0.22570   0.23825

 Mulliken charges:
               1
     1  C   -0.174220
     2  C   -0.029504
     3  C   -0.043513
     4  C   -0.167632
     5  H    0.085158
     6  H    0.064617
     7  H    0.056313
     8  H    0.060925
     9  H    0.063582
    10  H    0.084276
 Sum of Mulliken charges =   0.00000

 Dipole moment (field-independent basis, Debye):
    X=             -0.0160    Y=              0.0179    Z=              0.1311  Tot=              0.1333
 Quadrupole moment (field-independent basis, Debye-Ang):
   XX=            -23.4087   YY=            -23.1086   ZZ=            -29.3660
   XY=              0.1928   XZ=             -0.1426   YZ=             -0.0961

 1\1\GINC-NODE31\SP\RB2PLYPD3-FC\def2QZVP\C4H6\BOITTIER\26-Aug-2020\0\\
 #p B2PLYPD3/Def2QZVP\\butadiene\\0,1\C,0,-3.852898,0.220802,-0.009619\
 C,0,-2.735804,-0.498917,0.071252\C,0,-1.37377,0.081383,0.069296\C,0,-0
 .245394,-0.655802,-0.011374\H,0,-4.772838,-0.274756,-0.045895\H,0,-3.8
 62955,1.307633,-0.15072\H,0,-2.827279,-1.571731,0.104293\H,0,-1.351605
 ,1.163459,0.049687\H,0,-0.278526,-1.770315,0.047911\H,0,0.773185,-0.22
 4968,-0.091349\\Version=ES64L-G09RevD.01\State=1-A\HF=-155.6967874\MP2
 =-155.9229137\RMSD=6.100e-09\PG=C01 [X(C4H6)]\\@

 Normal termination of Gaussian 09 at Wed Aug 26 08:43:12 2020.
