 Gaussian 09, Revision D.01,
 Gaussian 09:  ES64L-G09RevD.01 24-Apr-2013

 --------------------
 #p B2PLYPD3/Def2QZVP
 --------------------

 ---------
 butadiene
 ---------
 Symbolic Z-matrix:
 Charge =  0 Multiplicity = 1

                         Standard orientation:
 ---------------------------------------------------------------------
 Center     Atomic      Atomic             Coordinates (Angstroms)
 Number     Number       Type             X           Y           Z
 ---------------------------------------------------------------------
      1          6           0       -1.857557    0.105266    0.002284
      2          6           0       -0.609325   -0.392231   -0.010782
      3          6           0        0.615749    0.417445   -0.041005
      4          6           0        1.842646   -0.130823    0.019566
      5          1           0       -2.687045   -0.572553    0.006413
      6          1           0       -2.073217    1.152041    0.137261
      7          1           0       -0.417277   -1.434557   -0.044486
      8          1           0        0.529688    1.519100   -0.021597
      9          1           0        1.992784   -1.235762    0.084423
     10          1           0        2.705990    0.573791    0.017612
 ---------------------------------------------------------------------

 SCF Done:  E(RB2PLYPD3) =  -155.695943939     A.U. after   11 cycles
 E2(B2PLYPD3) =    -0.2264793090D+00 E(B2PLYPD3) =    -0.15592242324769D+03

 The electronic state is 1-A.
 Alpha  occ. eigenvalues --  -10.62896 -10.62564 -10.62402 -10.61481  -0.92582
 Alpha  occ. eigenvalues --   -0.84634  -0.69861  -0.63874  -0.54004  -0.53786
 Alpha  occ. eigenvalues --   -0.46320  -0.45883  -0.41017  -0.37772  -0.27609
 Alpha virt. eigenvalues --    0.01599   0.06938   0.07338   0.07993   0.09358
 Alpha virt. eigenvalues --    0.11709   0.12184   0.14737   0.15699   0.16045
 Alpha virt. eigenvalues --    0.18695   0.20314   0.21361   0.22843   0.23857

 Mulliken charges:
               1
     1  C   -0.176383
     2  C   -0.038568
     3  C   -0.029582
     4  C   -0.177668
     5  H    0.083204
     6  H    0.072388
     7  H    0.060146
     8  H    0.053672
     9  H    0.068819
    10  H    0.083974
 Sum of Mulliken charges =   0.00000

 Dipole moment (field-independent basis, Debye):
    X=              0.0113    Y=              0.0033    Z=              0.1404  Tot=              0.1409
 Quadrupole moment (field-independent basis, Debye-Ang):
   XX=            -23.8638   YY=            -22.8989   ZZ=            -29.4134
   XY=             -0.1679   XZ=             -0.0653   YZ=              0.1151

 1\1\GINC-NODE35\SP\RB2PLYPD3-FC\def2QZVP\C4H6\BOITTIER\26-Aug-2020\0\\
 #p B2PLYPD3/Def2QZVP\\butadiene\\0,1\C,0,-3.860128,0.220779,0.026107\C
 ,0,-2.720959,-0.491998,0.02577\C,0,-1.37101,0.084729,-0.022375\C,0,-0.
 261659,-0.672463,0.052076\H,0,-4.797385,-0.297569,0.045413\H,0,-3.8847
 8,1.292091,0.13633\H,0,-2.718405,-1.552362,0.016668\H,0,-1.258728,1.18
 4174,-0.028864\H,0,-0.3112,-1.784636,0.14294\H,0,0.713704,-0.133761,0.
 034346\\Version=ES64L-G09RevD.01\State=1-A\HF=-155.6959439\MP2=-155.92
 24232\RMSD=4.373e-09\PG=C01 [X(C4H6)]\\@

 Normal termination of Gaussian 09 at Wed Aug 26 10:19:43 2020.
