 Gaussian 09, Revision D.01,
 Gaussian 09:  ES64L-G09RevD.01 24-Apr-2013

 --------------------
 #p B2PLYPD3/Def2QZVP
 --------------------

 ---------
 butadiene
 ---------
 Symbolic Z-matrix:
 Charge =  0 Multiplicity = 1

                         Standard orientation:
 ---------------------------------------------------------------------
 Center     Atomic      Atomic             Coordinates (Angstroms)
 Number     Number       Type             X           Y           Z
 ---------------------------------------------------------------------
      1          6           0       -1.825974    0.094760   -0.001868
      2          6           0       -0.612123   -0.388465   -0.037003
      3          6           0        0.600628    0.437018   -0.033948
      4          6           0        1.815736   -0.134469    0.021426
      5          1           0       -2.687646   -0.564985    0.131672
      6          1           0       -1.952771    1.175261    0.066822
      7          1           0       -0.427030   -1.432182   -0.007963
      8          1           0        0.543208    1.550350    0.031603
      9          1           0        1.949985   -1.242944    0.048820
     10          1           0        2.704652    0.461432    0.037402
 ---------------------------------------------------------------------

 SCF Done:  E(RB2PLYPD3) =  -155.696255847     A.U. after   11 cycles
 E2(B2PLYPD3) =    -0.2256945823D+00 E(B2PLYPD3) =    -0.15592195042909D+03

 The electronic state is 1-A.
 Alpha  occ. eigenvalues --  -10.63018 -10.61885 -10.61819 -10.61107  -0.93104
 Alpha  occ. eigenvalues --   -0.85056  -0.69463  -0.63953  -0.54447  -0.53835
 Alpha  occ. eigenvalues --   -0.46531  -0.45210  -0.41079  -0.38175  -0.27896
 Alpha virt. eigenvalues --    0.02140   0.07054   0.07235   0.08047   0.09417
 Alpha virt. eigenvalues --    0.11759   0.12392   0.14532   0.15768   0.16187
 Alpha virt. eigenvalues --    0.18731   0.20052   0.21613   0.23151   0.23984

 Mulliken charges:
               1
     1  C   -0.168922
     2  C   -0.023918
     3  C   -0.036602
     4  C   -0.176308
     5  H    0.083456
     6  H    0.063418
     7  H    0.058471
     8  H    0.053642
     9  H    0.061692
    10  H    0.085072
 Sum of Mulliken charges =   0.00000

 Dipole moment (field-independent basis, Debye):
    X=              0.0740    Y=             -0.0161    Z=              0.2360  Tot=              0.2479
 Quadrupole moment (field-independent basis, Debye-Ang):
   XX=            -23.8521   YY=            -22.9609   ZZ=            -29.2448
   XY=              0.0150   XZ=             -0.3027   YZ=              0.0052

 1\1\GINC-NODE21\SP\RB2PLYPD3-FC\def2QZVP\C4H6\BOITTIER\26-Aug-2020\0\\
 #p B2PLYPD3/Def2QZVP\\butadiene\\0,1\C,0,-3.829685,0.203222,0.027238\C
 ,0,-2.721672,-0.489612,0.005714\C,0,-1.381177,0.106013,-0.016617\C,0,-
 0.287124,-0.671212,0.054957\H,0,-4.794369,-0.288039,0.180936\H,0,-3.76
 139,1.290548,0.063797\H,0,-2.725466,-1.548307,0.065708\H,0,-1.238782,1
 .213161,0.015781\H,0,-0.352502,-1.784575,0.115267\H,0,0.693875,-0.2432
 39,0.052592\\Version=ES64L-G09RevD.01\State=1-A\HF=-155.6962558\MP2=-1
 55.9219504\RMSD=5.969e-09\PG=C01 [X(C4H6)]\\@

 Normal termination of Gaussian 09 at Wed Aug 26 08:47:36 2020.
