 Gaussian 09, Revision D.01,
 Gaussian 09:  ES64L-G09RevD.01 24-Apr-2013

 --------------------
 #p B2PLYPD3/Def2QZVP
 --------------------

 ---------
 butadiene
 ---------
 Symbolic Z-matrix:
 Charge =  0 Multiplicity = 1

                         Standard orientation:
 ---------------------------------------------------------------------
 Center     Atomic      Atomic             Coordinates (Angstroms)
 Number     Number       Type             X           Y           Z
 ---------------------------------------------------------------------
      1          6           0        1.853024    0.093343    0.057209
      2          6           0        0.586743   -0.387987   -0.099271
      3          6           0       -0.633475    0.451601   -0.059387
      4          6           0       -1.814734   -0.134070    0.034291
      5          1           0        2.730012   -0.519183    0.315326
      6          1           0        1.956026    1.176409    0.006888
      7          1           0        0.445928   -1.478325   -0.268709
      8          1           0       -0.556134    1.587778   -0.066768
      9          1           0       -1.812733   -1.343510    0.220515
     10          1           0       -2.712441    0.439510    0.195696
 ---------------------------------------------------------------------

 SCF Done:  E(RB2PLYPD3) =  -155.676544862     A.U. after   11 cycles
 E2(B2PLYPD3) =    -0.2281571558D+00 E(B2PLYPD3) =    -0.15590470201746D+03

 The electronic state is 1-A.
 Alpha  occ. eigenvalues --  -10.63581 -10.63467 -10.62697 -10.62125  -0.92523
 Alpha  occ. eigenvalues --   -0.84451  -0.68920  -0.62807  -0.54355  -0.52704
 Alpha  occ. eigenvalues --   -0.46319  -0.44281  -0.41179  -0.37381  -0.27553
 Alpha virt. eigenvalues --    0.01681   0.06769   0.07030   0.07734   0.08782
 Alpha virt. eigenvalues --    0.11560   0.12485   0.13800   0.15486   0.16191
 Alpha virt. eigenvalues --    0.18680   0.19677   0.21103   0.22696   0.23531

 Mulliken charges:
               1
     1  C   -0.184696
     2  C   -0.030372
     3  C   -0.039948
     4  C   -0.156625
     5  H    0.091887
     6  H    0.064835
     7  H    0.062762
     8  H    0.053605
     9  H    0.049884
    10  H    0.088667
 Sum of Mulliken charges =   0.00000

 Dipole moment (field-independent basis, Debye):
    X=             -0.0240    Y=              0.1074    Z=              0.2654  Tot=              0.2874
 Quadrupole moment (field-independent basis, Debye-Ang):
   XX=            -24.1508   YY=            -23.1598   ZZ=            -29.4023
   XY=             -0.4281   XZ=             -0.0407   YZ=             -0.1437

 1\1\GINC-NODE23\SP\RB2PLYPD3-FC\def2QZVP\C4H6\BOITTIER\26-Aug-2020\0\\
 #p B2PLYPD3/Def2QZVP\\butadiene\\0,1\C,0,-3.862682,0.196041,-0.043112\
 C,0,-2.699218,-0.496155,0.120745\C,0,-1.351694,0.11812,0.073031\C,0,-0
 .290225,-0.664939,-0.012183\H,0,-4.832904,-0.257723,-0.295477\H,0,-3.7
 75892,1.281037,-0.005369\H,0,-2.749916,-1.592343,0.302886\H,0,-1.23042
 8,1.250461,0.067264\H,0,-0.502455,-1.857703,-0.184524\H,0,0.693405,-0.
 257972,-0.178834\\Version=ES64L-G09RevD.01\State=1-A\HF=-155.6765449\M
 P2=-155.904702\RMSD=8.990e-09\PG=C01 [X(C4H6)]\\@

 Normal termination of Gaussian 09 at Wed Aug 26 12:03:48 2020.
