 Gaussian 09, Revision D.01,
 Gaussian 09:  ES64L-G09RevD.01 24-Apr-2013

 --------------------
 #p B2PLYPD3/Def2QZVP
 --------------------

 ---------
 butadiene
 ---------
 Symbolic Z-matrix:
 Charge =  0 Multiplicity = 1

                         Standard orientation:
 ---------------------------------------------------------------------
 Center     Atomic      Atomic             Coordinates (Angstroms)
 Number     Number       Type             X           Y           Z
 ---------------------------------------------------------------------
      1          6           0        1.791374   -0.121116    0.063109
      2          6           0        0.589907    0.416892   -0.088951
      3          6           0       -0.591340   -0.357082   -0.080570
      4          6           0       -1.810342    0.101512    0.034577
      5          1           0        2.838237    0.371352    0.260220
      6          1           0        1.800621   -1.155486   -0.013123
      7          1           0        0.535951    1.494795   -0.122391
      8          1           0       -0.425506   -1.462982   -0.097712
      9          1           0       -2.054869    1.120344    0.143981
     10          1           0       -2.572031   -0.609259    0.260034
 ---------------------------------------------------------------------

 SCF Done:  E(RB2PLYPD3) =  -155.684157492     A.U. after   11 cycles
 E2(B2PLYPD3) =    -0.2256458402D+00 E(B2PLYPD3) =    -0.15590980333226D+03

 The electronic state is 1-A.
 Alpha  occ. eigenvalues --  -10.62212 -10.61979 -10.61749 -10.60445  -0.94229
 Alpha  occ. eigenvalues --   -0.85525  -0.70181  -0.64329  -0.54764  -0.54385
 Alpha  occ. eigenvalues --   -0.46552  -0.44961  -0.41407  -0.38606  -0.27720
 Alpha virt. eigenvalues --    0.01886   0.06968   0.07455   0.07873   0.09839
 Alpha virt. eigenvalues --    0.11563   0.12756   0.14727   0.15822   0.16372
 Alpha virt. eigenvalues --    0.18661   0.20227   0.21751   0.22363   0.24369

 Mulliken charges:
               1
     1  C   -0.169408
     2  C   -0.026832
     3  C   -0.018165
     4  C   -0.172516
     5  H    0.081943
     6  H    0.058277
     7  H    0.056020
     8  H    0.043929
     9  H    0.069001
    10  H    0.077751
 Sum of Mulliken charges =   0.00000

 Dipole moment (field-independent basis, Debye):
    X=              0.0934    Y=              0.0047    Z=              0.2764  Tot=              0.2918
 Quadrupole moment (field-independent basis, Debye-Ang):
   XX=            -23.6508   YY=            -23.3563   ZZ=            -28.8856
   XY=             -0.1219   XZ=             -0.2818   YZ=              0.0867

 1\1\GINC-NODE09\SP\RB2PLYPD3-FC\def2QZVP\C4H6\BOITTIER\26-Aug-2020\0\\
 #p B2PLYPD3/Def2QZVP\\butadiene\\0,1\C,0,-3.793881,0.232953,0.085393\C
 ,0,-2.70921,-0.516421,-0.048863\C,0,-1.407735,0.031835,-0.054275\C,0,-
 0.291399,-0.636114,0.076763\H,0,-4.91233,-0.05773,0.290028\H,0,-3.6164
 39,1.24987,-0.015663\H,0,-2.850566,-1.586873,-0.056221\H,0,-1.37139,1.
 148761,-0.098608\H,0,-0.234605,-1.679371,0.21156\H,0,0.586076,-0.06907
 2,0.288183\\Version=ES64L-G09RevD.01\State=1-A\HF=-155.6841575\MP2=-15
 5.9098033\RMSD=5.967e-09\PG=C01 [X(C4H6)]\\@

 Normal termination of Gaussian 09 at Wed Aug 26 12:10:00 2020.
