 Gaussian 09, Revision D.01,
 Gaussian 09:  ES64L-G09RevD.01 24-Apr-2013

 --------------------
 #p B2PLYPD3/Def2QZVP
 --------------------

 ---------
 butadiene
 ---------
 Symbolic Z-matrix:
 Charge =  0 Multiplicity = 1

                         Standard orientation:
 ---------------------------------------------------------------------
 Center     Atomic      Atomic             Coordinates (Angstroms)
 Number     Number       Type             X           Y           Z
 ---------------------------------------------------------------------
      1          6           0        1.874784   -0.121227    0.030465
      2          6           0        0.617835    0.390052   -0.084604
      3          6           0       -0.643023   -0.398307   -0.055268
      4          6           0       -1.856144    0.154974    0.059125
      5          1           0        2.747403    0.469444    0.340208
      6          1           0        1.909810   -1.183516    0.053024
      7          1           0        0.575591    1.537137   -0.203581
      8          1           0       -0.552397   -1.460205   -0.135598
      9          1           0       -2.035221    1.135212    0.118852
     10          1           0       -2.605899   -0.651021    0.128791
 ---------------------------------------------------------------------

 SCF Done:  E(RB2PLYPD3) =  -155.679097962     A.U. after   11 cycles
 E2(B2PLYPD3) =    -0.2270141465D+00 E(B2PLYPD3) =    -0.15590611210882D+03

 The electronic state is 1-A.
 Alpha  occ. eigenvalues --  -10.63770 -10.62968 -10.61748 -10.61082  -0.92360
 Alpha  occ. eigenvalues --   -0.85059  -0.69952  -0.64057  -0.55124  -0.53282
 Alpha  occ. eigenvalues --   -0.47834  -0.44477  -0.41364  -0.37016  -0.27614
 Alpha virt. eigenvalues --    0.01420   0.06905   0.07380   0.07893   0.09179
 Alpha virt. eigenvalues --    0.11675   0.12296   0.14555   0.15632   0.15942
 Alpha virt. eigenvalues --    0.18733   0.20006   0.21236   0.22822   0.23650

 Mulliken charges:
               1
     1  C   -0.176380
     2  C   -0.034410
     3  C   -0.038298
     4  C   -0.177361
     5  H    0.091066
     6  H    0.059084
     7  H    0.048655
     8  H    0.058862
     9  H    0.089362
    10  H    0.079420
 Sum of Mulliken charges =   0.00000

 Dipole moment (field-independent basis, Debye):
    X=             -0.0881    Y=             -0.0284    Z=              0.2116  Tot=              0.2310
 Quadrupole moment (field-independent basis, Debye-Ang):
   XX=            -24.2062   YY=            -22.9361   ZZ=            -29.2482
   XY=              0.1277   XZ=              0.5462   YZ=              0.1579

 1\1\GINC-NODE20\SP\RB2PLYPD3-FC\def2QZVP\C4H6\BOITTIER\26-Aug-2020\0\\
 #p B2PLYPD3/Def2QZVP\\butadiene\\0,1\C,0,-3.880963,0.220362,0.061032\C
 ,0,-2.727521,-0.496296,-0.041638\C,0,-1.352858,0.071533,-0.039039\C,0,
 -0.24793,-0.672513,0.089016\H,0,-4.837409,-0.207386,0.390484\H,0,-3.73
 8534,1.273842,0.051739\H,0,-2.877656,-1.637372,-0.126187\H,0,-1.266076
 ,1.130882,-0.151029\H,0,-0.234058,-1.666715,0.177746\H,0,0.626004,-0.0
 00984,0.132625\\Version=ES64L-G09RevD.01\State=1-A\HF=-155.679098\MP2=
 -155.9061121\RMSD=7.684e-09\PG=C01 [X(C4H6)]\\@

 Normal termination of Gaussian 09 at Wed Aug 26 11:59:43 2020.
