 Gaussian 09, Revision D.01,
 Gaussian 09:  ES64L-G09RevD.01 24-Apr-2013

 --------------------
 #p B2PLYPD3/Def2QZVP
 --------------------

 ---------
 butadiene
 ---------
 Symbolic Z-matrix:
 Charge =  0 Multiplicity = 1

                         Standard orientation:
 ---------------------------------------------------------------------
 Center     Atomic      Atomic             Coordinates (Angstroms)
 Number     Number       Type             X           Y           Z
 ---------------------------------------------------------------------
      1          6           0       -1.816371   -0.138136    0.020163
      2          6           0       -0.598044    0.431885   -0.062707
      3          6           0        0.591790   -0.374855   -0.028287
      4          6           0        1.826174    0.081052    0.042838
      5          1           0       -2.700521    0.560469    0.097933
      6          1           0       -1.978669   -1.219125    0.055320
      7          1           0       -0.410260    1.494711    0.037216
      8          1           0        0.395247   -1.411208   -0.034662
      9          1           0        1.994639    1.143563    0.005646
     10          1           0        2.678272   -0.568086    0.006508
 ---------------------------------------------------------------------

 SCF Done:  E(RB2PLYPD3) =  -155.694843374     A.U. after   11 cycles
 E2(B2PLYPD3) =    -0.2259417843D+00 E(B2PLYPD3) =    -0.15592078515848D+03

 The electronic state is 1-A.
 Alpha  occ. eigenvalues --  -10.62595 -10.62477 -10.61498 -10.60866  -0.93502
 Alpha  occ. eigenvalues --   -0.84777  -0.70069  -0.64506  -0.54478  -0.53746
 Alpha  occ. eigenvalues --   -0.47058  -0.45425  -0.40946  -0.38365  -0.27603
 Alpha virt. eigenvalues --    0.01690   0.06990   0.07348   0.08128   0.09536
 Alpha virt. eigenvalues --    0.11867   0.12313   0.14868   0.15571   0.16013
 Alpha virt. eigenvalues --    0.18591   0.20117   0.21660   0.23276   0.23938

 Mulliken charges:
               1
     1  C   -0.178021
     2  C   -0.036673
     3  C   -0.014061
     4  C   -0.181722
     5  H    0.078937
     6  H    0.076354
     7  H    0.059019
     8  H    0.051189
     9  H    0.058938
    10  H    0.086041
 Sum of Mulliken charges =   0.00000

 Dipole moment (field-independent basis, Debye):
    X=             -0.0353    Y=             -0.0324    Z=              0.0827  Tot=              0.0956
 Quadrupole moment (field-independent basis, Debye-Ang):
   XX=            -23.9085   YY=            -23.0128   ZZ=            -29.2213
   XY=              0.3037   XZ=             -0.4464   YZ=              0.0923

 1\1\GINC-NODE22\SP\RB2PLYPD3-FC\def2QZVP\C4H6\BOITTIER\26-Aug-2020\0\\
 #p B2PLYPD3/Def2QZVP\\butadiene\\0,1\C,0,-3.811241,0.257121,-0.01168\C
 ,0,-2.720098,-0.526895,0.092412\C,0,-1.401054,0.043562,0.043208\C,0,-0
 .272879,-0.635446,-0.009532\H,0,-4.809796,-0.266893,-0.075843\H,0,-3.7
 69808,1.34812,-0.075862\H,0,-2.733072,-1.608381,0.021222\H,0,-1.401577
 ,1.098184,0.021527\H,0,-0.304819,-1.709386,0.056235\H,0,0.685001,-0.15
 5168,0.014327\\Version=ES64L-G09RevD.01\State=1-A\HF=-155.6948434\MP2=
 -155.9207852\RMSD=7.535e-09\PG=C01 [X(C4H6)]\\@

 Normal termination of Gaussian 09 at Wed Aug 26 09:20:48 2020.
