 Gaussian 09, Revision D.01,
 Gaussian 09:  ES64L-G09RevD.01 24-Apr-2013

 --------------------
 #p B2PLYPD3/Def2QZVP
 --------------------

 ---------
 butadiene
 ---------
 Symbolic Z-matrix:
 Charge =  0 Multiplicity = 1

                         Standard orientation:
 ---------------------------------------------------------------------
 Center     Atomic      Atomic             Coordinates (Angstroms)
 Number     Number       Type             X           Y           Z
 ---------------------------------------------------------------------
      1          6           0       -1.835530    0.119422    0.012090
      2          6           0       -0.615564   -0.405970   -0.029095
      3          6           0        0.601564    0.382318   -0.005586
      4          6           0        1.839911   -0.108452    0.020340
      5          1           0       -2.725092   -0.510781    0.069846
      6          1           0       -1.993173    1.190196    0.003734
      7          1           0       -0.480510   -1.475081   -0.012315
      8          1           0        0.515390    1.457969   -0.058273
      9          1           0        2.047807   -1.134152   -0.023054
     10          1           0        2.693294    0.547948    0.033572
 ---------------------------------------------------------------------

 SCF Done:  E(RB2PLYPD3) =  -155.700409799     A.U. after   11 cycles
 E2(B2PLYPD3) =    -0.2252175551D+00 E(B2PLYPD3) =    -0.15592562735428D+03

 The electronic state is 1-A.
 Alpha  occ. eigenvalues --  -10.62395 -10.62268 -10.61597 -10.60920  -0.93118
 Alpha  occ. eigenvalues --   -0.85151  -0.70323  -0.64348  -0.54606  -0.54345
 Alpha  occ. eigenvalues --   -0.46764  -0.45747  -0.41180  -0.38160  -0.27752
 Alpha virt. eigenvalues --    0.01796   0.06990   0.07540   0.08042   0.09715
 Alpha virt. eigenvalues --    0.11694   0.12463   0.14835   0.15794   0.16258
 Alpha virt. eigenvalues --    0.18818   0.20462   0.21719   0.22786   0.23956

 Mulliken charges:
               1
     1  C   -0.170760
     2  C   -0.037851
     3  C   -0.023639
     4  C   -0.179465
     5  H    0.084000
     6  H    0.068040
     7  H    0.057868
     8  H    0.053456
     9  H    0.066340
    10  H    0.082011
 Sum of Mulliken charges =   0.00000

 Dipole moment (field-independent basis, Debye):
    X=             -0.0136    Y=             -0.0130    Z=             -0.0157  Tot=              0.0245
 Quadrupole moment (field-independent basis, Debye-Ang):
   XX=            -23.3994   YY=            -23.1006   ZZ=            -29.1749
   XY=             -0.1569   XZ=             -0.2203   YZ=             -0.0576

 1\1\GINC-NODE28\SP\RB2PLYPD3-FC\def2QZVP\C4H6\BOITTIER\26-Aug-2020\0\\
 #p B2PLYPD3/Def2QZVP\\butadiene\\0,1\C,0,-3.835392,0.231189,0.032705\C
 ,0,-2.728837,-0.504365,0.009289\C,0,-1.390602,0.054625,0.006597\C,0,-0
 .259401,-0.647948,0.049099\H,0,-4.822666,-0.228062,0.111377\H,0,-3.799
 746,1.312048,-0.011479\H,0,-2.786365,-1.579283,0.061834\H,0,-1.284021,
 1.126077,-0.082046\H,0,-0.237868,-1.695143,0.040062\H,0,0.697356,-0.15
 4145,0.040494\\Version=ES64L-G09RevD.01\State=1-A\HF=-155.7004098\MP2=
 -155.9256274\RMSD=2.754e-09\PG=C01 [X(C4H6)]\\@

 Normal termination of Gaussian 09 at Wed Aug 26 21:44:45 2020.
