 Gaussian 09, Revision D.01,
 Gaussian 09:  ES64L-G09RevD.01 24-Apr-2013

 --------------------
 #p B2PLYPD3/Def2QZVP
 --------------------

 ---------
 butadiene
 ---------
 Symbolic Z-matrix:
 Charge =  0 Multiplicity = 1

                         Standard orientation:
 ---------------------------------------------------------------------
 Center     Atomic      Atomic             Coordinates (Angstroms)
 Number     Number       Type             X           Y           Z
 ---------------------------------------------------------------------
      1          6           0        1.830435    0.108921   -0.026373
      2          6           0        0.592115   -0.436347    0.001223
      3          6           0       -0.585553    0.382346    0.036638
      4          6           0       -1.837958   -0.082847   -0.007863
      5          1           0        2.810709   -0.429276    0.002970
      6          1           0        1.955374    1.215438   -0.069830
      7          1           0        0.410800   -1.493146    0.146581
      8          1           0       -0.455037    1.501126    0.090501
      9          1           0       -2.025174   -1.165689   -0.120326
     10          1           0       -2.690910    0.539105   -0.071644
 ---------------------------------------------------------------------

 SCF Done:  E(RB2PLYPD3) =  -155.693547114     A.U. after   11 cycles
 E2(B2PLYPD3) =    -0.2269920079D+00 E(B2PLYPD3) =    -0.15592053912217D+03

 The electronic state is 1-A.
 Alpha  occ. eigenvalues --  -10.62998 -10.62821 -10.62751 -10.61422  -0.93113
 Alpha  occ. eigenvalues --   -0.84388  -0.70195  -0.63672  -0.54908  -0.53117
 Alpha  occ. eigenvalues --   -0.47083  -0.44369  -0.41175  -0.38151  -0.27436
 Alpha virt. eigenvalues --    0.01342   0.07016   0.07250   0.07953   0.09372
 Alpha virt. eigenvalues --    0.11531   0.12571   0.14444   0.15651   0.16336
 Alpha virt. eigenvalues --    0.18739   0.20245   0.21745   0.22456   0.23665

 Mulliken charges:
               1
     1  C   -0.166106
     2  C   -0.038409
     3  C   -0.016710
     4  C   -0.176639
     5  H    0.082442
     6  H    0.060007
     7  H    0.064507
     8  H    0.046973
     9  H    0.055235
    10  H    0.088700
 Sum of Mulliken charges =   0.00000

 Dipole moment (field-independent basis, Debye):
    X=              0.0440    Y=              0.0181    Z=              0.0024  Tot=              0.0477
 Quadrupole moment (field-independent basis, Debye-Ang):
   XX=            -23.2811   YY=            -23.3632   ZZ=            -29.3732
   XY=              0.2198   XZ=              0.3973   YZ=             -0.0894

 1\1\GINC-NODE25\SP\RB2PLYPD3-FC\def2QZVP\C4H6\BOITTIER\26-Aug-2020\0\\
 #p B2PLYPD3/Def2QZVP\\butadiene\\0,1\C,0,-3.829733,0.235587,0.03935\C,
 0,-2.714413,-0.530891,0.029991\C,0,-1.405002,0.05355,-0.017827\C,0,-0.
 261,-0.635247,0.043181\H,0,-4.89298,-0.111497,0.017159\H,0,-3.746725,1
 .346737,0.057565\H,0,-2.73271,-1.606006,-0.090926\H,0,-1.325124,1.1755
 67,-0.097207\H,0,-0.278524,-1.73117,0.180626\H,0,0.6927,-0.181434,0.09
 731\\Version=ES64L-G09RevD.01\State=1-A\HF=-155.6935471\MP2=-155.92053
 91\RMSD=7.229e-09\PG=C01 [X(C4H6)]\\@

 Normal termination of Gaussian 09 at Wed Aug 26 09:17:08 2020.
