 Gaussian 09, Revision D.01,
 Gaussian 09:  ES64L-G09RevD.01 24-Apr-2013

 --------------------
 #p B2PLYPD3/Def2QZVP
 --------------------

 ---------
 butadiene
 ---------
 Symbolic Z-matrix:
 Charge =  0 Multiplicity = 1

                         Standard orientation:
 ---------------------------------------------------------------------
 Center     Atomic      Atomic             Coordinates (Angstroms)
 Number     Number       Type             X           Y           Z
 ---------------------------------------------------------------------
      1          6           0        1.838718    0.114383    0.009498
      2          6           0        0.595492   -0.401109   -0.010878
      3          6           0       -0.603538    0.424665   -0.058430
      4          6           0       -1.824589   -0.116896    0.028382
      5          1           0        2.717597   -0.570196    0.095819
      6          1           0        2.019684    1.167548    0.067480
      7          1           0        0.482605   -1.456377   -0.086835
      8          1           0       -0.546533    1.531074   -0.014236
      9          1           0       -1.909361   -1.206550    0.027438
     10          1           0       -2.800488    0.408250    0.098899
 ---------------------------------------------------------------------

 SCF Done:  E(RB2PLYPD3) =  -155.695221778     A.U. after   11 cycles
 E2(B2PLYPD3) =    -0.2265710234D+00 E(B2PLYPD3) =    -0.15592179280110D+03

 The electronic state is 1-A.
 Alpha  occ. eigenvalues --  -10.62965 -10.62662 -10.61961 -10.61814  -0.92907
 Alpha  occ. eigenvalues --   -0.84582  -0.69526  -0.64303  -0.54048  -0.54022
 Alpha  occ. eigenvalues --   -0.46324  -0.44906  -0.41364  -0.38071  -0.27534
 Alpha virt. eigenvalues --    0.01692   0.06996   0.07409   0.07885   0.09224
 Alpha virt. eigenvalues --    0.11576   0.12532   0.14403   0.15601   0.16547
 Alpha virt. eigenvalues --    0.18759   0.19928   0.21944   0.22689   0.23823

 Mulliken charges:
               1
     1  C   -0.175260
     2  C   -0.037389
     3  C   -0.031075
     4  C   -0.165560
     5  H    0.077898
     6  H    0.071952
     7  H    0.065619
     8  H    0.057121
     9  H    0.054010
    10  H    0.082684
 Sum of Mulliken charges =   0.00000

 Dipole moment (field-independent basis, Debye):
    X=             -0.0722    Y=             -0.0079    Z=              0.1251  Tot=              0.1447
 Quadrupole moment (field-independent basis, Debye-Ang):
   XX=            -23.5328   YY=            -23.1133   ZZ=            -29.3739
   XY=              0.0308   XZ=             -0.0074   YZ=              0.1567

 1\1\GINC-NODE24\SP\RB2PLYPD3-FC\def2QZVP\C4H6\BOITTIER\26-Aug-2020\0\\
 #p B2PLYPD3/Def2QZVP\\butadiene\\0,1\C,0,-3.841561,0.219129,0.003948\C
 ,0,-2.708608,-0.506412,0.045955\C,0,-1.382578,0.096166,0.065448\C,0,-0
 .276526,-0.655047,0.001257\H,0,-4.82774,-0.302443,-0.058839\H,0,-3.834
 282,1.284848,-0.093301\H,0,-2.783189,-1.561534,0.161103\H,0,-1.243832,
 1.192906,-0.019733\H,0,-0.38518,-1.741791,0.042656\H,0,0.776343,-0.313
 172,-0.08659\\Version=ES64L-G09RevD.01\State=1-A\HF=-155.6952218\MP2=-
 155.9217928\RMSD=5.749e-09\PG=C01 [X(C4H6)]\\@

 Normal termination of Gaussian 09 at Wed Aug 26 11:02:32 2020.
