 Gaussian 09, Revision D.01,
 Gaussian 09:  ES64L-G09RevD.01 24-Apr-2013

 --------------------
 #p B2PLYPD3/Def2QZVP
 --------------------

 ---------
 butadiene
 ---------
 Symbolic Z-matrix:
 Charge =  0 Multiplicity = 1

                         Standard orientation:
 ---------------------------------------------------------------------
 Center     Atomic      Atomic             Coordinates (Angstroms)
 Number     Number       Type             X           Y           Z
 ---------------------------------------------------------------------
      1          6           0       -1.820831    0.113032    0.013915
      2          6           0       -0.596235   -0.410254   -0.011257
      3          6           0        0.591961    0.379838   -0.020351
      4          6           0        1.830469   -0.092856    0.032399
      5          1           0       -2.706999   -0.516850   -0.081162
      6          1           0       -1.971787    1.222696    0.114086
      7          1           0       -0.523345   -1.483557    0.013654
      8          1           0        0.386586    1.460010   -0.086239
      9          1           0        2.034983   -1.142785   -0.010431
     10          1           0        2.748373    0.521926   -0.038147
 ---------------------------------------------------------------------

 SCF Done:  E(RB2PLYPD3) =  -155.696331356     A.U. after   11 cycles
 E2(B2PLYPD3) =    -0.2260107452D+00 E(B2PLYPD3) =    -0.15592234210158D+03

 The electronic state is 1-A.
 Alpha  occ. eigenvalues --  -10.62486 -10.62151 -10.61990 -10.61558  -0.93526
 Alpha  occ. eigenvalues --   -0.84881  -0.70171  -0.63960  -0.54942  -0.53484
 Alpha  occ. eigenvalues --   -0.46829  -0.44972  -0.40982  -0.38472  -0.27648
 Alpha virt. eigenvalues --    0.01582   0.06985   0.07349   0.07976   0.09737
 Alpha virt. eigenvalues --    0.11684   0.12475   0.14617   0.15752   0.16229
 Alpha virt. eigenvalues --    0.18835   0.20343   0.21727   0.22483   0.23609

 Mulliken charges:
               1
     1  C   -0.175305
     2  C   -0.025521
     3  C   -0.026224
     4  C   -0.169036
     5  H    0.085728
     6  H    0.060242
     7  H    0.055684
     8  H    0.051229
     9  H    0.063614
    10  H    0.079589
 Sum of Mulliken charges =   0.00000

 Dipole moment (field-independent basis, Debye):
    X=             -0.0280    Y=             -0.0700    Z=             -0.1017  Tot=              0.1266
 Quadrupole moment (field-independent basis, Debye-Ang):
   XX=            -23.4176   YY=            -23.2884   ZZ=            -29.2176
   XY=             -0.1752   XZ=             -0.1616   YZ=              0.0712

 1\1\GINC-NODE25\SP\RB2PLYPD3-FC\def2QZVP\C4H6\BOITTIER\26-Aug-2020\0\\
 #p B2PLYPD3/Def2QZVP\\butadiene\\0,1\C,0,-3.821416,0.231603,0.033146\C
 ,0,-2.713762,-0.508038,0.021734\C,0,-1.400808,0.050046,-0.007081\C,0,-
 0.269856,-0.640476,0.058119\H,0,-4.808527,-0.2271,-0.046155\H,0,-3.765
 743,1.352281,0.10496\H,0,-2.83896,-1.575515,0.074008\H,0,-1.404762,1.1
 47563,-0.10054\H,0,-0.261671,-1.710844,0.042124\H,0,0.744961,-0.206595
 ,-0.027754\\Version=ES64L-G09RevD.01\State=1-A\HF=-155.6963314\MP2=-15
 5.9223421\RMSD=4.463e-09\PG=C01 [X(C4H6)]\\@

 Normal termination of Gaussian 09 at Wed Aug 26 09:03:11 2020.
