 Gaussian 09, Revision D.01,
 Gaussian 09:  ES64L-G09RevD.01 24-Apr-2013

 --------------------
 #p B2PLYPD3/Def2QZVP
 --------------------

 ---------
 butadiene
 ---------
 Symbolic Z-matrix:
 Charge =  0 Multiplicity = 1

                         Standard orientation:
 ---------------------------------------------------------------------
 Center     Atomic      Atomic             Coordinates (Angstroms)
 Number     Number       Type             X           Y           Z
 ---------------------------------------------------------------------
      1          6           0       -1.829313    0.147500    0.016542
      2          6           0       -0.618428   -0.485651   -0.065268
      3          6           0        0.586792    0.407512   -0.077708
      4          6           0        1.848048   -0.098215    0.067901
      5          1           0       -2.794563   -0.497843    0.379756
      6          1           0       -1.873480    1.259962    0.010256
      7          1           0       -0.405016   -1.494838   -0.154818
      8          1           0        0.432257    1.495782   -0.077890
      9          1           0        2.028573   -1.172595    0.015135
     10          1           0        2.689635    0.582659    0.178756
 ---------------------------------------------------------------------

 SCF Done:  E(RB2PLYPD3) =  -155.674566292     A.U. after   11 cycles
 E2(B2PLYPD3) =    -0.2288410637D+00 E(B2PLYPD3) =    -0.15590340735529D+03

 The electronic state is 1-A.
 Alpha  occ. eigenvalues --  -10.63891 -10.63412 -10.63358 -10.61938  -0.92096
 Alpha  occ. eigenvalues --   -0.83626  -0.68752  -0.64847  -0.53267  -0.52625
 Alpha  occ. eigenvalues --   -0.47341  -0.44826  -0.40980  -0.36949  -0.27130
 Alpha virt. eigenvalues --    0.01393   0.06762   0.07211   0.07766   0.08322
 Alpha virt. eigenvalues --    0.11642   0.12251   0.14237   0.15223   0.16185
 Alpha virt. eigenvalues --    0.18552   0.19795   0.21368   0.23110   0.24245

 Mulliken charges:
               1
     1  C   -0.160975
     2  C   -0.049396
     3  C   -0.032672
     4  C   -0.187794
     5  H    0.070109
     6  H    0.072661
     7  H    0.079847
     8  H    0.057637
     9  H    0.066267
    10  H    0.084316
 Sum of Mulliken charges =   0.00000

 Dipole moment (field-independent basis, Debye):
    X=              0.0699    Y=             -0.0079    Z=              0.1971  Tot=              0.2093
 Quadrupole moment (field-independent basis, Debye-Ang):
   XX=            -24.7518   YY=            -22.7444   ZZ=            -29.5789
   XY=             -0.3130   XZ=             -0.5380   YZ=              0.0242

 1\1\GINC-NODE10\SP\RB2PLYPD3-FC\def2QZVP\C4H6\BOITTIER\26-Aug-2020\0\\
 #p B2PLYPD3/Def2QZVP\\butadiene\\0,1\C,0,-3.822139,0.263213,0.050916\C
 ,0,-2.745926,-0.579416,-0.023628\C,0,-1.399422,0.081156,-0.05563\C,0,-
 0.249234,-0.641453,0.094807\H,0,-4.885679,-0.191105,0.42851\H,0,-3.664
 876,1.365107,0.025215\H,0,-2.718695,-1.611902,-0.096106\H,0,-1.35504,1
 .179286,-0.074449\H,0,-0.265882,-1.7315,0.060359\H,0,0.702085,-0.12194
 4,0.190978\\Version=ES64L-G09RevD.01\State=1-A\HF=-155.6745663\MP2=-15
 5.9034074\RMSD=8.945e-09\PG=C01 [X(C4H6)]\\@

 Normal termination of Gaussian 09 at Wed Aug 26 13:39:26 2020.
