 Gaussian 09, Revision D.01,
 Gaussian 09:  ES64L-G09RevD.01 24-Apr-2013

 --------------------
 #p B2PLYPD3/Def2QZVP
 --------------------

 ---------
 butadiene
 ---------
 Symbolic Z-matrix:
 Charge =  0 Multiplicity = 1

                         Standard orientation:
 ---------------------------------------------------------------------
 Center     Atomic      Atomic             Coordinates (Angstroms)
 Number     Number       Type             X           Y           Z
 ---------------------------------------------------------------------
      1          6           0       -1.842445    0.108787    0.006217
      2          6           0       -0.598072   -0.414371   -0.020427
      3          6           0        0.604813    0.410268   -0.023095
      4          6           0        1.835783   -0.113307    0.024823
      5          1           0       -2.741166   -0.508520    0.070681
      6          1           0       -2.010527    1.191194   -0.009300
      7          1           0       -0.443274   -1.492479   -0.000970
      8          1           0        0.479698    1.511225    0.031305
      9          1           0        1.989894   -1.169652   -0.015325
     10          1           0        2.724903    0.519968   -0.001499
 ---------------------------------------------------------------------

 SCF Done:  E(RB2PLYPD3) =  -155.699145606     A.U. after   11 cycles
 E2(B2PLYPD3) =    -0.2264243912D+00 E(B2PLYPD3) =    -0.15592556999755D+03

 The electronic state is 1-A.
 Alpha  occ. eigenvalues --  -10.62970 -10.62877 -10.62016 -10.61493  -0.92743
 Alpha  occ. eigenvalues --   -0.84545  -0.69927  -0.63957  -0.54319  -0.53727
 Alpha  occ. eigenvalues --   -0.46420  -0.45476  -0.41235  -0.37984  -0.27515
 Alpha virt. eigenvalues --    0.01604   0.07010   0.07311   0.08011   0.09310
 Alpha virt. eigenvalues --    0.11660   0.12456   0.14620   0.15793   0.16183
 Alpha virt. eigenvalues --    0.18761   0.20223   0.21773   0.23119   0.23585

 Mulliken charges:
               1
     1  C   -0.173813
     2  C   -0.037305
     3  C   -0.025540
     4  C   -0.175529
     5  H    0.084642
     6  H    0.065543
     7  H    0.057692
     8  H    0.054883
     9  H    0.066060
    10  H    0.083367
 Sum of Mulliken charges =   0.00000

 Dipole moment (field-independent basis, Debye):
    X=              0.0066    Y=             -0.0110    Z=              0.0336  Tot=              0.0360
 Quadrupole moment (field-independent basis, Debye-Ang):
   XX=            -23.5251   YY=            -23.0653   ZZ=            -29.4036
   XY=             -0.2219   XZ=             -0.2270   YZ=              0.0047

 1\1\GINC-NODE01\SP\RB2PLYPD3-FC\def2QZVP\C4H6\BOITTIER\26-Aug-2020\0\\
 #p B2PLYPD3/Def2QZVP\\butadiene\\0,1\C,0,-3.844261,0.22639,0.029563\C,
 0,-2.715189,-0.513819,0.017093\C,0,-1.383011,0.07918,-0.007904\C,0,-0.
 266832,-0.657029,0.054173\H,0,-4.839489,-0.216166,0.110719\H,0,-3.8138
 57,1.32054,-0.015258\H,0,-2.75786,-1.601234,0.065736\H,0,-1.306652,1.1
 85654,0.016664\H,0,-0.306534,-1.724511,0.042643\H,0,0.72203,-0.196021,
 0.010712\\Version=ES64L-G09RevD.01\State=1-A\HF=-155.6991456\MP2=-155.
 92557\RMSD=3.925e-09\PG=C01 [X(C4H6)]\\@

 Normal termination of Gaussian 09 at Wed Aug 26 10:42:00 2020.
