 Gaussian 09, Revision D.01,
 Gaussian 09:  ES64L-G09RevD.01 24-Apr-2013

 --------------------
 #p B2PLYPD3/Def2QZVP
 --------------------

 ---------
 butadiene
 ---------
 Symbolic Z-matrix:
 Charge =  0 Multiplicity = 1

                         Standard orientation:
 ---------------------------------------------------------------------
 Center     Atomic      Atomic             Coordinates (Angstroms)
 Number     Number       Type             X           Y           Z
 ---------------------------------------------------------------------
      1          6           0       -1.839427    0.103677   -0.012530
      2          6           0       -0.596115   -0.394942    0.036828
      3          6           0        0.606098    0.408826    0.016404
      4          6           0        1.827635   -0.116654   -0.026169
      5          1           0       -2.681159   -0.535762   -0.048645
      6          1           0       -2.029377    1.173409   -0.035286
      7          1           0       -0.441576   -1.464411   -0.023814
      8          1           0        0.500600    1.482719    0.019214
      9          1           0        1.974516   -1.202493    0.007014
     10          1           0        2.687853    0.541095   -0.005680
 ---------------------------------------------------------------------

 SCF Done:  E(RB2PLYPD3) =  -155.700377588     A.U. after   11 cycles
 E2(B2PLYPD3) =    -0.2256605985D+00 E(B2PLYPD3) =    -0.15592603818631D+03

 The electronic state is 1-A.
 Alpha  occ. eigenvalues --  -10.62453 -10.62215 -10.61531 -10.61343  -0.93132
 Alpha  occ. eigenvalues --   -0.84930  -0.70201  -0.64109  -0.54616  -0.54041
 Alpha  occ. eigenvalues --   -0.46495  -0.45740  -0.41353  -0.38190  -0.27607
 Alpha virt. eigenvalues --    0.01732   0.07041   0.07393   0.08092   0.09590
 Alpha virt. eigenvalues --    0.11746   0.12388   0.14784   0.15782   0.16141
 Alpha virt. eigenvalues --    0.18746   0.20378   0.21566   0.22970   0.24000

 Mulliken charges:
               1
     1  C   -0.178847
     2  C   -0.031461
     3  C   -0.027158
     4  C   -0.176189
     5  H    0.086997
     6  H    0.066277
     7  H    0.054748
     8  H    0.054927
     9  H    0.065828
    10  H    0.084878
 Sum of Mulliken charges =   0.00000

 Dipole moment (field-independent basis, Debye):
    X=             -0.0007    Y=              0.0197    Z=             -0.0400  Tot=              0.0446
 Quadrupole moment (field-independent basis, Debye-Ang):
   XX=            -23.6543   YY=            -22.9915   ZZ=            -29.2510
   XY=             -0.1006   XZ=              0.2679   YZ=              0.0402

 1\1\GINC-NODE30\SP\RB2PLYPD3-FC\def2QZVP\C4H6\BOITTIER\26-Aug-2020\0\\
 #p B2PLYPD3/Def2QZVP\\butadiene\\0,1\C,0,-3.842076,0.220455,0.000811\C
 ,0,-2.709962,-0.49419,0.067755\C,0,-1.381778,0.077109,0.031386\C,0,-0.
 276034,-0.66237,0.007034\H,0,-4.785976,-0.256226,-0.022157\H,0,-3.8345
 98,1.30594,-0.050102\H,0,-2.752285,-1.575148,0.035154\H,0,-1.290475,1.
 152012,0.006251\H,0,-0.328781,-1.755598,0.068617\H,0,0.689357,-0.17145
 2,0.013984\\Version=ES64L-G09RevD.01\State=1-A\HF=-155.7003776\MP2=-15
 5.9260382\RMSD=4.192e-09\PG=C01 [X(C4H6)]\\@

 Normal termination of Gaussian 09 at Wed Aug 26 16:31:48 2020.
