 Gaussian 09, Revision D.01,
 Gaussian 09:  ES64L-G09RevD.01 24-Apr-2013

 --------------------
 #p B2PLYPD3/Def2QZVP
 --------------------

 ---------
 butadiene
 ---------
 Symbolic Z-matrix:
 Charge =  0 Multiplicity = 1

                         Standard orientation:
 ---------------------------------------------------------------------
 Center     Atomic      Atomic             Coordinates (Angstroms)
 Number     Number       Type             X           Y           Z
 ---------------------------------------------------------------------
      1          6           0       -1.815270   -0.158488   -0.065192
      2          6           0       -0.598835    0.472867    0.055381
      3          6           0        0.571788   -0.385469    0.036494
      4          6           0        1.828608    0.076506   -0.026695
      5          1           0       -2.799498    0.426214   -0.004316
      6          1           0       -1.857542   -1.216713   -0.174332
      7          1           0       -0.524444    1.582590    0.191348
      8          1           0        0.512882   -1.484472    0.311834
      9          1           0        1.997643    1.107118   -0.204435
     10          1           0        2.753206   -0.447232   -0.120034
 ---------------------------------------------------------------------

 SCF Done:  E(RB2PLYPD3) =  -155.682094557     A.U. after   12 cycles
 E2(B2PLYPD3) =    -0.2279519662D+00 E(B2PLYPD3) =    -0.15591004652368D+03

 The electronic state is 1-A.
 Alpha  occ. eigenvalues --  -10.63872 -10.63213 -10.62683 -10.60861  -0.92698
 Alpha  occ. eigenvalues --   -0.84175  -0.69745  -0.63937  -0.54274  -0.53643
 Alpha  occ. eigenvalues --   -0.46319  -0.44430  -0.41581  -0.37342  -0.27265
 Alpha virt. eigenvalues --    0.01360   0.06989   0.07181   0.07672   0.08903
 Alpha virt. eigenvalues --    0.11426   0.12649   0.14334   0.15555   0.16528
 Alpha virt. eigenvalues --    0.18570   0.19433   0.22205   0.22477   0.23577

 Mulliken charges:
               1
     1  C   -0.169566
     2  C   -0.052446
     3  C   -0.026256
     4  C   -0.171829
     5  H    0.078464
     6  H    0.075676
     7  H    0.071758
     8  H    0.064387
     9  H    0.049895
    10  H    0.079915
 Sum of Mulliken charges =   0.00000

 Dipole moment (field-independent basis, Debye):
    X=             -0.0060    Y=              0.0403    Z=              0.0583  Tot=              0.0711
 Quadrupole moment (field-independent basis, Debye-Ang):
   XX=            -23.5442   YY=            -23.2239   ZZ=            -29.3398
   XY=              0.0709   XZ=             -0.3553   YZ=             -0.0436

 1\1\GINC-NODE25\SP\RB2PLYPD3-FC\def2QZVP\C4H6\BOITTIER\26-Aug-2020\0\\
 #p B2PLYPD3/Def2QZVP\\butadiene\\0,1\C,0,-3.808413,0.264045,0.074305\C
 ,0,-2.723054,-0.57593,-0.022133\C,0,-1.418871,0.061692,-0.020827\C,0,-
 0.26382,-0.613599,0.061931\H,0,-4.88065,-0.138581,0.024421\H,0,-3.6625
 47,1.315686,0.153756\H,0,-2.846426,-1.684682,-0.126796\H,0,-1.282011,1
 .14551,-0.326925\H,0,-0.280141,-1.652404,0.269159\H,0,0.738916,-0.2594
 68,0.14564\\Version=ES64L-G09RevD.01\State=1-A\HF=-155.6820946\MP2=-15
 5.9100465\RMSD=3.540e-09\PG=C01 [X(C4H6)]\\@

 Normal termination of Gaussian 09 at Wed Aug 26 12:28:19 2020.
