 Gaussian 09, Revision D.01,
 Gaussian 09:  ES64L-G09RevD.01 24-Apr-2013

 --------------------
 #p B2PLYPD3/Def2QZVP
 --------------------

 ---------
 butadiene
 ---------
 Symbolic Z-matrix:
 Charge =  0 Multiplicity = 1

                         Standard orientation:
 ---------------------------------------------------------------------
 Center     Atomic      Atomic             Coordinates (Angstroms)
 Number     Number       Type             X           Y           Z
 ---------------------------------------------------------------------
      1          6           0       -1.831677    0.086699   -0.034603
      2          6           0       -0.605913   -0.400061    0.047287
      3          6           0        0.595125    0.424717    0.029737
      4          6           0        1.838738   -0.112426   -0.051708
      5          1           0       -2.760591   -0.525521   -0.020222
      6          1           0       -1.972085    1.193133   -0.109892
      7          1           0       -0.421160   -1.445477    0.060115
      8          1           0        0.434063    1.509378    0.148524
      9          1           0        2.028311   -1.208167   -0.008911
     10          1           0        2.713824    0.483078   -0.013895
 ---------------------------------------------------------------------

 SCF Done:  E(RB2PLYPD3) =  -155.695316249     A.U. after   11 cycles
 E2(B2PLYPD3) =    -0.2264026499D+00 E(B2PLYPD3) =    -0.15592171889854D+03

 The electronic state is 1-A.
 Alpha  occ. eigenvalues --  -10.63202 -10.62151 -10.61999 -10.61985  -0.92945
 Alpha  occ. eigenvalues --   -0.84530  -0.69958  -0.64056  -0.54730  -0.53097
 Alpha  occ. eigenvalues --   -0.47094  -0.45060  -0.40929  -0.37963  -0.27658
 Alpha virt. eigenvalues --    0.01626   0.07018   0.07241   0.08084   0.09380
 Alpha virt. eigenvalues --    0.11623   0.12460   0.14493   0.15644   0.16302
 Alpha virt. eigenvalues --    0.18854   0.20226   0.21621   0.22868   0.23493

 Mulliken charges:
               1
     1  C   -0.166362
     2  C   -0.027323
     3  C   -0.036881
     4  C   -0.175604
     5  H    0.085466
     6  H    0.056570
     7  H    0.059666
     8  H    0.057242
     9  H    0.062224
    10  H    0.085002
 Sum of Mulliken charges =   0.00000

 Dipole moment (field-independent basis, Debye):
    X=              0.0115    Y=             -0.0248    Z=              0.1112  Tot=              0.1145
 Quadrupole moment (field-independent basis, Debye-Ang):
   XX=            -23.4095   YY=            -23.2294   ZZ=            -29.3517
   XY=             -0.2480   XZ=              0.2736   YZ=              0.0065

 1\1\GINC-NODE04\SP\RB2PLYPD3-FC\def2QZVP\C4H6\BOITTIER\26-Aug-2020\0\\
 #p B2PLYPD3/Def2QZVP\\butadiene\\0,1\C,0,-3.835885,0.207971,-0.017849\
 C,0,-2.721093,-0.494554,0.081319\C,0,-1.388369,0.093486,0.047906\C,0,-
 0.265445,-0.666007,-0.014864\H,0,-4.861902,-0.22158,0.008152\H,0,-3.76
 9521,1.319012,-0.121589\H,0,-2.732642,-1.555433,0.121262\H,0,-1.346205
 ,1.191907,0.138643\H,0,-0.281535,-1.776454,0.056327\H,0,0.704615,-0.24
 1604,0.011512\\Version=ES64L-G09RevD.01\State=1-A\HF=-155.6953162\MP2=
 -155.9217189\RMSD=8.177e-09\PG=C01 [X(C4H6)]\\@

 Normal termination of Gaussian 09 at Wed Aug 26 10:21:54 2020.
