 Gaussian 09, Revision D.01,
 Gaussian 09:  ES64L-G09RevD.01 24-Apr-2013

 --------------------
 #p B2PLYPD3/Def2QZVP
 --------------------

 ---------
 butadiene
 ---------
 Symbolic Z-matrix:
 Charge =  0 Multiplicity = 1

                         Standard orientation:
 ---------------------------------------------------------------------
 Center     Atomic      Atomic             Coordinates (Angstroms)
 Number     Number       Type             X           Y           Z
 ---------------------------------------------------------------------
      1          6           0        1.851140   -0.108723   -0.019674
      2          6           0        0.607120    0.396493    0.011912
      3          6           0       -0.611895   -0.403975    0.028091
      4          6           0       -1.844490    0.105962   -0.013367
      5          1           0        2.726006    0.535801   -0.025887
      6          1           0        2.055813   -1.168657   -0.048971
      7          1           0        0.453311    1.476586    0.088938
      8          1           0       -0.473154   -1.463955    0.066794
      9          1           0       -1.996922    1.187168   -0.061137
     10          1           0       -2.776307   -0.505487   -0.061509
 ---------------------------------------------------------------------

 SCF Done:  E(RB2PLYPD3) =  -155.699491871     A.U. after   11 cycles
 E2(B2PLYPD3) =    -0.2260480090D+00 E(B2PLYPD3) =    -0.15592553987985D+03

 The electronic state is 1-A.
 Alpha  occ. eigenvalues --  -10.62877 -10.62485 -10.62056 -10.61756  -0.92822
 Alpha  occ. eigenvalues --   -0.84699  -0.70071  -0.64164  -0.54474  -0.53623
 Alpha  occ. eigenvalues --   -0.46953  -0.45348  -0.40927  -0.37972  -0.27716
 Alpha virt. eigenvalues --    0.01612   0.06958   0.07424   0.08022   0.09540
 Alpha virt. eigenvalues --    0.11597   0.12442   0.14599   0.15838   0.16116
 Alpha virt. eigenvalues --    0.18868   0.20550   0.21627   0.22705   0.23458

 Mulliken charges:
               1
     1  C   -0.177014
     2  C   -0.032574
     3  C   -0.032729
     4  C   -0.168790
     5  H    0.084682
     6  H    0.067408
     7  H    0.055620
     8  H    0.058843
     9  H    0.061158
    10  H    0.083397
 Sum of Mulliken charges =   0.00000

 Dipole moment (field-independent basis, Debye):
    X=              0.0012    Y=             -0.0207    Z=             -0.0141  Tot=              0.0251
 Quadrupole moment (field-independent basis, Debye-Ang):
   XX=            -23.2823   YY=            -23.2367   ZZ=            -29.3353
   XY=             -0.2488   XZ=              0.1529   YZ=              0.0428

 1\1\GINC-NODE06\SP\RB2PLYPD3-FC\def2QZVP\C4H6\BOITTIER\26-Aug-2020\0\\
 #p B2PLYPD3/Def2QZVP\\butadiene\\0,1\C,0,-3.853572,0.223358,0.000013\C
 ,0,-2.720634,-0.496302,0.048639\C,0,-1.377405,0.071737,0.040011\C,0,-0
 .256925,-0.65282,0.015774\H,0,-4.830162,-0.253005,0.013844\H,0,-3.8643
 09,1.301355,-0.063374\H,0,-2.763315,-1.583451,0.16034\H,0,-1.322933,1.
 140061,0.044634\H,0,-0.301795,-1.744764,0.002778\H,0,0.769457,-0.22094
 7,-0.051285\\Version=ES64L-G09RevD.01\State=1-A\HF=-155.6994919\MP2=-1
 55.9255399\RMSD=4.990e-09\PG=C01 [X(C4H6)]\\@

 Normal termination of Gaussian 09 at Wed Aug 26 13:10:05 2020.
