 Gaussian 09, Revision D.01,
 Gaussian 09:  ES64L-G09RevD.01 24-Apr-2013

 --------------------
 #p B2PLYPD3/Def2QZVP
 --------------------

 ---------
 butadiene
 ---------
 Symbolic Z-matrix:
 Charge =  0 Multiplicity = 1

                         Standard orientation:
 ---------------------------------------------------------------------
 Center     Atomic      Atomic             Coordinates (Angstroms)
 Number     Number       Type             X           Y           Z
 ---------------------------------------------------------------------
      1          6           0       -1.856077    0.100417    0.018348
      2          6           0       -0.602987   -0.380737   -0.053495
      3          6           0        0.620795    0.416405   -0.024022
      4          6           0        1.833809   -0.134908    0.029693
      5          1           0       -2.644469   -0.550988    0.041563
      6          1           0       -2.025986    1.158602    0.166926
      7          1           0       -0.505998   -1.425914   -0.089472
      8          1           0        0.543508    1.489965   -0.067862
      9          1           0        1.983267   -1.225793    0.177646
     10          1           0        2.676434    0.547064   -0.051949
 ---------------------------------------------------------------------

 SCF Done:  E(RB2PLYPD3) =  -155.695221262     A.U. after   11 cycles
 E2(B2PLYPD3) =    -0.2255679688D+00 E(B2PLYPD3) =    -0.15592078923088D+03

 The electronic state is 1-A.
 Alpha  occ. eigenvalues --  -10.62432 -10.62125 -10.61835 -10.60807  -0.92882
 Alpha  occ. eigenvalues --   -0.85137  -0.70170  -0.64264  -0.54650  -0.54294
 Alpha  occ. eigenvalues --   -0.46646  -0.45699  -0.41653  -0.37797  -0.27608
 Alpha virt. eigenvalues --    0.01686   0.07028   0.07514   0.08063   0.09543
 Alpha virt. eigenvalues --    0.11760   0.12253   0.14845   0.15968   0.16070
 Alpha virt. eigenvalues --    0.18798   0.20459   0.21181   0.22584   0.24236

 Mulliken charges:
               1
     1  C   -0.180055
     2  C   -0.034194
     3  C   -0.037000
     4  C   -0.176313
     5  H    0.088843
     6  H    0.065197
     7  H    0.057537
     8  H    0.059369
     9  H    0.072938
    10  H    0.083678
 Sum of Mulliken charges =   0.00000

 Dipole moment (field-independent basis, Debye):
    X=              0.0311    Y=             -0.0149    Z=              0.1231  Tot=              0.1279
 Quadrupole moment (field-independent basis, Debye-Ang):
   XX=            -23.8592   YY=            -22.8705   ZZ=            -29.1860
   XY=              0.1048   XZ=             -0.2873   YZ=             -0.0868

 1\1\GINC-NODE38\SP\RB2PLYPD3-FC\def2QZVP\C4H6\BOITTIER\26-Aug-2020\0\\
 #p B2PLYPD3/Def2QZVP\\butadiene\\0,1\C,0,-3.860956,0.212209,0.042916\C
 ,0,-2.712946,-0.484941,-0.011497\C,0,-1.367548,0.084137,-0.012351\C,0,
 -0.270479,-0.670345,0.061343\H,0,-4.751722,-0.288465,0.090784\H,0,-3.8
 4046,1.288492,0.151981\H,0,-2.802129,-1.531428,-0.008491\H,0,-1.254527
 ,1.152137,-0.096186\H,0,-0.314786,-1.764313,0.249832\H,0,0.678649,-0.1
 51322,-0.046077\\Version=ES64L-G09RevD.01\State=1-A\HF=-155.6952213\MP
 2=-155.9207892\RMSD=4.093e-09\PG=C01 [X(C4H6)]\\@

 Normal termination of Gaussian 09 at Wed Aug 26 09:10:47 2020.
