 Gaussian 09, Revision D.01,
 Gaussian 09:  ES64L-G09RevD.01 24-Apr-2013

 --------------------
 #p B2PLYPD3/Def2QZVP
 --------------------

 ---------
 butadiene
 ---------
 Symbolic Z-matrix:
 Charge =  0 Multiplicity = 1

                         Standard orientation:
 ---------------------------------------------------------------------
 Center     Atomic      Atomic             Coordinates (Angstroms)
 Number     Number       Type             X           Y           Z
 ---------------------------------------------------------------------
      1          6           0        1.845670    0.110703    0.013263
      2          6           0        0.602912   -0.380106   -0.027719
      3          6           0       -0.617173    0.405436   -0.052480
      4          6           0       -1.837754   -0.136942    0.035456
      5          1           0        2.667738   -0.558130    0.084637
      6          1           0        2.052833    1.129566    0.103185
      7          1           0        0.482211   -1.442544   -0.032157
      8          1           0       -0.558484    1.520482   -0.081797
      9          1           0       -1.946447   -1.201870   -0.016631
     10          1           0       -2.659781    0.557947    0.131640
 ---------------------------------------------------------------------

 SCF Done:  E(RB2PLYPD3) =  -155.696707529     A.U. after   11 cycles
 E2(B2PLYPD3) =    -0.2256509849D+00 E(B2PLYPD3) =    -0.15592235851415D+03

 The electronic state is 1-A.
 Alpha  occ. eigenvalues --  -10.62711 -10.62329 -10.61416 -10.60791  -0.92985
 Alpha  occ. eigenvalues --   -0.85187  -0.70361  -0.63991  -0.54993  -0.54039
 Alpha  occ. eigenvalues --   -0.46547  -0.45845  -0.41505  -0.37977  -0.27586
 Alpha virt. eigenvalues --    0.01673   0.07003   0.07465   0.08015   0.09628
 Alpha virt. eigenvalues --    0.11773   0.12366   0.14843   0.15891   0.16067
 Alpha virt. eigenvalues --    0.18705   0.20527   0.21388   0.22770   0.24273

 Mulliken charges:
               1
     1  C   -0.177006
     2  C   -0.031823
     3  C   -0.026476
     4  C   -0.182934
     5  H    0.081830
     6  H    0.071027
     7  H    0.054482
     8  H    0.048671
     9  H    0.073912
    10  H    0.088319
 Sum of Mulliken charges =   0.00000

 Dipole moment (field-independent basis, Debye):
    X=             -0.0122    Y=              0.0062    Z=              0.1232  Tot=              0.1240
 Quadrupole moment (field-independent basis, Debye-Ang):
   XX=            -23.8218   YY=            -22.8975   ZZ=            -29.2029
   XY=             -0.0238   XZ=              0.1361   YZ=              0.1370

 1\1\GINC-NODE37\SP\RB2PLYPD3-FC\def2QZVP\C4H6\BOITTIER\26-Aug-2020\0\\
 #p B2PLYPD3/Def2QZVP\\butadiene\\0,1\C,0,-3.850705,0.217362,-0.001653\
 C,0,-2.713166,-0.482074,0.06012\C,0,-1.374168,0.077727,0.062026\C,0,-0
 .267864,-0.672966,-0.003355\H,0,-4.777518,-0.298997,-0.052831\H,0,-3.8
 76234,1.253085,-0.126987\H,0,-2.780637,-1.548433,0.101226\H,0,-1.23632
 7,1.186128,0.053062\H,0,-0.347461,-1.73804,0.085418\H,0,0.663013,-0.13
 6693,-0.120526\\Version=ES64L-G09RevD.01\State=1-A\HF=-155.6967075\MP2
 =-155.9223585\RMSD=3.309e-09\PG=C01 [X(C4H6)]\\@

 Normal termination of Gaussian 09 at Wed Aug 26 09:48:11 2020.
