 Gaussian 09, Revision D.01,
 Gaussian 09:  ES64L-G09RevD.01 24-Apr-2013

 --------------------
 #p B2PLYPD3/Def2QZVP
 --------------------

 ---------
 butadiene
 ---------
 Symbolic Z-matrix:
 Charge =  0 Multiplicity = 1

                         Standard orientation:
 ---------------------------------------------------------------------
 Center     Atomic      Atomic             Coordinates (Angstroms)
 Number     Number       Type             X           Y           Z
 ---------------------------------------------------------------------
      1          6           0       -1.841314   -0.114538    0.008648
      2          6           0       -0.610696    0.402166   -0.041275
      3          6           0        0.612324   -0.384267   -0.025671
      4          6           0        1.851101    0.099177    0.018677
      5          1           0       -2.726202    0.481254    0.085300
      6          1           0       -2.014709   -1.164514    0.066193
      7          1           0       -0.504716    1.486261    0.016722
      8          1           0        0.462945   -1.455876   -0.019694
      9          1           0        2.008475    1.171554    0.038330
     10          1           0        2.705708   -0.533912    0.050875
 ---------------------------------------------------------------------

 SCF Done:  E(RB2PLYPD3) =  -155.700629924     A.U. after   11 cycles
 E2(B2PLYPD3) =    -0.2253667995D+00 E(B2PLYPD3) =    -0.15592599672375D+03

 The electronic state is 1-A.
 Alpha  occ. eigenvalues --  -10.62652 -10.62411 -10.61306 -10.61290  -0.92987
 Alpha  occ. eigenvalues --   -0.85137  -0.70541  -0.64106  -0.55042  -0.53962
 Alpha  occ. eigenvalues --   -0.47134  -0.45581  -0.41004  -0.38131  -0.27788
 Alpha virt. eigenvalues --    0.01673   0.07022   0.07493   0.08102   0.09714
 Alpha virt. eigenvalues --    0.11650   0.12553   0.14731   0.15845   0.16268
 Alpha virt. eigenvalues --    0.18897   0.20470   0.21834   0.22897   0.23637

 Mulliken charges:
               1
     1  C   -0.171521
     2  C   -0.029199
     3  C   -0.029090
     4  C   -0.176257
     5  H    0.083877
     6  H    0.062720
     7  H    0.052780
     8  H    0.052048
     9  H    0.064193
    10  H    0.090449
 Sum of Mulliken charges =   0.00000

 Dipole moment (field-independent basis, Debye):
    X=             -0.0338    Y=             -0.0219    Z=              0.1739  Tot=              0.1786
 Quadrupole moment (field-independent basis, Debye-Ang):
   XX=            -23.2104   YY=            -23.2388   ZZ=            -29.1904
   XY=              0.1242   XZ=             -0.1999   YZ=              0.0354

 1\1\GINC-NODE31\SP\RB2PLYPD3-FC\def2QZVP\C4H6\BOITTIER\26-Aug-2020\0\\
 #p B2PLYPD3/Def2QZVP\\butadiene\\0,1\C,0,-3.844462,0.227126,0.002358\C
 ,0,-2.726128,-0.499891,0.070707\C,0,-1.382116,0.054194,0.037251\C,0,-0
 .249965,-0.644211,0.010466\H,0,-4.821839,-0.202574,-0.060597\H,0,-3.82
 7206,1.289154,-0.084968\H,0,-2.816019,-1.58664,0.043263\H,0,-1.33727,1
 .134642,0.00095\H,0,-0.287128,-1.727561,0.021195\H,0,0.704107,-0.17545
 7,-0.036524\\Version=ES64L-G09RevD.01\State=1-A\HF=-155.7006299\MP2=-1
 55.9259967\RMSD=4.100e-09\PG=C01 [X(C4H6)]\\@

 Normal termination of Gaussian 09 at Wed Aug 26 21:32:31 2020.
