 Gaussian 09, Revision D.01,
 Gaussian 09:  ES64L-G09RevD.01 24-Apr-2013

 --------------------
 #p B2PLYPD3/Def2QZVP
 --------------------

 ---------
 butadiene
 ---------
 Symbolic Z-matrix:
 Charge =  0 Multiplicity = 1

                         Standard orientation:
 ---------------------------------------------------------------------
 Center     Atomic      Atomic             Coordinates (Angstroms)
 Number     Number       Type             X           Y           Z
 ---------------------------------------------------------------------
      1          6           0       -1.814396   -0.105852    0.042347
      2          6           0       -0.602709    0.351345   -0.088208
      3          6           0        0.623858   -0.430961   -0.019537
      4          6           0        1.822230    0.143803    0.076732
      5          1           0       -2.538477    0.590289   -0.052004
      6          1           0       -2.055730   -1.097780    0.219058
      7          1           0       -0.575905    1.488472   -0.024928
      8          1           0        0.452946   -1.476783   -0.146762
      9          1           0        1.825947    1.233633    0.091055
     10          1           0        2.717323   -0.487844   -0.154423
 ---------------------------------------------------------------------

 SCF Done:  E(RB2PLYPD3) =  -155.681045391     A.U. after   12 cycles
 E2(B2PLYPD3) =    -0.2254498112D+00 E(B2PLYPD3) =    -0.15590649520198D+03

 The electronic state is 1-A.
 Alpha  occ. eigenvalues --  -10.62289 -10.62082 -10.61881 -10.59515  -0.93488
 Alpha  occ. eigenvalues --   -0.85866  -0.70080  -0.63816  -0.55152  -0.54108
 Alpha  occ. eigenvalues --   -0.46982  -0.45406  -0.40980  -0.37935  -0.28029
 Alpha virt. eigenvalues --    0.01855   0.07019   0.07435   0.08009   0.09615
 Alpha virt. eigenvalues --    0.11890   0.12405   0.14933   0.15210   0.16212
 Alpha virt. eigenvalues --    0.18821   0.19435   0.21616   0.22249   0.25206

 Mulliken charges:
               1
     1  C   -0.175870
     2  C   -0.011224
     3  C   -0.043955
     4  C   -0.167931
     5  H    0.084789
     6  H    0.065123
     7  H    0.033582
     8  H    0.061997
     9  H    0.069483
    10  H    0.084005
 Sum of Mulliken charges =   0.00000

 Dipole moment (field-independent basis, Debye):
    X=             -0.1501    Y=             -0.0634    Z=             -0.1182  Tot=              0.2013
 Quadrupole moment (field-independent basis, Debye-Ang):
   XX=            -24.1009   YY=            -23.0030   ZZ=            -28.9727
   XY=             -0.0641   XZ=             -0.7865   YZ=              0.1416

 1\1\GINC-NODE04\SP\RB2PLYPD3-FC\def2QZVP\C4H6\BOITTIER\26-Aug-2020\0\\
 #p B2PLYPD3/Def2QZVP\\butadiene\\0,1\C,0,-3.824331,0.20193,-0.030893\C
 ,0,-2.711911,-0.457994,0.11499\C,0,-1.367153,0.096994,0.045728\C,0,-0.
 287166,-0.679554,-0.033767\H,0,-4.659424,-0.355633,0.066836\H,0,-3.887
 647,1.218168,-0.222311\H,0,-2.883902,-1.5831,0.066658\H,0,-1.353351,1.
 158282,0.158061\H,0,-0.473886,-1.753371,-0.03394\H,0,0.703279,-0.21076
 3,0.196137\\Version=ES64L-G09RevD.01\State=1-A\HF=-155.6810454\MP2=-15
 5.9064952\RMSD=5.366e-09\PG=C01 [X(C4H6)]\\@

 Normal termination of Gaussian 09 at Wed Aug 26 11:23:38 2020.
