 Gaussian 09, Revision D.01,
 Gaussian 09:  ES64L-G09RevD.01 24-Apr-2013

 --------------------
 #p B2PLYPD3/Def2QZVP
 --------------------

 ---------
 butadiene
 ---------
 Symbolic Z-matrix:
 Charge =  0 Multiplicity = 1

                         Standard orientation:
 ---------------------------------------------------------------------
 Center     Atomic      Atomic             Coordinates (Angstroms)
 Number     Number       Type             X           Y           Z
 ---------------------------------------------------------------------
      1          6           0       -1.840354   -0.127274    0.004362
      2          6           0       -0.608858    0.404592   -0.008544
      3          6           0        0.615763   -0.384603    0.030163
      4          6           0        1.850878    0.115826   -0.015666
      5          1           0       -2.706628    0.522127   -0.034551
      6          1           0       -2.009540   -1.176602   -0.093654
      7          1           0       -0.524228    1.509488    0.098559
      8          1           0        0.503962   -1.460724    0.049546
      9          1           0        2.025698    1.139508   -0.064854
     10          1           0        2.606160   -0.585047   -0.016942
 ---------------------------------------------------------------------

 SCF Done:  E(RB2PLYPD3) =  -155.695905892     A.U. after   11 cycles
 E2(B2PLYPD3) =    -0.2254809986D+00 E(B2PLYPD3) =    -0.15592138689008D+03

 The electronic state is 1-A.
 Alpha  occ. eigenvalues --  -10.62851 -10.62323 -10.61429 -10.60385  -0.92884
 Alpha  occ. eigenvalues --   -0.85296  -0.70489  -0.63972  -0.55190  -0.54072
 Alpha  occ. eigenvalues --   -0.46566  -0.46103  -0.41309  -0.37941  -0.27687
 Alpha virt. eigenvalues --    0.01693   0.07053   0.07476   0.08054   0.09568
 Alpha virt. eigenvalues --    0.11746   0.12373   0.14952   0.15636   0.16257
 Alpha virt. eigenvalues --    0.18740   0.20076   0.21959   0.22850   0.24155

 Mulliken charges:
               1
     1  C   -0.176274
     2  C   -0.033565
     3  C   -0.026834
     4  C   -0.182641
     5  H    0.082055
     6  H    0.068915
     7  H    0.053101
     8  H    0.051051
     9  H    0.075377
    10  H    0.088816
 Sum of Mulliken charges =   0.00000

 Dipole moment (field-independent basis, Debye):
    X=             -0.0035    Y=             -0.0209    Z=             -0.0579  Tot=              0.0617
 Quadrupole moment (field-independent basis, Debye-Ang):
   XX=            -23.7028   YY=            -22.8998   ZZ=            -29.1894
   XY=              0.0842   XZ=              0.0548   YZ=              0.1090

 1\1\GINC-NODE22\SP\RB2PLYPD3-FC\def2QZVP\C4H6\BOITTIER\26-Aug-2020\0\\
 #p B2PLYPD3/Def2QZVP\\butadiene\\0,1\C,0,-3.842865,0.23618,0.01688\C,0
 ,-2.724634,-0.504486,0.041405\C,0,-1.379983,0.055091,-0.011619\C,0,-0.
 252554,-0.654636,0.045209\H,0,-4.810113,-0.249118,0.067708\H,0,-3.8238
 19,1.300602,0.094112\H,0,-2.836744,-1.608833,-0.043901\H,0,-1.300018,1
 .133455,-0.052235\H,0,-0.261154,-1.691945,0.114655\H,0,0.614639,-0.098
 297,0.033445\\Version=ES64L-G09RevD.01\State=1-A\HF=-155.6959059\MP2=-
 155.9213869\RMSD=3.206e-09\PG=C01 [X(C4H6)]\\@

 Normal termination of Gaussian 09 at Wed Aug 26 09:13:37 2020.
