 Gaussian 09, Revision D.01,
 Gaussian 09:  ES64L-G09RevD.01 24-Apr-2013

 --------------------
 #p B2PLYPD3/Def2QZVP
 --------------------

 ---------
 butadiene
 ---------
 Symbolic Z-matrix:
 Charge =  0 Multiplicity = 1

                         Standard orientation:
 ---------------------------------------------------------------------
 Center     Atomic      Atomic             Coordinates (Angstroms)
 Number     Number       Type             X           Y           Z
 ---------------------------------------------------------------------
      1          6           0       -1.857788   -0.137486    0.022582
      2          6           0       -0.604868    0.408343   -0.091235
      3          6           0        0.619884   -0.360746   -0.068441
      4          6           0        1.880239    0.085475    0.068344
      5          1           0       -2.697871    0.554847    0.064092
      6          1           0       -2.140770   -1.153944    0.377968
      7          1           0       -0.445070    1.499737   -0.060418
      8          1           0        0.453822   -1.413389   -0.200263
      9          1           0        1.962087    1.120285    0.235941
     10          1           0        2.643002   -0.581051   -0.004825
 ---------------------------------------------------------------------

 SCF Done:  E(RB2PLYPD3) =  -155.683863778     A.U. after   12 cycles
 E2(B2PLYPD3) =    -0.2270907662D+00 E(B2PLYPD3) =    -0.15591095454439D+03

 The electronic state is 1-A.
 Alpha  occ. eigenvalues --  -10.63574 -10.62741 -10.62138 -10.60674  -0.92752
 Alpha  occ. eigenvalues --   -0.84721  -0.71117  -0.63781  -0.55643  -0.53082
 Alpha  occ. eigenvalues --   -0.47876  -0.45279  -0.40957  -0.37557  -0.27324
 Alpha virt. eigenvalues --    0.00584   0.06972   0.07457   0.08069   0.09501
 Alpha virt. eigenvalues --    0.11634   0.12310   0.15173   0.15595   0.16161
 Alpha virt. eigenvalues --    0.18941   0.20310   0.21419   0.22218   0.23528

 Mulliken charges:
               1
     1  C   -0.167340
     2  C   -0.050735
     3  C   -0.012075
     4  C   -0.195538
     5  H    0.074990
     6  H    0.075012
     7  H    0.054052
     8  H    0.051796
     9  H    0.068140
    10  H    0.101699
 Sum of Mulliken charges =   0.00000

 Dipole moment (field-independent basis, Debye):
    X=             -0.0208    Y=              0.0072    Z=              0.3019  Tot=              0.3027
 Quadrupole moment (field-independent basis, Debye-Ang):
   XX=            -23.6837   YY=            -23.3049   ZZ=            -29.1463
   XY=              0.1245   XZ=             -0.7018   YZ=              0.0303

 1\1\GINC-NODE21\SP\RB2PLYPD3-FC\def2QZVP\C4H6\BOITTIER\26-Aug-2020\0\\
 #p B2PLYPD3/Def2QZVP\\butadiene\\0,1\C,0,-3.858344,0.255036,-0.023\C,0
 ,-2.725177,-0.504421,0.117888\C,0,-1.381354,0.029142,0.079367\C,0,-0.2
 22452,-0.64209,-0.033384\H,0,-4.809861,-0.274833,-0.048344\H,0,-3.9520
 1,1.293526,-0.413295\H,0,-2.765642,-1.607124,0.123699\H,0,-1.354221,1.
 09825,0.175715\H,0,-0.329122,-1.67962,-0.166699\H,0,0.648301,-0.122543
 ,0.023858\\Version=ES64L-G09RevD.01\State=1-A\HF=-155.6838638\MP2=-155
 .9109545\RMSD=3.683e-09\PG=C01 [X(C4H6)]\\@

 Normal termination of Gaussian 09 at Wed Aug 26 15:00:19 2020.
