 Gaussian 09, Revision D.01,
 Gaussian 09:  ES64L-G09RevD.01 24-Apr-2013

 --------------------
 #p B2PLYPD3/Def2QZVP
 --------------------

 ---------
 butadiene
 ---------
 Symbolic Z-matrix:
 Charge =  0 Multiplicity = 1

                         Standard orientation:
 ---------------------------------------------------------------------
 Center     Atomic      Atomic             Coordinates (Angstroms)
 Number     Number       Type             X           Y           Z
 ---------------------------------------------------------------------
      1          6           0        1.851028    0.095036   -0.030351
      2          6           0        0.603830   -0.382364    0.041847
      3          6           0       -0.611354    0.417562    0.012186
      4          6           0       -1.847129   -0.122150   -0.013526
      5          1           0        2.741139   -0.527150   -0.005557
      6          1           0        2.031172    1.140662   -0.018437
      7          1           0        0.473881   -1.444214    0.000857
      8          1           0       -0.481323    1.489584    0.028691
      9          1           0       -1.997728   -1.210282   -0.048392
     10          1           0       -2.745393    0.502892   -0.018095
 ---------------------------------------------------------------------

 SCF Done:  E(RB2PLYPD3) =  -155.699453401     A.U. after   11 cycles
 E2(B2PLYPD3) =    -0.2260273214D+00 E(B2PLYPD3) =    -0.15592548072287D+03

 The electronic state is 1-A.
 Alpha  occ. eigenvalues --  -10.62844 -10.62399 -10.62164 -10.61348  -0.92837
 Alpha  occ. eigenvalues --   -0.84711  -0.70243  -0.64365  -0.54530  -0.53841
 Alpha  occ. eigenvalues --   -0.46810  -0.45516  -0.41224  -0.37992  -0.27591
 Alpha virt. eigenvalues --    0.01488   0.06975   0.07489   0.08068   0.09521
 Alpha virt. eigenvalues --    0.11632   0.12495   0.14635   0.15770   0.16278
 Alpha virt. eigenvalues --    0.18881   0.20227   0.21874   0.22826   0.23622

 Mulliken charges:
               1
     1  C   -0.173853
     2  C   -0.026774
     3  C   -0.039329
     4  C   -0.173261
     5  H    0.083684
     6  H    0.061973
     7  H    0.056790
     8  H    0.058240
     9  H    0.067009
    10  H    0.085522
 Sum of Mulliken charges =   0.00000

 Dipole moment (field-independent basis, Debye):
    X=             -0.0106    Y=              0.0161    Z=             -0.0165  Tot=              0.0254
 Quadrupole moment (field-independent basis, Debye-Ang):
   XX=            -23.2881   YY=            -23.1857   ZZ=            -29.3277
   XY=              0.1576   XZ=              0.0692   YZ=              0.0844

 1\1\GINC-NODE30\SP\RB2PLYPD3-FC\def2QZVP\C4H6\BOITTIER\26-Aug-2020\0\\
 #p B2PLYPD3/Def2QZVP\\butadiene\\0,1\C,0,-3.856836,0.210548,0.04792\C,
 0,-2.715618,-0.484892,-0.003188\C,0,-1.376706,0.084967,-0.000465\C,0,-
 0.257471,-0.666032,0.048575\H,0,-4.844081,-0.242619,0.044218\H,0,-3.84
 6852,1.270345,-0.003631\H,0,-2.777767,-1.550563,0.0779\H,0,-1.312712,1
 .161567,-0.057467\H,0,-0.304037,-1.761469,0.12458\H,0,0.738221,-0.2122
 73,0.031979\\Version=ES64L-G09RevD.01\State=1-A\HF=-155.6994534\MP2=-1
 55.9254807\RMSD=5.203e-09\PG=C01 [X(C4H6)]\\@

 Normal termination of Gaussian 09 at Wed Aug 26 22:23:13 2020.
