 Gaussian 09, Revision D.01,
 Gaussian 09:  ES64L-G09RevD.01 24-Apr-2013

 --------------------
 #p B2PLYPD3/Def2QZVP
 --------------------

 ---------
 butadiene
 ---------
 Symbolic Z-matrix:
 Charge =  0 Multiplicity = 1

                         Standard orientation:
 ---------------------------------------------------------------------
 Center     Atomic      Atomic             Coordinates (Angstroms)
 Number     Number       Type             X           Y           Z
 ---------------------------------------------------------------------
      1          6           0       -1.832823    0.096230   -0.017643
      2          6           0       -0.591713   -0.386254    0.032300
      3          6           0        0.606163    0.411115    0.014151
      4          6           0        1.825951   -0.119094   -0.026982
      5          1           0       -2.705584   -0.523422   -0.069890
      6          1           0       -1.997677    1.161930   -0.019522
      7          1           0       -0.469187   -1.462294    0.033088
      8          1           0        0.452592    1.492477    0.070162
      9          1           0        1.959925   -1.176285    0.016202
     10          1           0        2.714466    0.495612   -0.040996
 ---------------------------------------------------------------------

 SCF Done:  E(RB2PLYPD3) =  -155.700898801     A.U. after   11 cycles
 E2(B2PLYPD3) =    -0.2254370939D+00 E(B2PLYPD3) =    -0.15592633589444D+03

 The electronic state is 1-A.
 Alpha  occ. eigenvalues --  -10.62476 -10.62204 -10.61318 -10.61220  -0.93326
 Alpha  occ. eigenvalues --   -0.85033  -0.70391  -0.64170  -0.54841  -0.54101
 Alpha  occ. eigenvalues --   -0.46900  -0.45527  -0.41286  -0.38289  -0.27642
 Alpha virt. eigenvalues --    0.01749   0.07048   0.07418   0.08090   0.09701
 Alpha virt. eigenvalues --    0.11710   0.12560   0.14767   0.15822   0.16230
 Alpha virt. eigenvalues --    0.18743   0.20487   0.21788   0.22844   0.23890

 Mulliken charges:
               1
     1  C   -0.178413
     2  C   -0.022353
     3  C   -0.029652
     4  C   -0.175380
     5  H    0.087227
     6  H    0.060283
     7  H    0.050621
     8  H    0.053741
     9  H    0.068308
    10  H    0.085618
 Sum of Mulliken charges =   0.00000

 Dipole moment (field-independent basis, Debye):
    X=              0.0208    Y=             -0.0102    Z=              0.0227  Tot=              0.0325
 Quadrupole moment (field-independent basis, Debye-Ang):
   XX=            -23.4102   YY=            -23.1642   ZZ=            -29.1792
   XY=             -0.1220   XZ=              0.1988   YZ=              0.0336

 1\1\GINC-NODE35\SP\RB2PLYPD3-FC\def2QZVP\C4H6\BOITTIER\26-Aug-2020\0\\
 #p B2PLYPD3/Def2QZVP\\butadiene\\0,1\C,0,-3.838067,0.211916,-0.001465\
 C,0,-2.705135,-0.486433,0.064964\C,0,-1.382409,0.079464,0.030448\C,0,-
 0.279233,-0.664276,0.00698\H,0,-4.808907,-0.240117,-0.040775\H,0,-3.80
 6669,1.289427,-0.031151\H,0,-2.780036,-1.566452,0.093682\H,0,-1.336994
 ,1.171814,0.05827\H,0,-0.339397,-1.726752,0.077636\H,0,0.706112,-0.221
 671,-0.019769\\Version=ES64L-G09RevD.01\State=1-A\HF=-155.7008988\MP2=
 -155.9263359\RMSD=4.272e-09\PG=C01 [X(C4H6)]\\@

 Normal termination of Gaussian 09 at Wed Aug 26 15:25:18 2020.
