 Gaussian 09, Revision D.01,
 Gaussian 09:  ES64L-G09RevD.01 24-Apr-2013

 --------------------
 #p B2PLYPD3/Def2QZVP
 --------------------

 ---------
 butadiene
 ---------
 Symbolic Z-matrix:
 Charge =  0 Multiplicity = 1

                         Standard orientation:
 ---------------------------------------------------------------------
 Center     Atomic      Atomic             Coordinates (Angstroms)
 Number     Number       Type             X           Y           Z
 ---------------------------------------------------------------------
      1          6           0       -1.832258   -0.109016    0.059349
      2          6           0       -0.600196    0.429265   -0.048070
      3          6           0        0.597095   -0.404325   -0.067395
      4          6           0        1.829123    0.109758    0.019672
      5          1           0       -2.778964    0.375764   -0.059541
      6          1           0       -1.954246   -1.222090   -0.020532
      7          1           0       -0.455881    1.559092    0.140772
      8          1           0        0.602052   -1.544343    0.049377
      9          1           0        1.934435    1.236901   -0.055121
     10          1           0        2.690015   -0.559423    0.163712
 ---------------------------------------------------------------------

 SCF Done:  E(RB2PLYPD3) =  -155.680256454     A.U. after   11 cycles
 E2(B2PLYPD3) =    -0.2281744209D+00 E(B2PLYPD3) =    -0.15590843087480D+03

 The electronic state is 1-A.
 Alpha  occ. eigenvalues --  -10.64047 -10.63207 -10.62216 -10.62082  -0.92682
 Alpha  occ. eigenvalues --   -0.84559  -0.69384  -0.62555  -0.54659  -0.52951
 Alpha  occ. eigenvalues --   -0.46071  -0.43736  -0.41143  -0.37877  -0.27622
 Alpha virt. eigenvalues --    0.01400   0.06789   0.07113   0.07711   0.08891
 Alpha virt. eigenvalues --    0.11575   0.12549   0.14067   0.15320   0.16399
 Alpha virt. eigenvalues --    0.18688   0.19068   0.21870   0.22773   0.24170

 Mulliken charges:
               1
     1  C   -0.158845
     2  C   -0.040410
     3  C   -0.022473
     4  C   -0.175196
     5  H    0.084029
     6  H    0.051509
     7  H    0.060471
     8  H    0.051228
     9  H    0.061908
    10  H    0.087779
 Sum of Mulliken charges =   0.00000

 Dipole moment (field-independent basis, Debye):
    X=              0.0007    Y=             -0.0396    Z=              0.1159  Tot=              0.1224
 Quadrupole moment (field-independent basis, Debye-Ang):
   XX=            -23.6332   YY=            -23.2662   ZZ=            -29.4987
   XY=             -0.1875   XZ=              0.6194   YZ=             -0.0692

 1\1\GINC-NODE36\SP\RB2PLYPD3-FC\def2QZVP\C4H6\BOITTIER\26-Aug-2020\0\\
 #p B2PLYPD3/Def2QZVP\\butadiene\\0,1\C,0,-3.835688,0.216748,-0.036977\
 C,0,-2.717209,-0.527558,0.082505\C,0,-1.391413,0.081489,0.073725\C,0,-
 0.270281,-0.644526,-0.001905\H,0,-4.852122,-0.089492,0.098954\H,0,-3.7
 58545,1.335671,0.010529\H,0,-2.776224,-1.670003,-0.07349\H,0,-1.18617,
 1.1989,-0.076509\H,0,-0.365061,-1.769951,0.105658\H,0,0.694049,-0.1424
 09,-0.168136\\Version=ES64L-G09RevD.01\State=1-A\HF=-155.6802565\MP2=-
 155.9084309\RMSD=7.478e-09\PG=C01 [X(C4H6)]\\@

 Normal termination of Gaussian 09 at Wed Aug 26 12:06:37 2020.
