 Gaussian 09, Revision D.01,
 Gaussian 09:  ES64L-G09RevD.01 24-Apr-2013

 --------------------
 #p B2PLYPD3/Def2QZVP
 --------------------

 ---------
 butadiene
 ---------
 Symbolic Z-matrix:
 Charge =  0 Multiplicity = 1

                         Standard orientation:
 ---------------------------------------------------------------------
 Center     Atomic      Atomic             Coordinates (Angstroms)
 Number     Number       Type             X           Y           Z
 ---------------------------------------------------------------------
      1          6           0       -1.836210   -0.111557   -0.010710
      2          6           0       -0.607546    0.400758    0.029200
      3          6           0        0.607860   -0.414545    0.004410
      4          6           0        1.836726    0.111174   -0.019140
      5          1           0       -2.690525    0.554424   -0.044428
      6          1           0       -1.981961   -1.197341   -0.094868
      7          1           0       -0.488845    1.481693    0.070162
      8          1           0        0.457555   -1.472886    0.117144
      9          1           0        1.962657    1.205241   -0.064050
     10          1           0        2.736139   -0.486112   -0.006529
 ---------------------------------------------------------------------

 SCF Done:  E(RB2PLYPD3) =  -155.699942278     A.U. after   11 cycles
 E2(B2PLYPD3) =    -0.2258440659D+00 E(B2PLYPD3) =    -0.15592578634373D+03

 The electronic state is 1-A.
 Alpha  occ. eigenvalues --  -10.62553 -10.62465 -10.61753 -10.61572  -0.92896
 Alpha  occ. eigenvalues --   -0.84869  -0.69757  -0.64025  -0.54467  -0.53792
 Alpha  occ. eigenvalues --   -0.46670  -0.45435  -0.41176  -0.37957  -0.27769
 Alpha virt. eigenvalues --    0.01884   0.07043   0.07350   0.08050   0.09415
 Alpha virt. eigenvalues --    0.11704   0.12398   0.14579   0.15699   0.16143
 Alpha virt. eigenvalues --    0.18714   0.20334   0.21441   0.22894   0.23956

 Mulliken charges:
               1
     1  C   -0.177397
     2  C   -0.028174
     3  C   -0.035718
     4  C   -0.174325
     5  H    0.086670
     6  H    0.065533
     7  H    0.053611
     8  H    0.059750
     9  H    0.062836
    10  H    0.087213
 Sum of Mulliken charges =   0.00000

 Dipole moment (field-independent basis, Debye):
    X=              0.0249    Y=              0.0085    Z=             -0.0023  Tot=              0.0264
 Quadrupole moment (field-independent basis, Debye-Ang):
   XX=            -23.6431   YY=            -23.0548   ZZ=            -29.2936
   XY=              0.0264   XZ=              0.2285   YZ=             -0.0587

 1\1\GINC-NODE38\SP\RB2PLYPD3-FC\def2QZVP\C4H6\BOITTIER\26-Aug-2020\0\\
 #p B2PLYPD3/Def2QZVP\\butadiene\\0,1\C,0,-3.839012,0.222282,0.031368\C
 ,0,-2.722081,-0.502723,0.008843\C,0,-1.380298,0.082221,0.00654\C,0,-0.
 265196,-0.653908,0.047888\H,0,-4.798481,-0.278541,0.087211\H,0,-3.7876
 66,1.318793,0.07911\H,0,-2.79892,-1.5882,0.004106\H,0,-1.339488,1.1460
 73,-0.141582\H,0,-0.336773,-1.750761,0.129416\H,0,0.726475,-0.228009,0
 .015448\\Version=ES64L-G09RevD.01\State=1-A\HF=-155.6999423\MP2=-155.9
 257863\RMSD=3.082e-09\PG=C01 [X(C4H6)]\\@

 Normal termination of Gaussian 09 at Wed Aug 26 09:46:06 2020.
