 Gaussian 09, Revision D.01,
 Gaussian 09:  ES64L-G09RevD.01 24-Apr-2013

 --------------------
 #p B2PLYPD3/Def2QZVP
 --------------------

 ---------
 butadiene
 ---------
 Symbolic Z-matrix:
 Charge =  0 Multiplicity = 1

                         Standard orientation:
 ---------------------------------------------------------------------
 Center     Atomic      Atomic             Coordinates (Angstroms)
 Number     Number       Type             X           Y           Z
 ---------------------------------------------------------------------
      1          6           0       -1.831895    0.099814    0.029689
      2          6           0       -0.599583   -0.390587   -0.020118
      3          6           0        0.595574    0.413055   -0.017968
      4          6           0        1.826237   -0.115443    0.011530
      5          1           0       -2.709711   -0.551780    0.007929
      6          1           0       -2.008639    1.160635   -0.009280
      7          1           0       -0.394156   -1.455305   -0.030144
      8          1           0        0.474065    1.474489   -0.064153
      9          1           0        1.991445   -1.197175   -0.007464
     10          1           0        2.704995    0.528100    0.084311
 ---------------------------------------------------------------------

 SCF Done:  E(RB2PLYPD3) =  -155.700024341     A.U. after   11 cycles
 E2(B2PLYPD3) =    -0.2257351992D+00 E(B2PLYPD3) =    -0.15592575954019D+03

 The electronic state is 1-A.
 Alpha  occ. eigenvalues --  -10.62270 -10.62206 -10.61803 -10.61440  -0.93317
 Alpha  occ. eigenvalues --   -0.84816  -0.70157  -0.64313  -0.54534  -0.53849
 Alpha  occ. eigenvalues --   -0.46709  -0.45676  -0.41166  -0.38260  -0.27610
 Alpha virt. eigenvalues --    0.01713   0.06999   0.07380   0.08098   0.09638
 Alpha virt. eigenvalues --    0.11750   0.12400   0.14792   0.15751   0.16136
 Alpha virt. eigenvalues --    0.18702   0.20310   0.21735   0.22972   0.23805

 Mulliken charges:
               1
     1  C   -0.175905
     2  C   -0.025963
     3  C   -0.028381
     4  C   -0.179134
     5  H    0.084055
     6  H    0.066435
     7  H    0.052915
     8  H    0.056796
     9  H    0.065233
    10  H    0.083949
 Sum of Mulliken charges =   0.00000

 Dipole moment (field-independent basis, Debye):
    X=              0.0237    Y=              0.0225    Z=             -0.0473  Tot=              0.0576
 Quadrupole moment (field-independent basis, Debye-Ang):
   XX=            -23.6149   YY=            -23.0932   ZZ=            -29.2385
   XY=             -0.2422   XZ=              0.2242   YZ=              0.0038

 1\1\GINC-NODE33\SP\RB2PLYPD3-FC\def2QZVP\C4H6\BOITTIER\26-Aug-2020\0\\
 #p B2PLYPD3/Def2QZVP\\butadiene\\0,1\C,0,-3.833479,0.220076,0.044181\C
 ,0,-2.712487,-0.489883,0.014173\C,0,-1.389917,0.079949,-0.004448\C,0,-
 0.277378,-0.664648,0.045993\H,0,-4.816202,-0.259346,0.039602\H,0,-3.81
 2201,1.293555,-0.028536\H,0,-2.706396,-1.574002,0.038144\H,0,-1.314249
 ,1.143647,-0.084196\H,0,-0.313969,-1.758368,0.061387\H,0,0.704901,-0.1
 91709,0.101823\\Version=ES64L-G09RevD.01\State=1-A\HF=-155.7000243\MP2
 =-155.9257595\RMSD=4.723e-09\PG=C01 [X(C4H6)]\\@

 Normal termination of Gaussian 09 at Wed Aug 26 20:16:40 2020.
