 Gaussian 09, Revision D.01,
 Gaussian 09:  ES64L-G09RevD.01 24-Apr-2013

 --------------------
 #p B2PLYPD3/Def2QZVP
 --------------------

 ---------
 butadiene
 ---------
 Symbolic Z-matrix:
 Charge =  0 Multiplicity = 1

                         Standard orientation:
 ---------------------------------------------------------------------
 Center     Atomic      Atomic             Coordinates (Angstroms)
 Number     Number       Type             X           Y           Z
 ---------------------------------------------------------------------
      1          6           0        1.841865   -0.118459    0.012887
      2          6           0        0.620211    0.409404   -0.044209
      3          6           0       -0.625426   -0.365976   -0.018283
      4          6           0       -1.867359    0.095829    0.032958
      5          1           0        2.756549    0.452665   -0.019396
      6          1           0        1.979338   -1.223239    0.199878
      7          1           0        0.571073    1.509751   -0.015097
      8          1           0       -0.424877   -1.475305   -0.116569
      9          1           0       -1.998372    1.170547    0.110602
     10          1           0       -2.699459   -0.559203   -0.059534
 ---------------------------------------------------------------------

 SCF Done:  E(RB2PLYPD3) =  -155.694486616     A.U. after   11 cycles
 E2(B2PLYPD3) =    -0.2261175158D+00 E(B2PLYPD3) =    -0.15592060413159D+03

 The electronic state is 1-A.
 Alpha  occ. eigenvalues --  -10.63045 -10.62886 -10.62082 -10.61368  -0.92730
 Alpha  occ. eigenvalues --   -0.85223  -0.69991  -0.63097  -0.54907  -0.53552
 Alpha  occ. eigenvalues --   -0.47288  -0.44875  -0.40422  -0.37934  -0.28025
 Alpha virt. eigenvalues --    0.01668   0.07023   0.07291   0.07946   0.09653
 Alpha virt. eigenvalues --    0.11587   0.12359   0.14494   0.15611   0.16308
 Alpha virt. eigenvalues --    0.18893   0.20150   0.21443   0.22452   0.23646

 Mulliken charges:
               1
     1  C   -0.166881
     2  C   -0.032341
     3  C   -0.022037
     4  C   -0.180477
     5  H    0.088468
     6  H    0.055595
     7  H    0.048660
     8  H    0.043467
     9  H    0.068246
    10  H    0.097300
 Sum of Mulliken charges =   0.00000

 Dipole moment (field-independent basis, Debye):
    X=              0.0628    Y=              0.0502    Z=              0.0559  Tot=              0.0979
 Quadrupole moment (field-independent basis, Debye-Ang):
   XX=            -23.2435   YY=            -23.4008   ZZ=            -29.2772
   XY=              0.0922   XZ=              0.3557   YZ=              0.0657

 1\1\GINC-NODE30\SP\RB2PLYPD3-FC\def2QZVP\C4H6\BOITTIER\26-Aug-2020\0\\
 #p B2PLYPD3/Def2QZVP\\butadiene\\0,1\C,0,-3.847657,0.226938,0.036813\C
 ,0,-2.737632,-0.508231,-0.004516\C,0,-1.375382,0.037456,-0.004552\C,0,
 -0.233124,-0.632867,0.06027\H,0,-4.848365,-0.175907,0.023657\H,0,-3.78
 8449,1.344025,0.188516\H,0,-2.881626,-1.598719,0.059714\H,0,-1.379337,
 1.161132,-0.138066\H,0,-0.291708,-1.710954,0.172112\H,0,0.700147,-0.13
 6898,-0.053891\\Version=ES64L-G09RevD.01\State=1-A\HF=-155.6944866\MP2
 =-155.9206041\RMSD=3.210e-09\PG=C01 [X(C4H6)]\\@

 Normal termination of Gaussian 09 at Wed Aug 26 08:57:21 2020.
