 Gaussian 09, Revision D.01,
 Gaussian 09:  ES64L-G09RevD.01 24-Apr-2013

 --------------------
 #p B2PLYPD3/Def2QZVP
 --------------------

 ---------
 butadiene
 ---------
 Symbolic Z-matrix:
 Charge =  0 Multiplicity = 1

                         Standard orientation:
 ---------------------------------------------------------------------
 Center     Atomic      Atomic             Coordinates (Angstroms)
 Number     Number       Type             X           Y           Z
 ---------------------------------------------------------------------
      1          6           0        1.831899   -0.106260    0.004940
      2          6           0        0.590705    0.400580   -0.024454
      3          6           0       -0.600002   -0.407676   -0.010527
      4          6           0       -1.832985    0.107867    0.017284
      5          1           0        2.695084    0.534933    0.004693
      6          1           0        2.047532   -1.170618    0.112225
      7          1           0        0.487125    1.479852   -0.027497
      8          1           0       -0.445204   -1.463000   -0.059180
      9          1           0       -2.011793    1.168575    0.078255
     10          1           0       -2.710442   -0.516812   -0.031957
 ---------------------------------------------------------------------

 SCF Done:  E(RB2PLYPD3) =  -155.700495021     A.U. after   11 cycles
 E2(B2PLYPD3) =    -0.2257144018D+00 E(B2PLYPD3) =    -0.15592620942259D+03

 The electronic state is 1-A.
 Alpha  occ. eigenvalues --  -10.62436 -10.62278 -10.61525 -10.61443  -0.93177
 Alpha  occ. eigenvalues --   -0.84761  -0.70402  -0.64355  -0.54730  -0.54007
 Alpha  occ. eigenvalues --   -0.46630  -0.45601  -0.41411  -0.38202  -0.27471
 Alpha virt. eigenvalues --    0.01588   0.07027   0.07450   0.08090   0.09578
 Alpha virt. eigenvalues --    0.11682   0.12450   0.14855   0.15890   0.16208
 Alpha virt. eigenvalues --    0.18800   0.20543   0.21719   0.22753   0.23738

 Mulliken charges:
               1
     1  C   -0.176901
     2  C   -0.028739
     3  C   -0.033416
     4  C   -0.174975
     5  H    0.081885
     6  H    0.063660
     7  H    0.056187
     8  H    0.061492
     9  H    0.067298
    10  H    0.083506
 Sum of Mulliken charges =   0.00000

 Dipole moment (field-independent basis, Debye):
    X=             -0.0070    Y=              0.0062    Z=              0.0519  Tot=              0.0527
 Quadrupole moment (field-independent basis, Debye-Ang):
   XX=            -23.4696   YY=            -23.0767   ZZ=            -29.2298
   XY=             -0.2456   XZ=              0.2195   YZ=              0.0317

 1\1\GINC-NODE02\SP\RB2PLYPD3-FC\def2QZVP\C4H6\BOITTIER\26-Aug-2020\0\\
 #p B2PLYPD3/Def2QZVP\\butadiene\\0,1\C,0,-3.834531,0.225992,0.027249\C
 ,0,-2.707828,-0.501109,0.013899\C,0,-1.388787,0.074444,0.002689\C,0,-0
 .271433,-0.657936,0.046787\H,0,-4.800851,-0.245234,0.046949\H,0,-3.850
 251,1.314641,0.101146\H,0,-2.804406,-1.580596,0.044645\H,0,-1.347246,1
 .138231,-0.078985\H,0,-0.290294,-1.731048,0.140944\H,0,0.705602,-0.207
 082,-0.021859\\Version=ES64L-G09RevD.01\State=1-A\HF=-155.700495\MP2=-
 155.9262094\RMSD=2.948e-09\PG=C01 [X(C4H6)]\\@

 Normal termination of Gaussian 09 at Wed Aug 26 22:00:50 2020.
