 Gaussian 09, Revision D.01,
 Gaussian 09:  ES64L-G09RevD.01 24-Apr-2013

 --------------------
 #p B2PLYPD3/Def2QZVP
 --------------------

 ---------
 butadiene
 ---------
 Symbolic Z-matrix:
 Charge =  0 Multiplicity = 1

                         Standard orientation:
 ---------------------------------------------------------------------
 Center     Atomic      Atomic             Coordinates (Angstroms)
 Number     Number       Type             X           Y           Z
 ---------------------------------------------------------------------
      1          6           0        1.827922   -0.122792   -0.001724
      2          6           0        0.609004    0.415414    0.011470
      3          6           0       -0.601880   -0.389519    0.014427
      4          6           0       -1.832927    0.106499   -0.019279
      5          1           0        2.715884    0.497019   -0.062287
      6          1           0        1.946841   -1.213530   -0.067529
      7          1           0        0.514250    1.513325    0.093808
      8          1           0       -0.458867   -1.446656    0.059747
      9          1           0       -2.035609    1.152519   -0.070117
     10          1           0       -2.695213   -0.560286    0.017012
 ---------------------------------------------------------------------

 SCF Done:  E(RB2PLYPD3) =  -155.700171037     A.U. after   11 cycles
 E2(B2PLYPD3) =    -0.2255513118D+00 E(B2PLYPD3) =    -0.15592572234863D+03

 The electronic state is 1-A.
 Alpha  occ. eigenvalues --  -10.62622 -10.62205 -10.61628 -10.61251  -0.93097
 Alpha  occ. eigenvalues --   -0.85017  -0.69915  -0.64069  -0.54496  -0.54029
 Alpha  occ. eigenvalues --   -0.46631  -0.45485  -0.41157  -0.38153  -0.27776
 Alpha virt. eigenvalues --    0.01908   0.07026   0.07394   0.08009   0.09564
 Alpha virt. eigenvalues --    0.11722   0.12405   0.14731   0.15740   0.16183
 Alpha virt. eigenvalues --    0.18736   0.20228   0.21701   0.22838   0.23919

 Mulliken charges:
               1
     1  C   -0.174222
     2  C   -0.030846
     3  C   -0.030872
     4  C   -0.176368
     5  H    0.085717
     6  H    0.062351
     7  H    0.054656
     8  H    0.058077
     9  H    0.069732
    10  H    0.081775
 Sum of Mulliken charges =   0.00000

 Dipole moment (field-independent basis, Debye):
    X=              0.0060    Y=              0.0150    Z=             -0.0163  Tot=              0.0229
 Quadrupole moment (field-independent basis, Debye-Ang):
   XX=            -23.6329   YY=            -23.0341   ZZ=            -29.2298
   XY=             -0.0956   XZ=             -0.2085   YZ=             -0.0078

 1\1\GINC-NODE33\SP\RB2PLYPD3-FC\def2QZVP\C4H6\BOITTIER\26-Aug-2020\0\\
 #p B2PLYPD3/Def2QZVP\\butadiene\\0,1\C,0,-3.828182,0.233089,0.012869\C
 ,0,-2.72504,-0.513565,0.047326\C,0,-1.389797,0.06171,0.028638\C,0,-0.2
 67295,-0.647125,0.014914\H,0,-4.812759,-0.219689,-0.030848\H,0,-3.7504
 2,1.324846,-0.088128\H,0,-2.82782,-1.607529,0.164996\H,0,-1.341478,1.1
 28288,0.039701\H,0,-0.254932,-1.71361,-0.001819\H,0,0.700355,-0.144343
 ,0.032785\\Version=ES64L-G09RevD.01\State=1-A\HF=-155.700171\MP2=-155.
 9257223\RMSD=2.440e-09\PG=C01 [X(C4H6)]\\@

 Normal termination of Gaussian 09 at Wed Aug 26 21:06:17 2020.
