 Gaussian 09, Revision D.01,
 Gaussian 09:  ES64L-G09RevD.01 24-Apr-2013

 --------------------
 #p B2PLYPD3/Def2QZVP
 --------------------

 ---------
 butadiene
 ---------
 Symbolic Z-matrix:
 Charge =  0 Multiplicity = 1

                         Standard orientation:
 ---------------------------------------------------------------------
 Center     Atomic      Atomic             Coordinates (Angstroms)
 Number     Number       Type             X           Y           Z
 ---------------------------------------------------------------------
      1          6           0       -1.824739   -0.105310    0.009639
      2          6           0       -0.593531    0.418262   -0.014748
      3          6           0        0.593707   -0.382046   -0.059657
      4          6           0        1.826422    0.088438    0.039961
      5          1           0       -2.755131    0.459607    0.139079
      6          1           0       -1.964913   -1.184309    0.062070
      7          1           0       -0.383827    1.491620   -0.100948
      8          1           0        0.415590   -1.463195   -0.076755
      9          1           0        2.054965    1.186993    0.005064
     10          1           0        2.622159   -0.606784    0.120320
 ---------------------------------------------------------------------

 SCF Done:  E(RB2PLYPD3) =  -155.695603336     A.U. after   11 cycles
 E2(B2PLYPD3) =    -0.2261132198D+00 E(B2PLYPD3) =    -0.15592171655596D+03

 The electronic state is 1-A.
 Alpha  occ. eigenvalues --  -10.62617 -10.62142 -10.61892 -10.61520  -0.93454
 Alpha  occ. eigenvalues --   -0.84852  -0.70383  -0.63685  -0.55042  -0.53239
 Alpha  occ. eigenvalues --   -0.47044  -0.45194  -0.40986  -0.38262  -0.27652
 Alpha virt. eigenvalues --    0.01643   0.07047   0.07201   0.08113   0.09620
 Alpha virt. eigenvalues --    0.11666   0.12413   0.14705   0.15646   0.16172
 Alpha virt. eigenvalues --    0.18710   0.20176   0.21760   0.22811   0.23735

 Mulliken charges:
               1
     1  C   -0.170464
     2  C   -0.026501
     3  C   -0.020224
     4  C   -0.180302
     5  H    0.082775
     6  H    0.059620
     7  H    0.053992
     8  H    0.047967
     9  H    0.065255
    10  H    0.087882
 Sum of Mulliken charges =   0.00000

 Dipole moment (field-independent basis, Debye):
    X=              0.0020    Y=             -0.0331    Z=              0.0878  Tot=              0.0938
 Quadrupole moment (field-independent basis, Debye-Ang):
   XX=            -23.5713   YY=            -23.2304   ZZ=            -29.2103
   XY=              0.3521   XZ=             -0.1643   YZ=             -0.1451

 1\1\GINC-NODE16\SP\RB2PLYPD3-FC\def2QZVP\C4H6\BOITTIER\26-Aug-2020\0\\
 #p B2PLYPD3/Def2QZVP\\butadiene\\0,1\C,0,-3.824069,0.234153,0.001002\C
 ,0,-2.713775,-0.51095,0.052626\C,0,-1.396596,0.05195,0.067663\C,0,-0.2
 75336,-0.646681,-0.006878\H,0,-4.844945,-0.149943,-0.107618\H,0,-3.758
 21,1.316944,-0.098314\H,0,-2.710144,-1.599885,0.185704\H,0,-1.36729,1.
 147001,0.037574\H,0,-0.258185,-1.766097,0.076101\H,0,0.637003,-0.11833
 ,-0.113984\\Version=ES64L-G09RevD.01\State=1-A\HF=-155.6956033\MP2=-15
 5.9217166\RMSD=5.302e-09\PG=C01 [X(C4H6)]\\@

 Normal termination of Gaussian 09 at Wed Aug 26 09:54:52 2020.
