 Gaussian 09, Revision D.01,
 Gaussian 09:  ES64L-G09RevD.01 24-Apr-2013

 --------------------
 #p B2PLYPD3/Def2QZVP
 --------------------

 ---------
 butadiene
 ---------
 Symbolic Z-matrix:
 Charge =  0 Multiplicity = 1

                         Standard orientation:
 ---------------------------------------------------------------------
 Center     Atomic      Atomic             Coordinates (Angstroms)
 Number     Number       Type             X           Y           Z
 ---------------------------------------------------------------------
      1          6           0        1.844929   -0.100230   -0.021427
      2          6           0        0.585768    0.396342    0.022589
      3          6           0       -0.612530   -0.436046    0.008251
      4          6           0       -1.840831    0.111250   -0.022975
      5          1           0        2.676018    0.543941    0.022086
      6          1           0        2.016715   -1.128493   -0.029353
      7          1           0        0.453020    1.479927    0.083024
      8          1           0       -0.374950   -1.490188    0.002807
      9          1           0       -1.899453    1.234075   -0.112974
     10          1           0       -2.735362   -0.467163    0.115775
 ---------------------------------------------------------------------

 SCF Done:  E(RB2PLYPD3) =  -155.694476320     A.U. after   11 cycles
 E2(B2PLYPD3) =    -0.2264794136D+00 E(B2PLYPD3) =    -0.15592095573394D+03

 The electronic state is 1-A.
 Alpha  occ. eigenvalues --  -10.62817 -10.62708 -10.62236 -10.60926  -0.92798
 Alpha  occ. eigenvalues --   -0.84583  -0.70343  -0.64240  -0.54766  -0.53626
 Alpha  occ. eigenvalues --   -0.46698  -0.45881  -0.41475  -0.37731  -0.27366
 Alpha virt. eigenvalues --    0.01432   0.07028   0.07336   0.08185   0.09266
 Alpha virt. eigenvalues --    0.11741   0.12511   0.14624   0.15671   0.16185
 Alpha virt. eigenvalues --    0.18716   0.20306   0.21533   0.22885   0.24258

 Mulliken charges:
               1
     1  C   -0.188868
     2  C   -0.018705
     3  C   -0.039953
     4  C   -0.170560
     5  H    0.087511
     6  H    0.065992
     7  H    0.050379
     8  H    0.058334
     9  H    0.063697
    10  H    0.092173
 Sum of Mulliken charges =   0.00000

 Dipole moment (field-independent basis, Debye):
    X=              0.0078    Y=             -0.0379    Z=              0.1025  Tot=              0.1096
 Quadrupole moment (field-independent basis, Debye-Ang):
   XX=            -23.6288   YY=            -23.0916   ZZ=            -29.3371
   XY=             -0.1852   XZ=             -0.1254   YZ=             -0.0746

 1\1\GINC-NODE28\SP\RB2PLYPD3-FC\def2QZVP\C4H6\BOITTIER\26-Aug-2020\0\\
 #p B2PLYPD3/Def2QZVP\\butadiene\\0,1\C,0,-3.850595,0.219777,-0.00209\C
 ,0,-2.704193,-0.498658,0.058079\C,0,-1.373244,0.098419,0.025448\C,0,-0
 .266667,-0.666126,0.011627\H,0,-4.785915,-0.25916,0.055825\H,0,-3.8302
 9,1.261539,-0.037012\H,0,-2.772936,-1.586238,0.146816\H,0,-1.412843,1.
 177777,-0.007836\H,0,-0.415811,-1.782516,-0.049204\H,0,0.719303,-0.258
 759,0.13778\\Version=ES64L-G09RevD.01\State=1-A\HF=-155.6944763\MP2=-1
 55.9209557\RMSD=6.833e-09\PG=C01 [X(C4H6)]\\@

 Normal termination of Gaussian 09 at Wed Aug 26 11:01:08 2020.
