 Gaussian 09, Revision D.01,
 Gaussian 09:  ES64L-G09RevD.01 24-Apr-2013

 --------------------
 #p B2PLYPD3/Def2QZVP
 --------------------

 ---------
 butadiene
 ---------
 Symbolic Z-matrix:
 Charge =  0 Multiplicity = 1

                         Standard orientation:
 ---------------------------------------------------------------------
 Center     Atomic      Atomic             Coordinates (Angstroms)
 Number     Number       Type             X           Y           Z
 ---------------------------------------------------------------------
      1          6           0        1.853867    0.083180    0.028551
      2          6           0        0.594745   -0.350149   -0.070649
      3          6           0       -0.638391    0.409363   -0.112937
      4          6           0       -1.821688   -0.134445    0.058644
      5          1           0        2.813066   -0.527164    0.235117
      6          1           0        2.045636    1.122787    0.125230
      7          1           0        0.423834   -1.407711   -0.066928
      8          1           0       -0.581140    1.545577    0.001036
      9          1           0       -1.876110   -1.192185    0.041875
     10          1           0       -2.756479    0.411005    0.242017
 ---------------------------------------------------------------------

 SCF Done:  E(RB2PLYPD3) =  -155.686836391     A.U. after   11 cycles
 E2(B2PLYPD3) =    -0.2262156118D+00 E(B2PLYPD3) =    -0.15591305200269D+03

 The electronic state is 1-A.
 Alpha  occ. eigenvalues --  -10.62966 -10.62681 -10.62054 -10.61491  -0.93386
 Alpha  occ. eigenvalues --   -0.85207  -0.70123  -0.63876  -0.54888  -0.53537
 Alpha  occ. eigenvalues --   -0.47394  -0.44463  -0.40177  -0.38543  -0.28034
 Alpha virt. eigenvalues --    0.01646   0.06932   0.07460   0.07783   0.09634
 Alpha virt. eigenvalues --    0.11528   0.12697   0.14390   0.15557   0.16536
 Alpha virt. eigenvalues --    0.18969   0.19760   0.21823   0.22868   0.23526

 Mulliken charges:
               1
     1  C   -0.164864
     2  C   -0.032224
     3  C   -0.022294
     4  C   -0.162269
     5  H    0.077618
     6  H    0.060028
     7  H    0.051477
     8  H    0.044904
     9  H    0.060246
    10  H    0.087377
 Sum of Mulliken charges =   0.00000

 Dipole moment (field-independent basis, Debye):
    X=             -0.1728    Y=             -0.0152    Z=              0.3990  Tot=              0.4351
 Quadrupole moment (field-independent basis, Debye-Ang):
   XX=            -23.0412   YY=            -23.6897   ZZ=            -29.1051
   XY=              0.0851   XZ=              0.0952   YZ=              0.1932

 1\1\GINC-NODE31\SP\RB2PLYPD3-FC\def2QZVP\C4H6\BOITTIER\26-Aug-2020\0\\
 #p B2PLYPD3/Def2QZVP\\butadiene\\0,1\C,0,-3.865358,0.186352,-0.024647\
 C,0,-2.700164,-0.454939,0.093982\C,0,-1.353995,0.080451,0.115374\C,0,-
 0.283176,-0.66563,-0.033185\H,0,-4.916224,-0.255239,-0.214199\H,0,-3.8
 74289,1.239577,-0.157097\H,0,-2.715092,-1.525627,0.126615\H,0,-1.21374
 ,1.204875,-0.0371\H,0,-0.412819,-1.715618,0.019482\H,0,0.731609,-0.296
 907,-0.231251\\Version=ES64L-G09RevD.01\State=1-A\HF=-155.6868364\MP2=
 -155.913052\RMSD=5.272e-09\PG=C01 [X(C4H6)]\\@

 Normal termination of Gaussian 09 at Wed Aug 26 13:13:50 2020.
