 Gaussian 09, Revision D.01,
 Gaussian 09:  ES64L-G09RevD.01 24-Apr-2013

 --------------------
 #p B2PLYPD3/Def2QZVP
 --------------------

 ---------
 butadiene
 ---------
 Symbolic Z-matrix:
 Charge =  0 Multiplicity = 1

                         Standard orientation:
 ---------------------------------------------------------------------
 Center     Atomic      Atomic             Coordinates (Angstroms)
 Number     Number       Type             X           Y           Z
 ---------------------------------------------------------------------
      1          6           0        1.834769   -0.136383   -0.051143
      2          6           0        0.608155    0.417947    0.053795
      3          6           0       -0.611833   -0.362860    0.030844
      4          6           0       -1.840688    0.081691   -0.036056
      5          1           0        2.689726    0.510932   -0.058689
      6          1           0        1.993315   -1.228513    0.007168
      7          1           0        0.491605    1.510279    0.052647
      8          1           0       -0.468743   -1.400341    0.113252
      9          1           0       -1.969404    1.189045   -0.017972
     10          1           0       -2.678918   -0.583768   -0.081049
 ---------------------------------------------------------------------

 SCF Done:  E(RB2PLYPD3) =  -155.695882788     A.U. after   11 cycles
 E2(B2PLYPD3) =    -0.2256756402D+00 E(B2PLYPD3) =    -0.15592155842844D+03

 The electronic state is 1-A.
 Alpha  occ. eigenvalues --  -10.62886 -10.62002 -10.61474 -10.61215  -0.93247
 Alpha  occ. eigenvalues --   -0.85129  -0.70094  -0.63947  -0.54791  -0.53765
 Alpha  occ. eigenvalues --   -0.46910  -0.45391  -0.41107  -0.38088  -0.27835
 Alpha virt. eigenvalues --    0.01758   0.07014   0.07367   0.08072   0.09799
 Alpha virt. eigenvalues --    0.11728   0.12292   0.14665   0.15686   0.16203
 Alpha virt. eigenvalues --    0.18709   0.20039   0.21519   0.22763   0.24214

 Mulliken charges:
               1
     1  C   -0.173683
     2  C   -0.042629
     3  C   -0.011143
     4  C   -0.180666
     5  H    0.085702
     6  H    0.069896
     7  H    0.050613
     8  H    0.051097
     9  H    0.058005
    10  H    0.092808
 Sum of Mulliken charges =   0.00000

 Dipole moment (field-independent basis, Debye):
    X=              0.0471    Y=             -0.0484    Z=              0.0753  Tot=              0.1012
 Quadrupole moment (field-independent basis, Debye-Ang):
   XX=            -23.6859   YY=            -23.0763   ZZ=            -29.2190
   XY=              0.1097   XZ=              0.0681   YZ=             -0.0777

 1\1\GINC-NODE20\SP\RB2PLYPD3-FC\def2QZVP\C4H6\BOITTIER\26-Aug-2020\0\\
 #p B2PLYPD3/Def2QZVP\\butadiene\\0,1\C,0,-3.834012,0.245638,-0.031224\
 C,0,-2.725908,-0.5161,0.090163\C,0,-1.386047,0.032952,0.046901\C,0,-0.
 256785,-0.625911,-0.006508\H,0,-4.790977,-0.238257,-0.021767\H,0,-3.79
 4448,1.349692,-0.003195\H,0,-2.8066,-1.611279,0.119239\H,0,-1.340954,1
 .081151,0.10054\H,0,-0.328118,-1.737516,0.042219\H,0,0.68676,-0.122614
 ,-0.069\\Version=ES64L-G09RevD.01\State=1-A\HF=-155.6958828\MP2=-155.9
 215584\RMSD=7.382e-09\PG=C01 [X(C4H6)]\\@

 Normal termination of Gaussian 09 at Wed Aug 26 09:19:49 2020.
