 Gaussian 09, Revision D.01,
 Gaussian 09:  ES64L-G09RevD.01 24-Apr-2013

 --------------------
 #p B2PLYPD3/Def2QZVP
 --------------------

 ---------
 butadiene
 ---------
 Symbolic Z-matrix:
 Charge =  0 Multiplicity = 1

                         Standard orientation:
 ---------------------------------------------------------------------
 Center     Atomic      Atomic             Coordinates (Angstroms)
 Number     Number       Type             X           Y           Z
 ---------------------------------------------------------------------
      1          6           0       -1.852128    0.104922   -0.051241
      2          6           0       -0.606885   -0.397901    0.033366
      3          6           0        0.600573    0.415997    0.029526
      4          6           0        1.839176   -0.122771   -0.033444
      5          1           0       -2.667362   -0.559241   -0.016297
      6          1           0       -1.975945    1.156233   -0.002010
      7          1           0       -0.467453   -1.472047    0.154482
      8          1           0        0.465132    1.507759    0.088927
      9          1           0        2.100055   -1.183516   -0.087685
     10          1           0        2.661157    0.549326   -0.006657
 ---------------------------------------------------------------------

 SCF Done:  E(RB2PLYPD3) =  -155.696265571     A.U. after   11 cycles
 E2(B2PLYPD3) =    -0.2262434964D+00 E(B2PLYPD3) =    -0.15592250906768D+03

 The electronic state is 1-A.
 Alpha  occ. eigenvalues --  -10.63062 -10.62528 -10.61731 -10.60973  -0.92687
 Alpha  occ. eigenvalues --   -0.84750  -0.70464  -0.63896  -0.54792  -0.53772
 Alpha  occ. eigenvalues --   -0.46865  -0.45768  -0.41452  -0.37601  -0.27435
 Alpha virt. eigenvalues --    0.01480   0.07062   0.07353   0.08065   0.09420
 Alpha virt. eigenvalues --    0.11674   0.12361   0.14920   0.15777   0.16100
 Alpha virt. eigenvalues --    0.18800   0.20448   0.21561   0.22783   0.23953

 Mulliken charges:
               1
     1  C   -0.182622
     2  C   -0.026147
     3  C   -0.038620
     4  C   -0.177095
     5  H    0.089100
     6  H    0.068749
     7  H    0.055618
     8  H    0.055542
     9  H    0.073803
    10  H    0.081671
 Sum of Mulliken charges =   0.00000

 Dipole moment (field-independent basis, Debye):
    X=              0.0602    Y=             -0.0201    Z=              0.1622  Tot=              0.1741
 Quadrupole moment (field-independent basis, Debye-Ang):
   XX=            -23.7210   YY=            -22.9000   ZZ=            -29.3253
   XY=             -0.2610   XZ=             -0.2071   YZ=              0.0489

 1\1\GINC-NODE40\SP\RB2PLYPD3-FC\def2QZVP\C4H6\BOITTIER\26-Aug-2020\0\\
 #p B2PLYPD3/Def2QZVP\\butadiene\\0,1\C,0,-3.852259,0.224529,-0.026185\
 C,0,-2.719205,-0.494659,0.071676\C,0,-1.383607,0.084954,0.046653\C,0,-
 0.264326,-0.672152,-0.002072\H,0,-4.774764,-0.278657,0.02605\H,0,-3.78
 2059,1.2817,-0.0045\H,0,-2.77742,-1.572735,0.220878\H,0,-1.317411,1.18
 4266,0.077446\H,0,-0.201508,-1.763727,-0.028505\H,0,0.666548,-0.160809
 ,0.007196\\Version=ES64L-G09RevD.01\State=1-A\HF=-155.6962656\MP2=-155
 .9225091\RMSD=4.176e-09\PG=C01 [X(C4H6)]\\@

 Normal termination of Gaussian 09 at Wed Aug 26 11:14:47 2020.
