 Gaussian 09, Revision D.01,
 Gaussian 09:  ES64L-G09RevD.01 24-Apr-2013

 --------------------
 #p B2PLYPD3/Def2QZVP
 --------------------

 ---------
 butadiene
 ---------
 Symbolic Z-matrix:
 Charge =  0 Multiplicity = 1

                         Standard orientation:
 ---------------------------------------------------------------------
 Center     Atomic      Atomic             Coordinates (Angstroms)
 Number     Number       Type             X           Y           Z
 ---------------------------------------------------------------------
      1          6           0        1.844525   -0.112289    0.034187
      2          6           0        0.611763    0.400113   -0.023460
      3          6           0       -0.593001   -0.392370   -0.056109
      4          6           0       -1.855506    0.114043    0.016261
      5          1           0        2.691143    0.513926   -0.011440
      6          1           0        2.028009   -1.151664    0.128257
      7          1           0        0.503696    1.496893   -0.111503
      8          1           0       -0.452553   -1.452280   -0.057940
      9          1           0       -2.124941    1.114982    0.179526
     10          1           0       -2.692038   -0.578837    0.047822
 ---------------------------------------------------------------------

 SCF Done:  E(RB2PLYPD3) =  -155.696521062     A.U. after   11 cycles
 E2(B2PLYPD3) =    -0.2259983098D+00 E(B2PLYPD3) =    -0.15592251937171D+03

 The electronic state is 1-A.
 Alpha  occ. eigenvalues --  -10.62791 -10.62606 -10.61644 -10.61008  -0.92874
 Alpha  occ. eigenvalues --   -0.84737  -0.70990  -0.64296  -0.54854  -0.54108
 Alpha  occ. eigenvalues --   -0.46880  -0.45853  -0.41341  -0.37939  -0.27347
 Alpha virt. eigenvalues --    0.01211   0.06998   0.07573   0.08034   0.09551
 Alpha virt. eigenvalues --    0.11623   0.12486   0.15085   0.15830   0.16223
 Alpha virt. eigenvalues --    0.18904   0.20499   0.21888   0.22626   0.23508

 Mulliken charges:
               1
     1  C   -0.179095
     2  C   -0.024445
     3  C   -0.042236
     4  C   -0.174454
     5  H    0.086101
     6  H    0.066352
     7  H    0.055036
     8  H    0.061992
     9  H    0.074309
    10  H    0.076439
 Sum of Mulliken charges =   0.00000

 Dipole moment (field-independent basis, Debye):
    X=              0.0424    Y=             -0.0081    Z=              0.1249  Tot=              0.1322
 Quadrupole moment (field-independent basis, Debye-Ang):
   XX=            -23.3812   YY=            -23.1023   ZZ=            -29.2220
   XY=             -0.3599   XZ=             -0.3884   YZ=             -0.0551

 1\1\GINC-NODE26\SP\RB2PLYPD3-FC\def2QZVP\C4H6\BOITTIER\26-Aug-2020\0\\
 #p B2PLYPD3/Def2QZVP\\butadiene\\0,1\C,0,-3.844315,0.23275,0.050089\C,
 0,-2.725389,-0.49662,0.010046\C,0,-1.396471,0.062425,-0.034649\C,0,-0.
 247296,-0.663465,0.0553\H,0,-4.790752,-0.229831,0.014513\H,0,-3.835591
 ,1.290053,0.119736\H,0,-2.818724,-1.596491,-0.052644\H,0,-1.341627,1.1
 29865,-0.061132\H,0,-0.164681,-1.692675,0.242468\H,0,0.701368,-0.13384
 ,0.075257\\Version=ES64L-G09RevD.01\State=1-A\HF=-155.6965211\MP2=-155
 .9225194\RMSD=7.001e-09\PG=C01 [X(C4H6)]\\@

 Normal termination of Gaussian 09 at Wed Aug 26 22:17:35 2020.
