 Gaussian 09, Revision D.01,
 Gaussian 09:  ES64L-G09RevD.01 24-Apr-2013

 --------------------
 #p B2PLYPD3/Def2QZVP
 --------------------

 ---------
 butadiene
 ---------
 Symbolic Z-matrix:
 Charge =  0 Multiplicity = 1

                         Standard orientation:
 ---------------------------------------------------------------------
 Center     Atomic      Atomic             Coordinates (Angstroms)
 Number     Number       Type             X           Y           Z
 ---------------------------------------------------------------------
      1          6           0       -1.825698    0.110834   -0.010433
      2          6           0       -0.597608   -0.422805    0.006151
      3          6           0        0.594539    0.392689    0.003384
      4          6           0        1.830295   -0.101162    0.002317
      5          1           0       -2.736945   -0.482528   -0.015859
      6          1           0       -2.002971    1.200328   -0.009607
      7          1           0       -0.457305   -1.477559    0.064389
      8          1           0        0.458991    1.471815    0.034338
      9          1           0        2.052926   -1.151773   -0.064433
     10          1           0        2.676133    0.562386   -0.017351
 ---------------------------------------------------------------------

 SCF Done:  E(RB2PLYPD3) =  -155.700271287     A.U. after   11 cycles
 E2(B2PLYPD3) =    -0.2256576263D+00 E(B2PLYPD3) =    -0.15592592891311D+03

 The electronic state is 1-A.
 Alpha  occ. eigenvalues --  -10.62399 -10.62318 -10.61871 -10.61179  -0.93178
 Alpha  occ. eigenvalues --   -0.84786  -0.70196  -0.64337  -0.54735  -0.53889
 Alpha  occ. eigenvalues --   -0.46742  -0.45377  -0.41243  -0.38226  -0.27585
 Alpha virt. eigenvalues --    0.01752   0.07016   0.07404   0.08098   0.09533
 Alpha virt. eigenvalues --    0.11668   0.12463   0.14780   0.15883   0.16181
 Alpha virt. eigenvalues --    0.18762   0.20532   0.21790   0.22765   0.23763

 Mulliken charges:
               1
     1  C   -0.170111
     2  C   -0.038267
     3  C   -0.023794
     4  C   -0.178474
     5  H    0.081609
     6  H    0.062210
     7  H    0.062900
     8  H    0.055910
     9  H    0.066409
    10  H    0.081608
 Sum of Mulliken charges =   0.00000

 Dipole moment (field-independent basis, Debye):
    X=             -0.0243    Y=             -0.0132    Z=             -0.0051  Tot=              0.0281
 Quadrupole moment (field-independent basis, Debye-Ang):
   XX=            -23.4809   YY=            -23.0688   ZZ=            -29.2433
   XY=             -0.2978   XZ=             -0.1429   YZ=              0.0269

 1\1\GINC-NODE36\SP\RB2PLYPD3-FC\def2QZVP\C4H6\BOITTIER\26-Aug-2020\0\\
 #p B2PLYPD3/Def2QZVP\\butadiene\\0,1\C,0,-3.825758,0.232441,0.010086\C
 ,0,-2.7171,-0.517943,0.042529\C,0,-1.39502,0.063205,0.017521\C,0,-0.27
 157,-0.649996,0.031202\H,0,-4.830827,-0.182529,0.020816\H,0,-3.799036,
 1.335531,-0.019959\H,0,-2.77348,-1.578436,0.130609\H,0,-1.329064,1.149
 25,0.017912\H,0,-0.246842,-1.725091,-0.005719\H,0,0.682043,-0.154704,-
 0.006637\\Version=ES64L-G09RevD.01\State=1-A\HF=-155.7002713\MP2=-155.
 9259289\RMSD=3.763e-09\PG=C01 [X(C4H6)]\\@

 Normal termination of Gaussian 09 at Wed Aug 26 20:18:20 2020.
