 Gaussian 09, Revision D.01,
 Gaussian 09:  ES64L-G09RevD.01 24-Apr-2013

 --------------------
 #p B2PLYPD3/Def2QZVP
 --------------------

 ---------
 butadiene
 ---------
 Symbolic Z-matrix:
 Charge =  0 Multiplicity = 1

                         Standard orientation:
 ---------------------------------------------------------------------
 Center     Atomic      Atomic             Coordinates (Angstroms)
 Number     Number       Type             X           Y           Z
 ---------------------------------------------------------------------
      1          6           0        1.827865   -0.115519    0.022689
      2          6           0        0.595542    0.430574   -0.042566
      3          6           0       -0.599322   -0.416164   -0.012831
      4          6           0       -1.831221    0.092695    0.003019
      5          1           0        2.732894    0.501075    0.094347
      6          1           0        1.998230   -1.189909    0.033563
      7          1           0        0.514321    1.496888   -0.030192
      8          1           0       -0.413054   -1.485657   -0.096798
      9          1           0       -2.025035    1.200731    0.041701
     10          1           0       -2.764544   -0.472646    0.135510
 ---------------------------------------------------------------------

 SCF Done:  E(RB2PLYPD3) =  -155.695767351     A.U. after   11 cycles
 E2(B2PLYPD3) =    -0.2265057578D+00 E(B2PLYPD3) =    -0.15592227310864D+03

 The electronic state is 1-A.
 Alpha  occ. eigenvalues --  -10.62919 -10.62722 -10.62107 -10.61882  -0.92797
 Alpha  occ. eigenvalues --   -0.84446  -0.69607  -0.64373  -0.54572  -0.53312
 Alpha  occ. eigenvalues --   -0.46709  -0.44888  -0.41100  -0.37924  -0.27575
 Alpha virt. eigenvalues --    0.01753   0.07008   0.07281   0.08049   0.09111
 Alpha virt. eigenvalues --    0.11559   0.12519   0.14422   0.15645   0.16479
 Alpha virt. eigenvalues --    0.18807   0.20085   0.22080   0.22966   0.23343

 Mulliken charges:
               1
     1  C   -0.173839
     2  C   -0.034633
     3  C   -0.036759
     4  C   -0.162789
     5  H    0.079259
     6  H    0.063754
     7  H    0.065915
     8  H    0.064336
     9  H    0.055077
    10  H    0.079679
 Sum of Mulliken charges =   0.00000

 Dipole moment (field-independent basis, Debye):
    X=              0.0265    Y=              0.0082    Z=              0.1235  Tot=              0.1266
 Quadrupole moment (field-independent basis, Debye-Ang):
   XX=            -23.4799   YY=            -23.1297   ZZ=            -29.3710
   XY=             -0.3069   XZ=             -0.1044   YZ=              0.0899

 1\1\GINC-NODE31\SP\RB2PLYPD3-FC\def2QZVP\C4H6\BOITTIER\26-Aug-2020\0\\
 #p B2PLYPD3/Def2QZVP\\butadiene\\0,1\C,0,-3.828653,0.233619,0.040926\C
 ,0,-2.717587,-0.531141,-0.001123\C,0,-1.38763,0.082661,0.002182\C,0,-0
 .269869,-0.642566,0.039863\H,0,-4.831137,-0.203636,0.131664\H,0,-3.799
 097,1.32073,0.013118\H,0,-2.833213,-1.593147,0.049359\H,0,-1.374937,1.
 164513,-0.120282\H,0,-0.282369,-1.765273,0.118462\H,0,0.751748,-0.2536
 09,0.155051\\Version=ES64L-G09RevD.01\State=1-A\HF=-155.6957674\MP2=-1
 55.9222731\RMSD=5.913e-09\PG=C01 [X(C4H6)]\\@

 Normal termination of Gaussian 09 at Wed Aug 26 09:07:32 2020.
