 Gaussian 09, Revision D.01,
 Gaussian 09:  ES64L-G09RevD.01 24-Apr-2013

 --------------------
 #p B2PLYPD3/Def2QZVP
 --------------------

 ---------
 butadiene
 ---------
 Symbolic Z-matrix:
 Charge =  0 Multiplicity = 1

                         Standard orientation:
 ---------------------------------------------------------------------
 Center     Atomic      Atomic             Coordinates (Angstroms)
 Number     Number       Type             X           Y           Z
 ---------------------------------------------------------------------
      1          6           0        1.869035    0.098834    0.027498
      2          6           0        0.601883   -0.361311   -0.060480
      3          6           0       -0.635219    0.431231   -0.069367
      4          6           0       -1.823688   -0.151024    0.052660
      5          1           0        2.698776   -0.586260    0.034237
      6          1           0        2.187696    1.062894    0.085604
      7          1           0        0.430631   -1.424177    0.144751
      8          1           0       -0.631680    1.465632    0.015582
      9          1           0       -2.085956   -1.169458   -0.106381
     10          1           0       -2.671536    0.544985    0.124346
 ---------------------------------------------------------------------

 SCF Done:  E(RB2PLYPD3) =  -155.685903906     A.U. after   11 cycles
 E2(B2PLYPD3) =    -0.2257850300D+00 E(B2PLYPD3) =    -0.15591168893645D+03

 The electronic state is 1-A.
 Alpha  occ. eigenvalues --  -10.63024 -10.62159 -10.61423 -10.60955  -0.92787
 Alpha  occ. eigenvalues --   -0.85111  -0.70675  -0.64919  -0.55161  -0.53883
 Alpha  occ. eigenvalues --   -0.46874  -0.45767  -0.41107  -0.37553  -0.27664
 Alpha virt. eigenvalues --    0.01467   0.06982   0.07745   0.08010   0.09033
 Alpha virt. eigenvalues --    0.11630   0.12591   0.14921   0.15643   0.16314
 Alpha virt. eigenvalues --    0.18952   0.19645   0.22059   0.23195   0.23970

 Mulliken charges:
               1
     1  C   -0.176479
     2  C   -0.036626
     3  C   -0.045952
     4  C   -0.162071
     5  H    0.075670
     6  H    0.070010
     7  H    0.064618
     8  H    0.068064
     9  H    0.079023
    10  H    0.063743
 Sum of Mulliken charges =   0.00000

 Dipole moment (field-independent basis, Debye):
    X=             -0.0699    Y=              0.0767    Z=              0.1532  Tot=              0.1850
 Quadrupole moment (field-independent basis, Debye-Ang):
   XX=            -23.3306   YY=            -23.1161   ZZ=            -29.1195
   XY=              0.4888   XZ=              0.2574   YZ=              0.1234

 1\1\GINC-NODE19\SP\RB2PLYPD3-FC\def2QZVP\C4H6\BOITTIER\26-Aug-2020\0\\
 #p B2PLYPD3/Def2QZVP\\butadiene\\0,1\C,0,-3.873533,0.210743,-0.019721\
 C,0,-2.707983,-0.463952,0.087183\C,0,-1.349933,0.096621,0.078154\C,0,-
 0.283675,-0.690469,-0.021613\H,0,-4.811622,-0.316289,-0.00994\H,0,-4.0
 16233,1.213874,-0.107456\H,0,-2.728129,-1.54595,-0.086041\H,0,-1.17005
 8,1.112284,-0.037117\H,0,-0.206019,-1.7341,0.168365\H,0,0.674095,-0.15
 8234,-0.110027\\Version=ES64L-G09RevD.01\State=1-A\HF=-155.6859039\MP2
 =-155.9116889\RMSD=4.756e-09\PG=C01 [X(C4H6)]\\@

 Normal termination of Gaussian 09 at Wed Aug 26 11:33:21 2020.
