 Gaussian 09, Revision D.01,
 Gaussian 09:  ES64L-G09RevD.01 24-Apr-2013

 --------------------
 #p B2PLYPD3/Def2QZVP
 --------------------

 ---------
 butadiene
 ---------
 Symbolic Z-matrix:
 Charge =  0 Multiplicity = 1

                         Standard orientation:
 ---------------------------------------------------------------------
 Center     Atomic      Atomic             Coordinates (Angstroms)
 Number     Number       Type             X           Y           Z
 ---------------------------------------------------------------------
      1          6           0       -1.845445   -0.104092    0.027956
      2          6           0       -0.603040    0.387168   -0.032216
      3          6           0        0.608159   -0.417299   -0.008856
      4          6           0        1.840827    0.115821    0.016643
      5          1           0       -2.691470    0.561313   -0.035248
      6          1           0       -1.994116   -1.152270    0.061213
      7          1           0       -0.462613    1.461943   -0.032140
      8          1           0        0.435109   -1.483170   -0.066108
      9          1           0        1.953848    1.202957    0.072694
     10          1           0        2.756234   -0.480363   -0.021577
 ---------------------------------------------------------------------

 SCF Done:  E(RB2PLYPD3) =  -155.699790424     A.U. after   11 cycles
 E2(B2PLYPD3) =    -0.2259546670D+00 E(B2PLYPD3) =    -0.15592574509121D+03

 The electronic state is 1-A.
 Alpha  occ. eigenvalues --  -10.62689 -10.62388 -10.62015 -10.61212  -0.92957
 Alpha  occ. eigenvalues --   -0.84793  -0.70174  -0.64221  -0.54479  -0.53922
 Alpha  occ. eigenvalues --   -0.46772  -0.45770  -0.41197  -0.38011  -0.27610
 Alpha virt. eigenvalues --    0.01594   0.07007   0.07427   0.08089   0.09543
 Alpha virt. eigenvalues --    0.11711   0.12464   0.14683   0.15736   0.16147
 Alpha virt. eigenvalues --    0.18776   0.20310   0.21658   0.22824   0.23925

 Mulliken charges:
               1
     1  C   -0.182483
     2  C   -0.021450
     3  C   -0.035712
     4  C   -0.173860
     5  H    0.088418
     6  H    0.066745
     7  H    0.050943
     8  H    0.055034
     9  H    0.064683
    10  H    0.087684
 Sum of Mulliken charges =   0.00000

 Dipole moment (field-independent basis, Debye):
    X=              0.0228    Y=             -0.0046    Z=             -0.0461  Tot=              0.0517
 Quadrupole moment (field-independent basis, Debye-Ang):
   XX=            -23.5074   YY=            -23.1342   ZZ=            -29.2970
   XY=              0.1234   XZ=              0.0268   YZ=              0.0585

 1\1\GINC-NODE30\SP\RB2PLYPD3-FC\def2QZVP\C4H6\BOITTIER\26-Aug-2020\0\\
 #p B2PLYPD3/Def2QZVP\\butadiene\\0,1\C,0,-3.849252,0.217327,-0.007392\
 C,0,-2.715476,-0.488145,0.066023\C,0,-1.379267,0.084242,0.025603\C,0,-
 0.262848,-0.662631,0.014335\H,0,-4.801103,-0.283159,0.070134\H,0,-3.80
 6805,1.274079,-0.06535\H,0,-2.770916,-1.570342,0.091267\H,0,-1.357361,
 1.164889,0.057681\H,0,-0.347628,-1.753348,-0.016131\H,0,0.745068,-0.24
 0354,0.039922\\Version=ES64L-G09RevD.01\State=1-A\HF=-155.6997904\MP2=
 -155.9257451\RMSD=3.301e-09\PG=C01 [X(C4H6)]\\@

 Normal termination of Gaussian 09 at Wed Aug 26 19:50:52 2020.
