 Gaussian 09, Revision D.01,
 Gaussian 09:  ES64L-G09RevD.01 24-Apr-2013

 --------------------
 #p B2PLYPD3/Def2QZVP
 --------------------

 ---------
 butadiene
 ---------
 Symbolic Z-matrix:
 Charge =  0 Multiplicity = 1

                         Standard orientation:
 ---------------------------------------------------------------------
 Center     Atomic      Atomic             Coordinates (Angstroms)
 Number     Number       Type             X           Y           Z
 ---------------------------------------------------------------------
      1          6           0        1.830078   -0.129500    0.042825
      2          6           0        0.601666    0.435958   -0.020087
      3          6           0       -0.606224   -0.379068   -0.061509
      4          6           0       -1.840352    0.083294    0.026270
      5          1           0        2.767497    0.493899   -0.047553
      6          1           0        1.957930   -1.213183    0.093885
      7          1           0        0.460844    1.484152   -0.112099
      8          1           0       -0.368069   -1.438772   -0.029359
      9          1           0       -2.002869    1.170134    0.167377
     10          1           0       -2.726341   -0.560335    0.002755
 ---------------------------------------------------------------------

 SCF Done:  E(RB2PLYPD3) =  -155.695074053     A.U. after   11 cycles
 E2(B2PLYPD3) =    -0.2264131711D+00 E(B2PLYPD3) =    -0.15592148722439D+03

 The electronic state is 1-A.
 Alpha  occ. eigenvalues --  -10.62651 -10.62492 -10.62303 -10.61769  -0.93025
 Alpha  occ. eigenvalues --   -0.84556  -0.69739  -0.64292  -0.54328  -0.53282
 Alpha  occ. eigenvalues --   -0.47077  -0.45275  -0.40788  -0.37987  -0.27679
 Alpha virt. eigenvalues --    0.01611   0.06973   0.07319   0.08062   0.09389
 Alpha virt. eigenvalues --    0.11703   0.12351   0.14601   0.15469   0.16214
 Alpha virt. eigenvalues --    0.18735   0.20093   0.21589   0.22813   0.23597

 Mulliken charges:
               1
     1  C   -0.176445
     2  C   -0.036535
     3  C   -0.025373
     4  C   -0.173335
     5  H    0.080776
     6  H    0.066820
     7  H    0.062589
     8  H    0.052301
     9  H    0.060694
    10  H    0.088508
 Sum of Mulliken charges =   0.00000

 Dipole moment (field-independent basis, Debye):
    X=              0.0145    Y=             -0.0050    Z=              0.0110  Tot=              0.0189
 Quadrupole moment (field-independent basis, Debye-Ang):
   XX=            -23.5982   YY=            -23.2214   ZZ=            -29.3268
   XY=             -0.2478   XZ=             -0.3817   YZ=             -0.0799

 1\1\GINC-NODE17\SP\RB2PLYPD3-FC\def2QZVP\C4H6\BOITTIER\26-Aug-2020\0\\
 #p B2PLYPD3/Def2QZVP\\butadiene\\0,1\C,0,-3.829085,0.248291,0.056845\C
 ,0,-2.724557,-0.533132,0.011118\C,0,-1.388061,0.046611,-0.04043\C,0,-0
 .259265,-0.631461,0.062498\H,0,-4.864496,-0.195149,-0.025829\H,0,-3.75
 6894,1.337908,0.085911\H,0,-2.777464,-1.591063,-0.059528\H,0,-1.428674
 ,1.132416,-0.030339\H,0,-0.298187,-1.726616,0.225792\H,0,0.729416,-0.1
 61052,0.030652\\Version=ES64L-G09RevD.01\State=1-A\HF=-155.6950741\MP2
 =-155.9214872\RMSD=7.100e-09\PG=C01 [X(C4H6)]\\@

 Normal termination of Gaussian 09 at Wed Aug 26 09:07:52 2020.
