 Gaussian 09, Revision D.01,
 Gaussian 09:  ES64L-G09RevD.01 24-Apr-2013

 --------------------
 #p B2PLYPD3/Def2QZVP
 --------------------

 ---------
 butadiene
 ---------
 Symbolic Z-matrix:
 Charge =  0 Multiplicity = 1

                         Standard orientation:
 ---------------------------------------------------------------------
 Center     Atomic      Atomic             Coordinates (Angstroms)
 Number     Number       Type             X           Y           Z
 ---------------------------------------------------------------------
      1          6           0       -1.816984   -0.107786    0.086177
      2          6           0       -0.593240    0.377893   -0.077000
      3          6           0        0.576945   -0.445813   -0.068668
      4          6           0        1.839653    0.126048    0.039793
      5          1           0       -2.560774    0.697266   -0.044469
      6          1           0       -2.092400   -1.109008    0.034872
      7          1           0       -0.462713    1.493012    0.031932
      8          1           0        0.406091   -1.502537   -0.077259
      9          1           0        1.965435    1.158738   -0.000905
     10          1           0        2.706124   -0.439525    0.174018
 ---------------------------------------------------------------------

 SCF Done:  E(RB2PLYPD3) =  -155.683575795     A.U. after   12 cycles
 E2(B2PLYPD3) =    -0.2271160154D+00 E(B2PLYPD3) =    -0.15591069181085D+03

 The electronic state is 1-A.
 Alpha  occ. eigenvalues --  -10.63034 -10.62496 -10.61539 -10.60898  -0.93189
 Alpha  occ. eigenvalues --   -0.84536  -0.71042  -0.64242  -0.54855  -0.53946
 Alpha  occ. eigenvalues --   -0.46892  -0.45489  -0.41520  -0.37979  -0.27006
 Alpha virt. eigenvalues --    0.00981   0.06928   0.07429   0.08101   0.09129
 Alpha virt. eigenvalues --    0.11804   0.12533   0.15192   0.15338   0.16352
 Alpha virt. eigenvalues --    0.18769   0.19386   0.22148   0.23312   0.24279

 Mulliken charges:
               1
     1  C   -0.175562
     2  C   -0.008904
     3  C   -0.048356
     4  C   -0.180525
     5  H    0.069056
     6  H    0.071901
     7  H    0.051827
     8  H    0.061487
     9  H    0.072915
    10  H    0.086162
 Sum of Mulliken charges =   0.00000

 Dipole moment (field-independent basis, Debye):
    X=              0.0888    Y=             -0.0404    Z=             -0.0047  Tot=              0.0977
 Quadrupole moment (field-independent basis, Debye-Ang):
   XX=            -24.1172   YY=            -22.8080   ZZ=            -29.2807
   XY=              0.5003   XZ=              0.5920   YZ=             -0.0513

 1\1\GINC-NODE10\SP\RB2PLYPD3-FC\def2QZVP\C4H6\BOITTIER\26-Aug-2020\0\\
 #p B2PLYPD3/Def2QZVP\\butadiene\\0,1\C,0,-3.818872,0.225379,-0.060653\
 C,0,-2.70687,-0.477925,0.109275\C,0,-1.403059,0.111268,0.080632\C,0,-0
 .270731,-0.689395,-0.019331\H,0,-4.699561,-0.423059,0.088733\H,0,-3.90
 1303,1.261315,-0.029445\H,0,-2.788491,-1.599677,0.023216\H,0,-1.372658
 ,1.18124,0.067696\H,0,-0.340572,-1.726325,0.042504\H,0,0.685528,-0.299
 223,-0.167645\\Version=ES64L-G09RevD.01\State=1-A\HF=-155.6835758\MP2=
 -155.9106918\RMSD=3.400e-09\PG=C01 [X(C4H6)]\\@

 Normal termination of Gaussian 09 at Wed Aug 26 11:38:37 2020.
