 Gaussian 09, Revision D.01,
 Gaussian 09:  ES64L-G09RevD.01 24-Apr-2013

 --------------------
 #p B2PLYPD3/Def2QZVP
 --------------------

 ---------
 butadiene
 ---------
 Symbolic Z-matrix:
 Charge =  0 Multiplicity = 1

                         Standard orientation:
 ---------------------------------------------------------------------
 Center     Atomic      Atomic             Coordinates (Angstroms)
 Number     Number       Type             X           Y           Z
 ---------------------------------------------------------------------
      1          6           0        1.841713   -0.102080    0.013925
      2          6           0        0.605851    0.391993   -0.036047
      3          6           0       -0.606553   -0.408232   -0.026303
      4          6           0       -1.838161    0.115087    0.010287
      5          1           0        2.685641    0.535712    0.098420
      6          1           0        2.066996   -1.159304    0.006966
      7          1           0        0.444400    1.485277   -0.016959
      8          1           0       -0.496282   -1.492188    0.027924
      9          1           0       -2.023520    1.184600    0.060566
     10          1           0       -2.694333   -0.534706    0.051916
 ---------------------------------------------------------------------

 SCF Done:  E(RB2PLYPD3) =  -155.700229140     A.U. after   11 cycles
 E2(B2PLYPD3) =    -0.2257004601D+00 E(B2PLYPD3) =    -0.15592592959976D+03

 The electronic state is 1-A.
 Alpha  occ. eigenvalues --  -10.62715 -10.62593 -10.61542 -10.61249  -0.92908
 Alpha  occ. eigenvalues --   -0.84957  -0.70367  -0.63817  -0.54759  -0.53903
 Alpha  occ. eigenvalues --   -0.46683  -0.45697  -0.41003  -0.38110  -0.27674
 Alpha virt. eigenvalues --    0.01700   0.07026   0.07362   0.08067   0.09607
 Alpha virt. eigenvalues --    0.11641   0.12415   0.14826   0.15851   0.16155
 Alpha virt. eigenvalues --    0.18828   0.20432   0.21813   0.22862   0.23647

 Mulliken charges:
               1
     1  C   -0.174875
     2  C   -0.028510
     3  C   -0.030972
     4  C   -0.175667
     5  H    0.085080
     6  H    0.066453
     7  H    0.051845
     8  H    0.055367
     9  H    0.066855
    10  H    0.084424
 Sum of Mulliken charges =   0.00000

 Dipole moment (field-independent basis, Debye):
    X=              0.0044    Y=             -0.0179    Z=              0.1664  Tot=              0.1674
 Quadrupole moment (field-independent basis, Debye-Ang):
   XX=            -23.4430   YY=            -23.0779   ZZ=            -29.2599
   XY=             -0.2773   XZ=              0.0098   YZ=              0.0475

 1\1\GINC-NODE36\SP\RB2PLYPD3-FC\def2QZVP\C4H6\BOITTIER\26-Aug-2020\0\\
 #p B2PLYPD3/Def2QZVP\\butadiene\\0,1\C,0,-3.84418,0.221021,0.036322\C,
 0,-2.719169,-0.491225,0.004453\C,0,-1.381277,0.074677,-0.008918\C,0,-0
 .265437,-0.6628,0.046652\H,0,-4.789811,-0.249387,0.139428\H,0,-3.87318
 3,1.300837,-0.004672\H,0,-2.75945,-1.594469,0.058593\H,0,-1.292085,1.1
 61749,0.010614\H,0,-0.277759,-1.746052,0.131258\H,0,0.694911,-0.178842
 ,0.069248\\Version=ES64L-G09RevD.01\State=1-A\HF=-155.7002291\MP2=-155
 .9259296\RMSD=4.224e-09\PG=C01 [X(C4H6)]\\@

 Normal termination of Gaussian 09 at Wed Aug 26 16:00:12 2020.
