 Gaussian 09, Revision D.01,
 Gaussian 09:  ES64L-G09RevD.01 24-Apr-2013

 --------------------
 #p B2PLYPD3/Def2QZVP
 --------------------

 ---------
 butadiene
 ---------
 Symbolic Z-matrix:
 Charge =  0 Multiplicity = 1

                         Standard orientation:
 ---------------------------------------------------------------------
 Center     Atomic      Atomic             Coordinates (Angstroms)
 Number     Number       Type             X           Y           Z
 ---------------------------------------------------------------------
      1          6           0       -1.869087    0.084968    0.035067
      2          6           0       -0.616069   -0.361106   -0.039978
      3          6           0        0.612194    0.439744   -0.068826
      4          6           0        1.850283   -0.153557    0.065552
      5          1           0       -2.732685   -0.592432   -0.051589
      6          1           0       -1.977662    1.119260    0.243922
      7          1           0       -0.377421   -1.366924   -0.167884
      8          1           0        0.594667    1.599213   -0.071216
      9          1           0        1.869967   -1.232716    0.195198
     10          1           0        2.759201    0.413305   -0.099325
 ---------------------------------------------------------------------

 SCF Done:  E(RB2PLYPD3) =  -155.686292264     A.U. after   11 cycles
 E2(B2PLYPD3) =    -0.2273847597D+00 E(B2PLYPD3) =    -0.15591367702391D+03

 The electronic state is 1-A.
 Alpha  occ. eigenvalues --  -10.63999 -10.62360 -10.62226 -10.61556  -0.92592
 Alpha  occ. eigenvalues --   -0.84503  -0.70128  -0.63754  -0.54093  -0.53864
 Alpha  occ. eigenvalues --   -0.46698  -0.45508  -0.41295  -0.37411  -0.27429
 Alpha virt. eigenvalues --    0.01036   0.07027   0.07427   0.07883   0.09326
 Alpha virt. eigenvalues --    0.11687   0.12318   0.14474   0.15422   0.16227
 Alpha virt. eigenvalues --    0.18889   0.19685   0.21110   0.22623   0.23858

 Mulliken charges:
               1
     1  C   -0.186108
     2  C   -0.023308
     3  C   -0.042446
     4  C   -0.178807
     5  H    0.092705
     6  H    0.074579
     7  H    0.059772
     8  H    0.047301
     9  H    0.063166
    10  H    0.093144
 Sum of Mulliken charges =   0.00000

 Dipole moment (field-independent basis, Debye):
    X=              0.0421    Y=             -0.0428    Z=             -0.0165  Tot=              0.0623
 Quadrupole moment (field-independent basis, Debye-Ang):
   XX=            -23.5841   YY=            -23.2826   ZZ=            -29.3618
   XY=              0.1583   XZ=             -0.2328   YZ=              0.1608

 1\1\GINC-NODE21\SP\RB2PLYPD3-FC\def2QZVP\C4H6\BOITTIER\26-Aug-2020\0\\
 #p B2PLYPD3/Def2QZVP\\butadiene\\0,1\C,0,-3.875957,0.191821,0.058955\C
 ,0,-2.71921,-0.465906,-0.004286\C,0,-1.371335,0.109628,-0.057356\C,0,-
 0.253478,-0.684548,0.093005\H,0,-4.844016,-0.32842,-0.007323\H,0,-3.80
 3139,1.234813,0.237935\H,0,-2.658521,-1.501038,-0.10329\H,0,-1.188469,
 1.25416,-0.093231\H,0,-0.41961,-1.74678,0.25376\H,0,0.738663,-0.288085
 ,-0.088992\\Version=ES64L-G09RevD.01\State=1-A\HF=-155.6862923\MP2=-15
 5.913677\RMSD=9.824e-09\PG=C01 [X(C4H6)]\\@

 Normal termination of Gaussian 09 at Wed Aug 26 12:11:29 2020.
