 Gaussian 09, Revision D.01,
 Gaussian 09:  ES64L-G09RevD.01 24-Apr-2013

 --------------------
 #p B2PLYPD3/Def2QZVP
 --------------------

 ---------
 butadiene
 ---------
 Symbolic Z-matrix:
 Charge =  0 Multiplicity = 1

                         Standard orientation:
 ---------------------------------------------------------------------
 Center     Atomic      Atomic             Coordinates (Angstroms)
 Number     Number       Type             X           Y           Z
 ---------------------------------------------------------------------
      1          6           0        1.827463   -0.093637   -0.025787
      2          6           0        0.599548    0.387410    0.005956
      3          6           0       -0.607596   -0.429551    0.033570
      4          6           0       -1.828924    0.120791   -0.014645
      5          1           0        2.745826    0.492886    0.004087
      6          1           0        2.005668   -1.163310   -0.075606
      7          1           0        0.502803    1.472978    0.164593
      8          1           0       -0.522449   -1.493193    0.067968
      9          1           0       -1.939275    1.239514   -0.137495
     10          1           0       -2.735515   -0.458958   -0.018107
 ---------------------------------------------------------------------

 SCF Done:  E(RB2PLYPD3) =  -155.697058281     A.U. after   11 cycles
 E2(B2PLYPD3) =    -0.2258208054D+00 E(B2PLYPD3) =    -0.15592287908629D+03

 The electronic state is 1-A.
 Alpha  occ. eigenvalues --  -10.62622 -10.62488 -10.62026 -10.61277  -0.93037
 Alpha  occ. eigenvalues --   -0.84943  -0.69686  -0.64046  -0.54887  -0.53651
 Alpha  occ. eigenvalues --   -0.46825  -0.44678  -0.41119  -0.38076  -0.27832
 Alpha virt. eigenvalues --    0.01933   0.07067   0.07375   0.07947   0.09418
 Alpha virt. eigenvalues --    0.11576   0.12541   0.14413   0.15644   0.16524
 Alpha virt. eigenvalues --    0.18804   0.20118   0.21769   0.22695   0.23682

 Mulliken charges:
               1
     1  C   -0.171465
     2  C   -0.023026
     3  C   -0.046546
     4  C   -0.166011
     5  H    0.082721
     6  H    0.056682
     7  H    0.058457
     8  H    0.062777
     9  H    0.060218
    10  H    0.086191
 Sum of Mulliken charges =   0.00000

 Dipole moment (field-independent basis, Debye):
    X=              0.0015    Y=             -0.0651    Z=              0.0323  Tot=              0.0727
 Quadrupole moment (field-independent basis, Debye-Ang):
   XX=            -23.3261   YY=            -23.2328   ZZ=            -29.2378
   XY=              0.0361   XZ=              0.2579   YZ=              0.0552

 1\1\GINC-NODE39\SP\RB2PLYPD3-FC\def2QZVP\C4H6\BOITTIER\26-Aug-2020\0\\
 #p B2PLYPD3/Def2QZVP\\butadiene\\0,1\C,0,-3.835515,0.200339,-0.002765\
 C,0,-2.712598,-0.490348,0.04412\C,0,-1.379233,0.099161,0.045381\C,0,-0
 .275595,-0.661021,0.014565\H,0,-4.843378,-0.212122,0.046013\H,0,-3.820
 875,1.282548,-0.086727\H,0,-2.809586,-1.57027,0.237367\H,0,-1.2736,1.1
 61521,0.045769\H,0,-0.366745,-1.784821,-0.072473\H,0,0.719634,-0.25229
 7,-0.007595\\Version=ES64L-G09RevD.01\State=1-A\HF=-155.6970583\MP2=-1
 55.9228791\RMSD=6.516e-09\PG=C01 [X(C4H6)]\\@

 Normal termination of Gaussian 09 at Wed Aug 26 11:11:02 2020.
