 Gaussian 09, Revision D.01,
 Gaussian 09:  ES64L-G09RevD.01 24-Apr-2013

 --------------------
 #p B2PLYPD3/Def2QZVP
 --------------------

 ---------
 butadiene
 ---------
 Symbolic Z-matrix:
 Charge =  0 Multiplicity = 1

                         Standard orientation:
 ---------------------------------------------------------------------
 Center     Atomic      Atomic             Coordinates (Angstroms)
 Number     Number       Type             X           Y           Z
 ---------------------------------------------------------------------
      1          6           0        1.869150    0.076027    0.098524
      2          6           0        0.613694   -0.337189   -0.132918
      3          6           0       -0.605183    0.412543   -0.038922
      4          6           0       -1.825405   -0.136022    0.044556
      5          1           0        2.658319   -0.641409    0.173505
      6          1           0        2.166239    1.096131   -0.058113
      7          1           0        0.330609   -1.434066   -0.070375
      8          1           0       -0.546864    1.519258   -0.111499
      9          1           0       -2.142018   -1.135656    0.035425
     10          1           0       -2.779819    0.503593    0.203618
 ---------------------------------------------------------------------

 SCF Done:  E(RB2PLYPD3) =  -155.680831607     A.U. after   11 cycles
 E2(B2PLYPD3) =    -0.2273103855D+00 E(B2PLYPD3) =    -0.15590814199294D+03

 The electronic state is 1-A.
 Alpha  occ. eigenvalues --  -10.63178 -10.63113 -10.62353 -10.61717  -0.93063
 Alpha  occ. eigenvalues --   -0.84774  -0.71042  -0.63609  -0.55005  -0.53336
 Alpha  occ. eigenvalues --   -0.47489  -0.44373  -0.40231  -0.37948  -0.27652
 Alpha virt. eigenvalues --    0.00940   0.06864   0.07441   0.07809   0.09405
 Alpha virt. eigenvalues --    0.11388   0.12378   0.14916   0.15467   0.16551
 Alpha virt. eigenvalues --    0.18857   0.19337   0.21495   0.23119   0.23687

 Mulliken charges:
               1
     1  C   -0.166960
     2  C   -0.037416
     3  C   -0.016984
     4  C   -0.168894
     5  H    0.082634
     6  H    0.073511
     7  H    0.044794
     8  H    0.056225
     9  H    0.070226
    10  H    0.062864
 Sum of Mulliken charges =   0.00000

 Dipole moment (field-independent basis, Debye):
    X=             -0.0600    Y=             -0.0325    Z=              0.0082  Tot=              0.0687
 Quadrupole moment (field-independent basis, Debye-Ang):
   XX=            -23.0758   YY=            -23.5777   ZZ=            -29.2570
   XY=              0.7229   XZ=             -0.1938   YZ=             -0.2716

 1\1\GINC-NODE37\SP\RB2PLYPD3-FC\def2QZVP\C4H6\BOITTIER\26-Aug-2020\0\\
 #p B2PLYPD3/Def2QZVP\\butadiene\\0,1\C,0,-3.869651,0.203358,-0.075198\
 C,0,-2.71209,-0.435181,0.154591\C,0,-1.375693,0.076563,0.061017\C,0,-0
 .277897,-0.687894,-0.024326\H,0,-4.77784,-0.35574,-0.150861\H,0,-3.973
 044,1.2605,0.083455\H,0,-2.63661,-1.565361,0.089906\H,0,-1.228456,1.17
 4856,0.135587\H,0,-0.151468,-1.728836,-0.01719\H,0,0.778216,-0.235376,
 -0.182965\\Version=ES64L-G09RevD.01\State=1-A\HF=-155.6808316\MP2=-155
 .908142\RMSD=8.082e-09\PG=C01 [X(C4H6)]\\@

 Normal termination of Gaussian 09 at Wed Aug 26 12:52:09 2020.
