 Gaussian 09, Revision D.01,
 Gaussian 09:  ES64L-G09RevD.01 24-Apr-2013

 --------------------
 #p B2PLYPD3/Def2QZVP
 --------------------

 ---------
 butadiene
 ---------
 Symbolic Z-matrix:
 Charge =  0 Multiplicity = 1

                         Standard orientation:
 ---------------------------------------------------------------------
 Center     Atomic      Atomic             Coordinates (Angstroms)
 Number     Number       Type             X           Y           Z
 ---------------------------------------------------------------------
      1          6           0        1.827965    0.097511    0.020545
      2          6           0        0.596913   -0.389290   -0.021290
      3          6           0       -0.595156    0.421185   -0.021338
      4          6           0       -1.831743   -0.117603    0.027519
      5          1           0        2.663723   -0.571522   -0.007768
      6          1           0        2.039879    1.181980    0.059784
      7          1           0        0.467493   -1.469388   -0.066123
      8          1           0       -0.455734    1.484828   -0.040819
      9          1           0       -1.979812   -1.191885    0.065860
     10          1           0       -2.723418    0.495167   -0.043547
 ---------------------------------------------------------------------

 SCF Done:  E(RB2PLYPD3) =  -155.700097420     A.U. after   11 cycles
 E2(B2PLYPD3) =    -0.2258384161D+00 E(B2PLYPD3) =    -0.15592593583592D+03

 The electronic state is 1-A.
 Alpha  occ. eigenvalues --  -10.62529 -10.62185 -10.61774 -10.61370  -0.93177
 Alpha  occ. eigenvalues --   -0.84769  -0.70165  -0.64119  -0.54570  -0.53914
 Alpha  occ. eigenvalues --   -0.46547  -0.45560  -0.41341  -0.38202  -0.27532
 Alpha virt. eigenvalues --    0.01672   0.07030   0.07362   0.08070   0.09616
 Alpha virt. eigenvalues --    0.11707   0.12372   0.14778   0.15881   0.16110
 Alpha virt. eigenvalues --    0.18761   0.20475   0.21566   0.22662   0.23964

 Mulliken charges:
               1
     1  C   -0.178033
     2  C   -0.021850
     3  C   -0.037529
     4  C   -0.174900
     5  H    0.084986
     6  H    0.063880
     7  H    0.052897
     8  H    0.060003
     9  H    0.066369
    10  H    0.084177
 Sum of Mulliken charges =   0.00000

 Dipole moment (field-independent basis, Debye):
    X=             -0.0014    Y=             -0.0063    Z=             -0.0589  Tot=              0.0592
 Quadrupole moment (field-independent basis, Debye-Ang):
   XX=            -23.6401   YY=            -23.0061   ZZ=            -29.2709
   XY=              0.1855   XZ=              0.0906   YZ=             -0.0045

 1\1\GINC-NODE13\SP\RB2PLYPD3-FC\def2QZVP\C4H6\BOITTIER\26-Aug-2020\0\\
 #p B2PLYPD3/Def2QZVP\\butadiene\\0,1\C,0,-3.831685,0.214762,-0.00226\C
 ,0,-2.710786,-0.488306,0.056856\C,0,-1.390215,0.089255,0.036517\C,0,-0
 .273667,-0.668536,0.006499\H,0,-4.775961,-0.288399,0.043255\H,0,-3.841
 059,1.318104,-0.073451\H,0,-2.781687,-1.57205,0.133298\H,0,-1.331988,1
 .160528,0.024812\H,0,-0.325399,-1.752397,-0.000318\H,0,0.715523,-0.228
 045,0.062096\\Version=ES64L-G09RevD.01\State=1-A\HF=-155.7000974\MP2=-
 155.9259358\RMSD=6.272e-09\PG=C01 [X(C4H6)]\\@

 Normal termination of Gaussian 09 at Wed Aug 26 16:29:48 2020.
