 Gaussian 09, Revision D.01,
 Gaussian 09:  ES64L-G09RevD.01 24-Apr-2013

 --------------------
 #p B2PLYPD3/Def2QZVP
 --------------------

 ---------
 butadiene
 ---------
 Symbolic Z-matrix:
 Charge =  0 Multiplicity = 1

                         Standard orientation:
 ---------------------------------------------------------------------
 Center     Atomic      Atomic             Coordinates (Angstroms)
 Number     Number       Type             X           Y           Z
 ---------------------------------------------------------------------
      1          6           0        1.862694    0.088804    0.022518
      2          6           0        0.609022   -0.363539    0.003367
      3          6           0       -0.621937    0.409137   -0.030262
      4          6           0       -1.842479   -0.133535   -0.000346
      5          1           0        2.771968   -0.510992   -0.085307
      6          1           0        1.993649    1.156122    0.083184
      7          1           0        0.505636   -1.455590   -0.097527
      8          1           0       -0.540998    1.528813   -0.011492
      9          1           0       -1.996950   -1.215510    0.154273
     10          1           0       -2.777108    0.491954   -0.014793
 ---------------------------------------------------------------------

 SCF Done:  E(RB2PLYPD3) =  -155.694566256     A.U. after   11 cycles
 E2(B2PLYPD3) =    -0.2265178087D+00 E(B2PLYPD3) =    -0.15592108406454D+03

 The electronic state is 1-A.
 Alpha  occ. eigenvalues --  -10.63292 -10.62722 -10.62458 -10.61592  -0.92828
 Alpha  occ. eigenvalues --   -0.84925  -0.69832  -0.63391  -0.54392  -0.53675
 Alpha  occ. eigenvalues --   -0.47046  -0.44564  -0.40558  -0.38129  -0.27845
 Alpha virt. eigenvalues --    0.01490   0.06942   0.07366   0.07789   0.09640
 Alpha virt. eigenvalues --    0.11543   0.12436   0.14423   0.15728   0.16322
 Alpha virt. eigenvalues --    0.18898   0.20266   0.21486   0.22402   0.23509

 Mulliken charges:
               1
     1  C   -0.174307
     2  C   -0.020924
     3  C   -0.038522
     4  C   -0.164772
     5  H    0.091001
     6  H    0.057422
     7  H    0.049286
     8  H    0.051014
     9  H    0.067622
    10  H    0.082180
 Sum of Mulliken charges =   0.00000

 Dipole moment (field-independent basis, Debye):
    X=             -0.0405    Y=              0.0061    Z=              0.0150  Tot=              0.0436
 Quadrupole moment (field-independent basis, Debye-Ang):
   XX=            -23.1553   YY=            -23.4253   ZZ=            -29.3474
   XY=             -0.0764   XZ=             -0.4617   YZ=              0.0677

 1\1\GINC-NODE29\SP\RB2PLYPD3-FC\def2QZVP\C4H6\BOITTIER\26-Aug-2020\0\\
 #p B2PLYPD3/Def2QZVP\\butadiene\\0,1\C,0,-3.870966,0.194421,0.002393\C
 ,0,-2.714409,-0.467402,0.034625\C,0,-1.368068,0.081009,0.040211\C,0,-0
 .260142,-0.665598,0.026494\H,0,-4.869505,-0.234911,0.131832\H,0,-3.815
 646,1.265715,-0.093874\H,0,-2.800861,-1.556946,0.171974\H,0,-1.254113,
 1.196549,-0.016026\H,0,-0.296447,-1.762453,-0.091949\H,0,0.768729,-0.2
 11358,0.018352\\Version=ES64L-G09RevD.01\State=1-A\HF=-155.6945663\MP2
 =-155.9210841\RMSD=5.032e-09\PG=C01 [X(C4H6)]\\@

 Normal termination of Gaussian 09 at Wed Aug 26 10:40:41 2020.
