 Gaussian 09, Revision D.01,
 Gaussian 09:  ES64L-G09RevD.01 24-Apr-2013

 --------------------
 #p B2PLYPD3/Def2QZVP
 --------------------

 ---------
 butadiene
 ---------
 Symbolic Z-matrix:
 Charge =  0 Multiplicity = 1

                         Standard orientation:
 ---------------------------------------------------------------------
 Center     Atomic      Atomic             Coordinates (Angstroms)
 Number     Number       Type             X           Y           Z
 ---------------------------------------------------------------------
      1          6           0       -1.839398   -0.121914    0.017472
      2          6           0       -0.611216    0.400313   -0.023431
      3          6           0        0.607935   -0.388041   -0.004582
      4          6           0        1.842319    0.113937    0.001953
      5          1           0       -2.716009    0.542352    0.011383
      6          1           0       -1.960813   -1.202763    0.060517
      7          1           0       -0.521465    1.508023   -0.061368
      8          1           0        0.481987   -1.477730   -0.078022
      9          1           0        2.047905    1.159760    0.097380
     10          1           0        2.670552   -0.555414    0.021636
 ---------------------------------------------------------------------

 SCF Done:  E(RB2PLYPD3) =  -155.699362814     A.U. after   11 cycles
 E2(B2PLYPD3) =    -0.2258667806D+00 E(B2PLYPD3) =    -0.15592522959440D+03

 The electronic state is 1-A.
 Alpha  occ. eigenvalues --  -10.62703 -10.62626 -10.61757 -10.61151  -0.92935
 Alpha  occ. eigenvalues --   -0.85051  -0.70048  -0.63583  -0.54380  -0.54132
 Alpha  occ. eigenvalues --   -0.46355  -0.45673  -0.41059  -0.38124  -0.27747
 Alpha virt. eigenvalues --    0.01744   0.07010   0.07341   0.07946   0.09655
 Alpha virt. eigenvalues --    0.11701   0.12314   0.14777   0.15783   0.16066
 Alpha virt. eigenvalues --    0.18709   0.20331   0.21545   0.22665   0.23999

 Mulliken charges:
               1
     1  C   -0.177243
     2  C   -0.026853
     3  C   -0.029810
     4  C   -0.176985
     5  H    0.088048
     6  H    0.066869
     7  H    0.049428
     8  H    0.051528
     9  H    0.070695
    10  H    0.084323
 Sum of Mulliken charges =   0.00000

 Dipole moment (field-independent basis, Debye):
    X=              0.0119    Y=              0.0108    Z=              0.0400  Tot=              0.0431
 Quadrupole moment (field-independent basis, Debye-Ang):
   XX=            -23.6533   YY=            -23.0175   ZZ=            -29.2886
   XY=              0.0237   XZ=              0.1039   YZ=              0.0680

 1\1\GINC-NODE38\SP\RB2PLYPD3-FC\def2QZVP\C4H6\BOITTIER\26-Aug-2020\0\\
 #p B2PLYPD3/Def2QZVP\\butadiene\\0,1\C,0,-3.840893,0.230088,0.002447\C
 ,0,-2.724233,-0.499904,0.0573\C,0,-1.384994,0.059735,0.019489\C,0,-0.2
 58829,-0.652608,0.026414\H,0,-4.821101,-0.268344,0.02462\H,0,-3.769477
 ,1.313966,-0.06782\H,0,-2.831582,-1.604739,0.123114\H,0,-1.316038,1.15
 6007,0.065445\H,0,-0.24173,-1.720347,-0.042569\H,0,0.674611,-0.140956,
 -0.009509\\Version=ES64L-G09RevD.01\State=1-A\HF=-155.6993628\MP2=-155
 .9252296\RMSD=3.016e-09\PG=C01 [X(C4H6)]\\@

 Normal termination of Gaussian 09 at Wed Aug 26 19:46:05 2020.
