 Gaussian 09, Revision D.01,
 Gaussian 09:  ES64L-G09RevD.01 24-Apr-2013

 --------------------
 #p B2PLYPD3/Def2QZVP
 --------------------

 ---------
 butadiene
 ---------
 Symbolic Z-matrix:
 Charge =  0 Multiplicity = 1

                         Standard orientation:
 ---------------------------------------------------------------------
 Center     Atomic      Atomic             Coordinates (Angstroms)
 Number     Number       Type             X           Y           Z
 ---------------------------------------------------------------------
      1          6           0        1.841546    0.119984    0.010814
      2          6           0        0.614181   -0.411401   -0.024948
      3          6           0       -0.602673    0.386327   -0.016893
      4          6           0       -1.837676   -0.108354    0.000004
      5          1           0        2.729740   -0.506418    0.073159
      6          1           0        1.984739    1.203178   -0.014242
      7          1           0        0.489199   -1.485351   -0.012460
      8          1           0       -0.519823    1.471010    0.038402
      9          1           0       -2.060566   -1.153979    0.062680
     10          1           0       -2.715562    0.552222    0.038597
 ---------------------------------------------------------------------

 SCF Done:  E(RB2PLYPD3) =  -155.700133460     A.U. after   11 cycles
 E2(B2PLYPD3) =    -0.2257464423D+00 E(B2PLYPD3) =    -0.15592587990253D+03

 The electronic state is 1-A.
 Alpha  occ. eigenvalues --  -10.62645 -10.62487 -10.61803 -10.61421  -0.92936
 Alpha  occ. eigenvalues --   -0.84928  -0.69972  -0.64100  -0.54527  -0.53926
 Alpha  occ. eigenvalues --   -0.46555  -0.45458  -0.41100  -0.38109  -0.27723
 Alpha virt. eigenvalues --    0.01749   0.06971   0.07453   0.07972   0.09592
 Alpha virt. eigenvalues --    0.11651   0.12404   0.14681   0.15868   0.16191
 Alpha virt. eigenvalues --    0.18825   0.20450   0.21621   0.22641   0.23888

 Mulliken charges:
               1
     1  C   -0.172211
     2  C   -0.038618
     3  C   -0.025721
     4  C   -0.173761
     5  H    0.085791
     6  H    0.067653
     7  H    0.058819
     8  H    0.054435
     9  H    0.065046
    10  H    0.078566
 Sum of Mulliken charges =   0.00000

 Dipole moment (field-independent basis, Debye):
    X=              0.0107    Y=             -0.0218    Z=              0.1415  Tot=              0.1435
 Quadrupole moment (field-independent basis, Debye-Ang):
   XX=            -23.4691   YY=            -23.0910   ZZ=            -29.2828
   XY=              0.1240   XZ=             -0.0798   YZ=             -0.0549

 1\1\GINC-NODE25\SP\RB2PLYPD3-FC\def2QZVP\C4H6\BOITTIER\26-Aug-2020\0\\
 #p B2PLYPD3/Def2QZVP\\butadiene\\0,1\C,0,-3.840988,0.230911,0.005396\C
 ,0,-2.727407,-0.508926,0.056895\C,0,-1.388239,0.059365,0.027865\C,0,-0
 .260834,-0.647162,0.025717\H,0,-4.826577,-0.229169,-0.040393\H,0,-3.78
 9379,1.322585,0.000392\H,0,-2.795244,-1.587927,0.074191\H,0,-1.277308,
 1.139585,-0.057448\H,0,-0.227493,-1.717069,-0.007852\H,0,0.720272,-0.1
 54393,-0.030346\\Version=ES64L-G09RevD.01\State=1-A\HF=-155.7001335\MP
 2=-155.9258799\RMSD=4.722e-09\PG=C01 [X(C4H6)]\\@

 Normal termination of Gaussian 09 at Wed Aug 26 13:57:22 2020.
