 Gaussian 09, Revision D.01,
 Gaussian 09:  ES64L-G09RevD.01 24-Apr-2013

 --------------------
 #p B2PLYPD3/Def2QZVP
 --------------------

 ---------
 butadiene
 ---------
 Symbolic Z-matrix:
 Charge =  0 Multiplicity = 1

                         Standard orientation:
 ---------------------------------------------------------------------
 Center     Atomic      Atomic             Coordinates (Angstroms)
 Number     Number       Type             X           Y           Z
 ---------------------------------------------------------------------
      1          6           0       -1.806510    0.142385    0.017081
      2          6           0       -0.607764   -0.477067   -0.002462
      3          6           0        0.551647    0.377646   -0.037006
      4          6           0        1.828439   -0.087568   -0.003952
      5          1           0       -2.744398   -0.487317   -0.098217
      6          1           0       -1.867852    1.255077    0.186586
      7          1           0       -0.343241   -1.564985   -0.115414
      8          1           0        0.439554    1.503679   -0.013597
      9          1           0        2.152441   -1.082084    0.295526
     10          1           0        2.568619    0.643258   -0.096850
 ---------------------------------------------------------------------

 SCF Done:  E(RB2PLYPD3) =  -155.679670503     A.U. after   12 cycles
 E2(B2PLYPD3) =    -0.2282690602D+00 E(B2PLYPD3) =    -0.15590793956362D+03

 The electronic state is 1-A.
 Alpha  occ. eigenvalues --  -10.63280 -10.63038 -10.62962 -10.61022  -0.92951
 Alpha  occ. eigenvalues --   -0.84117  -0.69683  -0.63246  -0.53805  -0.53280
 Alpha  occ. eigenvalues --   -0.46484  -0.44738  -0.41337  -0.37731  -0.26926
 Alpha virt. eigenvalues --    0.01233   0.06795   0.07166   0.07882   0.08845
 Alpha virt. eigenvalues --    0.11707   0.12099   0.14966   0.15201   0.16257
 Alpha virt. eigenvalues --    0.18304   0.19956   0.21222   0.22297   0.24613

 Mulliken charges:
               1
     1  C   -0.169139
     2  C   -0.038804
     3  C   -0.017927
     4  C   -0.194529
     5  H    0.081075
     6  H    0.076391
     7  H    0.067833
     8  H    0.046633
     9  H    0.070717
    10  H    0.077750
 Sum of Mulliken charges =   0.00000

 Dipole moment (field-independent basis, Debye):
    X=             -0.0526    Y=              0.0143    Z=              0.1535  Tot=              0.1629
 Quadrupole moment (field-independent basis, Debye-Ang):
   XX=            -24.3981   YY=            -22.8670   ZZ=            -29.4050
   XY=             -0.3926   XZ=              0.4407   YZ=              0.0565

 1\1\GINC-NODE32\SP\RB2PLYPD3-FC\def2QZVP\C4H6\BOITTIER\26-Aug-2020\0\\
 #p B2PLYPD3/Def2QZVP\\butadiene\\0,1\C,0,-3.793313,0.272068,0.030618\C
 ,0,-2.734089,-0.564078,0.029846\C,0,-1.433305,0.053989,-0.013922\C,0,-
 0.268265,-0.644551,0.03545\H,0,-4.833516,-0.170148,-0.078352\H,0,-3.64
 2464,1.37926,0.17877\H,0,-2.680879,-1.684438,-0.061027\H,0,-1.329421,1
 .181051,-0.01239\H,0,-0.139832,-1.676436,0.355519\H,0,0.597516,-0.0695
 99,-0.066811\\Version=ES64L-G09RevD.01\State=1-A\HF=-155.6796705\MP2=-
 155.9079396\RMSD=4.560e-09\PG=C01 [X(C4H6)]\\@

 Normal termination of Gaussian 09 at Wed Aug 26 14:37:25 2020.
