 Gaussian 09, Revision D.01,
 Gaussian 09:  ES64L-G09RevD.01 24-Apr-2013

 --------------------
 #p B2PLYPD3/Def2QZVP
 --------------------

 ---------
 butadiene
 ---------
 Symbolic Z-matrix:
 Charge =  0 Multiplicity = 1

                         Standard orientation:
 ---------------------------------------------------------------------
 Center     Atomic      Atomic             Coordinates (Angstroms)
 Number     Number       Type             X           Y           Z
 ---------------------------------------------------------------------
      1          6           0       -1.855668   -0.109322    0.027536
      2          6           0       -0.605100    0.392979   -0.040117
      3          6           0        0.618259   -0.418554   -0.027784
      4          6           0        1.855005    0.117642    0.026402
      5          1           0       -2.708929    0.524560    0.075384
      6          1           0       -2.140912   -1.110925   -0.042017
      7          1           0       -0.459850    1.486901   -0.027819
      8          1           0        0.503466   -1.485755    0.049345
      9          1           0        1.944747    1.178446    0.040073
     10          1           0        2.786498   -0.489701   -0.011184
 ---------------------------------------------------------------------

 SCF Done:  E(RB2PLYPD3) =  -155.695288155     A.U. after   11 cycles
 E2(B2PLYPD3) =    -0.2262650443D+00 E(B2PLYPD3) =    -0.15592155319911D+03

 The electronic state is 1-A.
 Alpha  occ. eigenvalues --  -10.63289 -10.62801 -10.61915 -10.61201  -0.92497
 Alpha  occ. eigenvalues --   -0.84683  -0.70489  -0.64378  -0.54732  -0.53654
 Alpha  occ. eigenvalues --   -0.46722  -0.45789  -0.41212  -0.37707  -0.27507
 Alpha virt. eigenvalues --    0.01392   0.06964   0.07537   0.08036   0.09275
 Alpha virt. eigenvalues --    0.11603   0.12595   0.14699   0.15744   0.16287
 Alpha virt. eigenvalues --    0.18899   0.20253   0.21894   0.22975   0.23706

 Mulliken charges:
               1
     1  C   -0.172728
     2  C   -0.036756
     3  C   -0.034839
     4  C   -0.173012
     5  H    0.077221
     6  H    0.070277
     7  H    0.055463
     8  H    0.063113
     9  H    0.064954
    10  H    0.086307
 Sum of Mulliken charges =   0.00000

 Dipole moment (field-independent basis, Debye):
    X=             -0.0349    Y=             -0.0358    Z=              0.0208  Tot=              0.0542
 Quadrupole moment (field-independent basis, Debye-Ang):
   XX=            -23.1469   YY=            -23.2047   ZZ=            -29.3546
   XY=              0.3112   XZ=             -0.0500   YZ=              0.0623

 1\1\GINC-NODE21\SP\RB2PLYPD3-FC\def2QZVP\C4H6\BOITTIER\26-Aug-2020\0\\
 #p B2PLYPD3/Def2QZVP\\butadiene\\0,1\C,0,-3.86046,0.22123,-0.011018\C,
 0,-2.719372,-0.494133,0.072511\C,0,-1.370908,0.085524,0.041091\C,0,-0.
 249801,-0.663945,0.003697\H,0,-4.813238,-0.251309,-0.043729\H,0,-3.962
 266,1.25914,0.031297\H,0,-2.771625,-1.596354,0.0896\H,0,-1.293699,1.15
 3657,-0.064622\H,0,-0.350768,-1.723725,0.01842\H,0,0.775192,-0.231737,
 0.027014\\Version=ES64L-G09RevD.01\State=1-A\HF=-155.6952882\MP2=-155.
 9215532\RMSD=5.089e-09\PG=C01 [X(C4H6)]\\@

 Normal termination of Gaussian 09 at Wed Aug 26 09:26:33 2020.
