 Gaussian 09, Revision D.01,
 Gaussian 09:  ES64L-G09RevD.01 24-Apr-2013

 --------------------
 #p B2PLYPD3/Def2QZVP
 --------------------

 ---------
 butadiene
 ---------
 Symbolic Z-matrix:
 Charge =  0 Multiplicity = 1

                         Standard orientation:
 ---------------------------------------------------------------------
 Center     Atomic      Atomic             Coordinates (Angstroms)
 Number     Number       Type             X           Y           Z
 ---------------------------------------------------------------------
      1          6           0        1.849131    0.088285    0.028969
      2          6           0        0.596220   -0.354391   -0.057885
      3          6           0       -0.616594    0.404403   -0.013476
      4          6           0       -1.834871   -0.132248    0.007948
      5          1           0        2.735693   -0.541519    0.114550
      6          1           0        2.042426    1.118392   -0.026701
      7          1           0        0.498210   -1.450377    0.005305
      8          1           0       -0.518929    1.522094   -0.021463
      9          1           0       -2.024960   -1.204824    0.021650
     10          1           0       -2.695757    0.519941    0.113316
 ---------------------------------------------------------------------

 SCF Done:  E(RB2PLYPD3) =  -155.696324373     A.U. after   11 cycles
 E2(B2PLYPD3) =    -0.2259082203D+00 E(B2PLYPD3) =    -0.15592223259310D+03

 The electronic state is 1-A.
 Alpha  occ. eigenvalues --  -10.62915 -10.62390 -10.61756 -10.61193  -0.93232
 Alpha  occ. eigenvalues --   -0.85143  -0.70565  -0.63585  -0.54662  -0.54203
 Alpha  occ. eigenvalues --   -0.46917  -0.45122  -0.40687  -0.38452  -0.27719
 Alpha virt. eigenvalues --    0.01488   0.06986   0.07401   0.07895   0.09894
 Alpha virt. eigenvalues --    0.11609   0.12436   0.14772   0.15713   0.16364
 Alpha virt. eigenvalues --    0.18840   0.20039   0.21957   0.22656   0.23674

 Mulliken charges:
               1
     1  C   -0.174810
     2  C   -0.017551
     3  C   -0.034388
     4  C   -0.169620
     5  H    0.085125
     6  H    0.061286
     7  H    0.046607
     8  H    0.048756
     9  H    0.070866
    10  H    0.083729
 Sum of Mulliken charges =   0.00000

 Dipole moment (field-independent basis, Debye):
    X=             -0.0257    Y=              0.0120    Z=              0.1332  Tot=              0.1362
 Quadrupole moment (field-independent basis, Debye-Ang):
   XX=            -23.2332   YY=            -23.2915   ZZ=            -29.2083
   XY=              0.1091   XZ=             -0.0451   YZ=             -0.1242

 1\1\GINC-NODE14\SP\RB2PLYPD3-FC\def2QZVP\C4H6\BOITTIER\26-Aug-2020\0\\
 #p B2PLYPD3/Def2QZVP\\butadiene\\0,1\C,0,-3.857311,0.199937,-0.011809\
 C,0,-2.702957,-0.456981,0.084197\C,0,-1.374598,0.073068,0.027893\C,0,-
 0.271259,-0.672037,0.017243\H,0,-4.841935,-0.263501,-0.087362\H,0,-3.8
 6417,1.248811,0.02561\H,0,-2.801596,-1.553853,0.040304\H,0,-1.271868,1
 .190272,0.016213\H,0,-0.275025,-1.761394,0.022525\H,0,0.6917,-0.185332
 ,-0.098544\\Version=ES64L-G09RevD.01\State=1-A\HF=-155.6963244\MP2=-15
 5.9222326\RMSD=4.836e-09\PG=C01 [X(C4H6)]\\@

 Normal termination of Gaussian 09 at Wed Aug 26 08:48:25 2020.
