 Gaussian 09, Revision D.01,
 Gaussian 09:  ES64L-G09RevD.01 24-Apr-2013

 --------------------
 #p B2PLYPD3/Def2QZVP
 --------------------

 ---------
 butadiene
 ---------
 Symbolic Z-matrix:
 Charge =  0 Multiplicity = 1

                         Standard orientation:
 ---------------------------------------------------------------------
 Center     Atomic      Atomic             Coordinates (Angstroms)
 Number     Number       Type             X           Y           Z
 ---------------------------------------------------------------------
      1          6           0       -1.845848   -0.125178   -0.059704
      2          6           0       -0.603438    0.418933    0.047135
      3          6           0        0.604557   -0.367575    0.023890
      4          6           0        1.862261    0.084245   -0.029075
      5          1           0       -2.696909    0.511181    0.003981
      6          1           0       -2.062149   -1.193664   -0.024345
      7          1           0       -0.458123    1.482612    0.093775
      8          1           0        0.415847   -1.405895    0.167828
      9          1           0        2.026415    1.160942   -0.063714
     10          1           0        2.669725   -0.617726   -0.070995
 ---------------------------------------------------------------------

 SCF Done:  E(RB2PLYPD3) =  -155.696080336     A.U. after   11 cycles
 E2(B2PLYPD3) =    -0.2262849306D+00 E(B2PLYPD3) =    -0.15592236526636D+03

 The electronic state is 1-A.
 Alpha  occ. eigenvalues --  -10.62807 -10.62018 -10.61957 -10.61538  -0.92982
 Alpha  occ. eigenvalues --   -0.84662  -0.70801  -0.64227  -0.54725  -0.53688
 Alpha  occ. eigenvalues --   -0.47089  -0.45874  -0.41369  -0.37692  -0.27461
 Alpha virt. eigenvalues --    0.01192   0.07015   0.07457   0.08127   0.09628
 Alpha virt. eigenvalues --    0.11688   0.12337   0.14873   0.15527   0.16251
 Alpha virt. eigenvalues --    0.18797   0.19917   0.21855   0.22729   0.23876

 Mulliken charges:
               1
     1  C   -0.170503
     2  C   -0.046132
     3  C   -0.014989
     4  C   -0.190093
     5  H    0.081981
     6  H    0.068008
     7  H    0.056013
     8  H    0.055329
     9  H    0.067065
    10  H    0.093321
 Sum of Mulliken charges =   0.00000

 Dipole moment (field-independent basis, Debye):
    X=             -0.0555    Y=             -0.0156    Z=              0.1428  Tot=              0.1540
 Quadrupole moment (field-independent basis, Debye-Ang):
   XX=            -23.5668   YY=            -23.1081   ZZ=            -29.2813
   XY=              0.2479   XZ=             -0.2717   YZ=             -0.0697

 1\1\GINC-NODE36\SP\RB2PLYPD3-FC\def2QZVP\C4H6\BOITTIER\26-Aug-2020\0\\
 #p B2PLYPD3/Def2QZVP\\butadiene\\0,1\C,0,-3.84483,0.25075,0.069704\C,0
 ,-2.724107,-0.516078,-0.014007\C,0,-1.391863,0.034836,-0.011319\C,0,-0
 .238815,-0.638891,0.061738\H,0,-4.798664,-0.219732,0.023214\H,0,-3.860
 672,1.339044,-0.001463\H,0,-2.7773,-1.589274,-0.025254\H,0,-1.386342,1
 .084844,-0.189903\H,0,-0.275741,-1.72567,0.132231\H,0,0.684214,-0.0966
 42,0.084145\\Version=ES64L-G09RevD.01\State=1-A\HF=-155.6960803\MP2=-1
 55.9223653\RMSD=8.330e-09\PG=C01 [X(C4H6)]\\@

 Normal termination of Gaussian 09 at Wed Aug 26 09:07:48 2020.
