 Gaussian 09, Revision D.01,
 Gaussian 09:  ES64L-G09RevD.01 24-Apr-2013

 --------------------
 #p B2PLYPD3/Def2QZVP
 --------------------

 ---------
 butadiene
 ---------
 Symbolic Z-matrix:
 Charge =  0 Multiplicity = 1

                         Standard orientation:
 ---------------------------------------------------------------------
 Center     Atomic      Atomic             Coordinates (Angstroms)
 Number     Number       Type             X           Y           Z
 ---------------------------------------------------------------------
      1          6           0        1.829821   -0.106642   -0.017454
      2          6           0        0.606858    0.399625    0.006901
      3          6           0       -0.597495   -0.417467    0.010775
      4          6           0       -1.836492    0.105370   -0.036250
      5          1           0        2.693997    0.521376    0.043217
      6          1           0        1.992153   -1.170226   -0.078439
      7          1           0        0.523437    1.495008    0.055480
      8          1           0       -0.469846   -1.521879    0.142476
      9          1           0       -1.959445    1.218169    0.039257
     10          1           0       -2.796450   -0.427763    0.014180
 ---------------------------------------------------------------------

 SCF Done:  E(RB2PLYPD3) =  -155.695593478     A.U. after   11 cycles
 E2(B2PLYPD3) =    -0.2263361668D+00 E(B2PLYPD3) =    -0.15592192964513D+03

 The electronic state is 1-A.
 Alpha  occ. eigenvalues --  -10.63315 -10.62566 -10.62307 -10.61107  -0.92938
 Alpha  occ. eigenvalues --   -0.84798  -0.69775  -0.63634  -0.54759  -0.53535
 Alpha  occ. eigenvalues --   -0.46752  -0.44702  -0.41108  -0.37977  -0.27735
 Alpha virt. eigenvalues --    0.01727   0.07048   0.07234   0.07924   0.09420
 Alpha virt. eigenvalues --    0.11555   0.12581   0.14373   0.15788   0.16438
 Alpha virt. eigenvalues --    0.18757   0.20280   0.21717   0.22608   0.23732

 Mulliken charges:
               1
     1  C   -0.174599
     2  C   -0.021071
     3  C   -0.039610
     4  C   -0.163384
     5  H    0.085816
     6  H    0.064541
     7  H    0.053706
     8  H    0.056495
     9  H    0.054186
    10  H    0.083919
 Sum of Mulliken charges =   0.00000

 Dipole moment (field-independent basis, Debye):
    X=              0.0251    Y=              0.0057    Z=              0.2087  Tot=              0.2102
 Quadrupole moment (field-independent basis, Debye-Ang):
   XX=            -23.3099   YY=            -23.2655   ZZ=            -29.3278
   XY=             -0.0431   XZ=             -0.1956   YZ=              0.0583

 1\1\GINC-NODE08\SP\RB2PLYPD3-FC\def2QZVP\C4H6\BOITTIER\26-Aug-2020\0\\
 #p B2PLYPD3/Def2QZVP\\butadiene\\0,1\C,0,-3.833406,0.21489,0.002336\C,
 0,-2.720702,-0.500986,0.046495\C,0,-1.389592,0.087215,0.029619\C,0,-0.
 26422,-0.650019,0.002996\H,0,-4.795873,-0.246245,0.079142\H,0,-3.80295
 8,1.287971,-0.091742\H,0,-2.834501,-1.591604,0.128867\H,0,-1.317331,1.
 200165,0.127009\H,0,-0.342187,-1.764007,0.112956\H,0,0.77573,-0.295911
 ,0.04048\\Version=ES64L-G09RevD.01\State=1-A\HF=-155.6955935\MP2=-155.
 9219296\RMSD=4.290e-09\PG=C01 [X(C4H6)]\\@

 Normal termination of Gaussian 09 at Wed Aug 26 11:12:23 2020.
