 Gaussian 09, Revision D.01,
 Gaussian 09:  ES64L-G09RevD.01 24-Apr-2013

 --------------------
 #p B2PLYPD3/Def2QZVP
 --------------------

 ---------
 butadiene
 ---------
 Symbolic Z-matrix:
 Charge =  0 Multiplicity = 1

                         Standard orientation:
 ---------------------------------------------------------------------
 Center     Atomic      Atomic             Coordinates (Angstroms)
 Number     Number       Type             X           Y           Z
 ---------------------------------------------------------------------
      1          6           0       -1.860372   -0.097446   -0.040652
      2          6           0       -0.607265    0.380582    0.075874
      3          6           0        0.607414   -0.427480    0.032250
      4          6           0        1.850972    0.122650   -0.020271
      5          1           0       -2.668770    0.550376   -0.083311
      6          1           0       -2.075518   -1.127162   -0.062589
      7          1           0       -0.503685    1.499217    0.000016
      8          1           0        0.481601   -1.486959    0.045534
      9          1           0        2.057878    1.167928   -0.087092
     10          1           0        2.763999   -0.473238   -0.095753
 ---------------------------------------------------------------------

 SCF Done:  E(RB2PLYPD3) =  -155.694367443     A.U. after   11 cycles
 E2(B2PLYPD3) =    -0.2263498373D+00 E(B2PLYPD3) =    -0.15592071727981D+03

 The electronic state is 1-A.
 Alpha  occ. eigenvalues --  -10.63136 -10.63078 -10.61993 -10.60859  -0.92503
 Alpha  occ. eigenvalues --   -0.84673  -0.70822  -0.64191  -0.54829  -0.53967
 Alpha  occ. eigenvalues --   -0.47130  -0.45273  -0.41335  -0.37777  -0.27394
 Alpha virt. eigenvalues --    0.01263   0.07003   0.07508   0.08043   0.09323
 Alpha virt. eigenvalues --    0.11543   0.12560   0.14786   0.15741   0.16491
 Alpha virt. eigenvalues --    0.18922   0.20113   0.22253   0.22862   0.23510

 Mulliken charges:
               1
     1  C   -0.177513
     2  C   -0.023299
     3  C   -0.047295
     4  C   -0.166715
     5  H    0.087024
     6  H    0.065476
     7  H    0.050367
     8  H    0.065638
     9  H    0.068989
    10  H    0.077328
 Sum of Mulliken charges =   0.00000

 Dipole moment (field-independent basis, Debye):
    X=              0.0027    Y=             -0.0183    Z=             -0.1872  Tot=              0.1881
 Quadrupole moment (field-independent basis, Debye-Ang):
   XX=            -23.1894   YY=            -23.1355   ZZ=            -29.3354
   XY=              0.3459   XZ=             -0.0364   YZ=             -0.1278

 1\1\GINC-NODE08\SP\RB2PLYPD3-FC\def2QZVP\C4H6\BOITTIER\26-Aug-2020\0\\
 #p B2PLYPD3/Def2QZVP\\butadiene\\0,1\C,0,-3.863699,0.216076,0.061925\C
 ,0,-2.717976,-0.484621,-0.031396\C,0,-1.377258,0.092109,-0.018381\C,0,
 -0.253085,-0.670716,0.060177\H,0,-4.775468,-0.272916,0.129476\H,0,-3.8
 89459,1.267721,0.040398\H,0,-2.817499,-1.599466,0.09126\H,0,-1.30996,1
 .155425,-0.07611\H,0,-0.237792,-1.73249,0.171011\H,0,0.75282,-0.246744
 ,0.113093\\Version=ES64L-G09RevD.01\State=1-A\HF=-155.6943674\MP2=-155
 .9207173\RMSD=6.941e-09\PG=C01 [X(C4H6)]\\@

 Normal termination of Gaussian 09 at Wed Aug 26 08:59:52 2020.
