 Gaussian 09, Revision D.01,
 Gaussian 09:  ES64L-G09RevD.01 24-Apr-2013

 --------------------
 #p B2PLYPD3/Def2QZVP
 --------------------

 ---------
 butadiene
 ---------
 Symbolic Z-matrix:
 Charge =  0 Multiplicity = 1

                         Standard orientation:
 ---------------------------------------------------------------------
 Center     Atomic      Atomic             Coordinates (Angstroms)
 Number     Number       Type             X           Y           Z
 ---------------------------------------------------------------------
      1          6           0       -1.836762   -0.136124    0.049524
      2          6           0       -0.613030    0.454555   -0.086352
      3          6           0        0.580739   -0.354621   -0.069184
      4          6           0        1.818879    0.066513    0.083844
      5          1           0       -2.742354    0.436404    0.242444
      6          1           0       -1.750627   -1.336672   -0.031394
      7          1           0       -0.388715    1.508962   -0.113391
      8          1           0        0.485740   -1.408755   -0.031798
      9          1           0        1.982073    1.185781    0.063845
     10          1           0        2.714922   -0.567659    0.003296
 ---------------------------------------------------------------------

 SCF Done:  E(RB2PLYPD3) =  -155.677739376     A.U. after   12 cycles
 E2(B2PLYPD3) =    -0.2278086609D+00 E(B2PLYPD3) =    -0.15590554803644D+03

 The electronic state is 1-A.
 Alpha  occ. eigenvalues --  -10.63724 -10.63127 -10.61737 -10.61597  -0.93365
 Alpha  occ. eigenvalues --   -0.84474  -0.69470  -0.64099  -0.54738  -0.52623
 Alpha  occ. eigenvalues --   -0.46760  -0.44069  -0.41025  -0.38205  -0.27539
 Alpha virt. eigenvalues --    0.01360   0.06762   0.07178   0.08013   0.09421
 Alpha virt. eigenvalues --    0.11647   0.12471   0.14022   0.15526   0.16179
 Alpha virt. eigenvalues --    0.18239   0.19194   0.21475   0.22881   0.24429

 Mulliken charges:
               1
     1  C   -0.169106
     2  C   -0.048699
     3  C   -0.003964
     4  C   -0.170678
     5  H    0.099625
     6  H    0.062789
     7  H    0.057225
     8  H    0.047309
     9  H    0.040796
    10  H    0.084703
 Sum of Mulliken charges =   0.00000

 Dipole moment (field-independent basis, Debye):
    X=             -0.0495    Y=              0.0354    Z=              0.0193  Tot=              0.0638
 Quadrupole moment (field-independent basis, Debye-Ang):
   XX=            -23.9002   YY=            -23.3288   ZZ=            -29.3985
   XY=             -0.4712   XZ=             -0.6442   YZ=              0.1530

 1\1\GINC-NODE21\SP\RB2PLYPD3-FC\def2QZVP\C4H6\BOITTIER\26-Aug-2020\0\\
 #p B2PLYPD3/Def2QZVP\\butadiene\\0,1\C,0,-3.827718,0.249054,-0.04307\C
 ,0,-2.730175,-0.546703,0.121408\C,0,-1.4103,0.033431,0.082392\C,0,-0.2
 6822,-0.608792,-0.047855\H,0,-4.821642,-0.157939,-0.220766\H,0,-3.5269
 31,1.41668,-0.004879\H,0,-2.69923,-1.622559,0.187731\H,0,-1.314094,1.0
 85386,0.006525\H,0,-0.309073,-1.737673,0.013396\H,0,0.727347,-0.143585
 ,0.015268\\Version=ES64L-G09RevD.01\State=1-A\HF=-155.6777394\MP2=-155
 .905548\RMSD=3.829e-09\PG=C01 [X(C4H6)]\\@

 Normal termination of Gaussian 09 at Wed Aug 26 14:38:21 2020.
