 Gaussian 09, Revision D.01,
 Gaussian 09:  ES64L-G09RevD.01 24-Apr-2013

 --------------------
 #p B2PLYPD3/Def2QZVP
 --------------------

 ---------
 butadiene
 ---------
 Symbolic Z-matrix:
 Charge =  0 Multiplicity = 1

                         Standard orientation:
 ---------------------------------------------------------------------
 Center     Atomic      Atomic             Coordinates (Angstroms)
 Number     Number       Type             X           Y           Z
 ---------------------------------------------------------------------
      1          6           0        1.829153    0.094118   -0.016242
      2          6           0        0.592987   -0.379133    0.018923
      3          6           0       -0.602197    0.413464    0.004703
      4          6           0       -1.831336   -0.123914   -0.003420
      5          1           0        2.721917   -0.544294   -0.033462
      6          1           0        2.031206    1.163598   -0.029794
      7          1           0        0.487982   -1.451667    0.084912
      8          1           0       -0.493591    1.502465    0.061745
      9          1           0       -1.981907   -1.208481   -0.081265
     10          1           0       -2.697242    0.511172   -0.025922
 ---------------------------------------------------------------------

 SCF Done:  E(RB2PLYPD3) =  -155.699848506     A.U. after   11 cycles
 E2(B2PLYPD3) =    -0.2257957729D+00 E(B2PLYPD3) =    -0.15592564427861D+03

 The electronic state is 1-A.
 Alpha  occ. eigenvalues --  -10.62637 -10.62091 -10.61712 -10.61474  -0.93299
 Alpha  occ. eigenvalues --   -0.84911  -0.70138  -0.63969  -0.54656  -0.53972
 Alpha  occ. eigenvalues --   -0.46521  -0.45267  -0.41264  -0.38326  -0.27626
 Alpha virt. eigenvalues --    0.01681   0.07023   0.07390   0.07970   0.09719
 Alpha virt. eigenvalues --    0.11664   0.12414   0.14711   0.15860   0.16168
 Alpha virt. eigenvalues --    0.18762   0.20492   0.21585   0.22582   0.23819

 Mulliken charges:
               1
     1  C   -0.173598
     2  C   -0.022371
     3  C   -0.035392
     4  C   -0.175310
     5  H    0.082520
     6  H    0.060035
     7  H    0.054546
     8  H    0.055840
     9  H    0.067931
    10  H    0.085799
 Sum of Mulliken charges =   0.00000

 Dipole moment (field-independent basis, Debye):
    X=             -0.0100    Y=              0.0084    Z=             -0.0101  Tot=              0.0165
 Quadrupole moment (field-independent basis, Debye-Ang):
   XX=            -23.5008   YY=            -23.1179   ZZ=            -29.2420
   XY=              0.0590   XZ=              0.0897   YZ=              0.0576

 1\1\GINC-NODE19\SP\RB2PLYPD3-FC\def2QZVP\C4H6\BOITTIER\26-Aug-2020\0\\
 #p B2PLYPD3/Def2QZVP\\butadiene\\0,1\C,0,-3.83566,0.208413,0.03307\C,0
 ,-2.705447,-0.481281,0.017261\C,0,-1.386711,0.082384,0.007632\C,0,-0.2
 74838,-0.667606,0.037249\H,0,-4.82899,-0.257259,0.069665\H,0,-3.841156
 ,1.296632,0.009699\H,0,-2.796142,-1.556749,-0.011925\H,0,-1.297024,1.1
 70515,-0.086711\H,0,-0.322376,-1.758253,0.152343\H,0,0.691617,-0.19900
 3,0.040396\\Version=ES64L-G09RevD.01\State=1-A\HF=-155.6998485\MP2=-15
 5.9256443\RMSD=5.611e-09\PG=C01 [X(C4H6)]\\@

 Normal termination of Gaussian 09 at Wed Aug 26 21:17:37 2020.
