 Gaussian 09, Revision D.01,
 Gaussian 09:  ES64L-G09RevD.01 24-Apr-2013

 --------------------
 #p B2PLYPD3/Def2QZVP
 --------------------

 ---------
 butadiene
 ---------
 Symbolic Z-matrix:
 Charge =  0 Multiplicity = 1

                         Standard orientation:
 ---------------------------------------------------------------------
 Center     Atomic      Atomic             Coordinates (Angstroms)
 Number     Number       Type             X           Y           Z
 ---------------------------------------------------------------------
      1          6           0       -1.843543    0.112356    0.028409
      2          6           0       -0.607642   -0.388055   -0.026019
      3          6           0        0.601236    0.400164   -0.021467
      4          6           0        1.835189   -0.116484    0.011399
      5          1           0       -2.675856   -0.562955   -0.006243
      6          1           0       -1.986132    1.154441    0.015293
      7          1           0       -0.449756   -1.464871   -0.007456
      8          1           0        0.505319    1.489728   -0.035720
      9          1           0        1.994394   -1.183441    0.023925
     10          1           0        2.700589    0.519214    0.056266
 ---------------------------------------------------------------------

 SCF Done:  E(RB2PLYPD3) =  -155.700354854     A.U. after   11 cycles
 E2(B2PLYPD3) =    -0.2255810796D+00 E(B2PLYPD3) =    -0.15592593593405D+03

 The electronic state is 1-A.
 Alpha  occ. eigenvalues --  -10.62481 -10.62361 -10.61427 -10.61063  -0.93137
 Alpha  occ. eigenvalues --   -0.85067  -0.70429  -0.64056  -0.54592  -0.54341
 Alpha  occ. eigenvalues --   -0.46438  -0.46085  -0.41298  -0.38200  -0.27610
 Alpha virt. eigenvalues --    0.01637   0.07022   0.07448   0.08065   0.09731
 Alpha virt. eigenvalues --    0.11762   0.12415   0.14845   0.15797   0.16144
 Alpha virt. eigenvalues --    0.18746   0.20336   0.21674   0.22914   0.24049

 Mulliken charges:
               1
     1  C   -0.181084
     2  C   -0.026160
     3  C   -0.026182
     4  C   -0.179102
     5  H    0.088789
     6  H    0.071700
     7  H    0.051057
     8  H    0.049240
     9  H    0.065066
    10  H    0.086675
 Sum of Mulliken charges =   0.00000

 Dipole moment (field-independent basis, Debye):
    X=              0.0272    Y=              0.0038    Z=              0.0081  Tot=              0.0286
 Quadrupole moment (field-independent basis, Debye-Ang):
   XX=            -23.6012   YY=            -23.0312   ZZ=            -29.2261
   XY=             -0.0659   XZ=              0.1979   YZ=             -0.0052

 1\1\GINC-NODE31\SP\RB2PLYPD3-FC\def2QZVP\C4H6\BOITTIER\26-Aug-2020\0\\
 #p B2PLYPD3/Def2QZVP\\butadiene\\0,1\C,0,-3.844124,0.225672,0.044284\C
 ,0,-2.718012,-0.489525,0.009812\C,0,-1.387466,0.069114,-0.006577\C,0,-
 0.265969,-0.658931,0.046708\H,0,-4.784042,-0.290359,0.028262\H,0,-3.79
 7734,1.275494,-0.002273\H,0,-2.755562,-1.576065,0.062962\H,0,-1.286655
 ,1.157224,-0.055618\H,0,-0.30047,-1.736205,0.093517\H,0,0.699428,-0.18
 7455,0.074303\\Version=ES64L-G09RevD.01\State=1-A\HF=-155.7003549\MP2=
 -155.9259359\RMSD=3.410e-09\PG=C01 [X(C4H6)]\\@

 Normal termination of Gaussian 09 at Wed Aug 26 19:06:04 2020.
