 Gaussian 09, Revision D.01,
 Gaussian 09:  ES64L-G09RevD.01 24-Apr-2013

 --------------------
 #p B2PLYPD3/Def2QZVP
 --------------------

 ---------
 butadiene
 ---------
 Symbolic Z-matrix:
 Charge =  0 Multiplicity = 1

                         Standard orientation:
 ---------------------------------------------------------------------
 Center     Atomic      Atomic             Coordinates (Angstroms)
 Number     Number       Type             X           Y           Z
 ---------------------------------------------------------------------
      1          6           0        1.834087    0.092426   -0.024062
      2          6           0        0.605808   -0.381404    0.043497
      3          6           0       -0.596814    0.426491    0.016081
      4          6           0       -1.832159   -0.128743   -0.033381
      5          1           0        2.697383   -0.557931   -0.086366
      6          1           0        1.909701    1.197894   -0.020558
      7          1           0        0.453605   -1.437733    0.023505
      8          1           0       -0.467628    1.520179    0.093626
      9          1           0       -1.891372   -1.236624    0.044472
     10          1           0       -2.767220    0.461599   -0.067494
 ---------------------------------------------------------------------

 SCF Done:  E(RB2PLYPD3) =  -155.695318615     A.U. after   11 cycles
 E2(B2PLYPD3) =    -0.2264971161D+00 E(B2PLYPD3) =    -0.15592181573082D+03

 The electronic state is 1-A.
 Alpha  occ. eigenvalues --  -10.63055 -10.62458 -10.61910 -10.61468  -0.93192
 Alpha  occ. eigenvalues --   -0.84719  -0.69559  -0.63944  -0.54532  -0.53451
 Alpha  occ. eigenvalues --   -0.46572  -0.44997  -0.41377  -0.38131  -0.27623
 Alpha virt. eigenvalues --    0.01713   0.07017   0.07249   0.08002   0.09498
 Alpha virt. eigenvalues --    0.11673   0.12496   0.14364   0.15630   0.16202
 Alpha virt. eigenvalues --    0.18540   0.20180   0.21260   0.23049   0.24180

 Mulliken charges:
               1
     1  C   -0.177789
     2  C   -0.016272
     3  C   -0.034758
     4  C   -0.176572
     5  H    0.093015
     6  H    0.059622
     7  H    0.050052
     8  H    0.051042
     9  H    0.062846
    10  H    0.088814
 Sum of Mulliken charges =   0.00000

 Dipole moment (field-independent basis, Debye):
    X=             -0.0174    Y=             -0.0295    Z=              0.0283  Tot=              0.0444
 Quadrupole moment (field-independent basis, Debye-Ang):
   XX=            -23.7079   YY=            -23.1641   ZZ=            -29.3528
   XY=             -0.2598   XZ=             -0.2369   YZ=              0.0417

 1\1\GINC-NODE24\SP\RB2PLYPD3-FC\def2QZVP\C4H6\BOITTIER\26-Aug-2020\0\\
 #p B2PLYPD3/Def2QZVP\\butadiene\\0,1\C,0,-3.839421,0.202103,0.045518\C
 ,0,-2.715319,-0.484621,-0.004998\C,0,-1.388145,0.097061,-0.00646\C,0,-
 0.270812,-0.666855,0.062882\H,0,-4.804118,-0.281814,0.131018\H,0,-3.71
 7449,1.302584,0.002462\H,0,-2.753088,-1.549812,0.05278\H,0,-1.321452,1
 .192873,-0.12309\H,0,-0.409867,-1.769658,0.024719\H,0,0.754454,-0.2513
 21,0.075887\\Version=ES64L-G09RevD.01\State=1-A\HF=-155.6953186\MP2=-1
 55.9218157\RMSD=6.883e-09\PG=C01 [X(C4H6)]\\@

 Normal termination of Gaussian 09 at Wed Aug 26 08:46:39 2020.
