 Gaussian 09, Revision D.01,
 Gaussian 09:  ES64L-G09RevD.01 24-Apr-2013

 --------------------
 #p B2PLYPD3/Def2QZVP
 --------------------

 ---------
 butadiene
 ---------
 Symbolic Z-matrix:
 Charge =  0 Multiplicity = 1

                         Standard orientation:
 ---------------------------------------------------------------------
 Center     Atomic      Atomic             Coordinates (Angstroms)
 Number     Number       Type             X           Y           Z
 ---------------------------------------------------------------------
      1          6           0        1.839607   -0.118077    0.025060
      2          6           0        0.604795    0.411816   -0.022434
      3          6           0       -0.606645   -0.400280   -0.011087
      4          6           0       -1.849077    0.106720    0.015140
      5          1           0        2.712790    0.499758   -0.056412
      6          1           0        2.028574   -1.174298    0.068048
      7          1           0        0.509414    1.506519   -0.027425
      8          1           0       -0.448120   -1.452319   -0.066463
      9          1           0       -2.013725    1.172236    0.065545
     10          1           0       -2.721019   -0.552972   -0.023367
 ---------------------------------------------------------------------

 SCF Done:  E(RB2PLYPD3) =  -155.699962664     A.U. after   11 cycles
 E2(B2PLYPD3) =    -0.2259697703D+00 E(B2PLYPD3) =    -0.15592593243399D+03

 The electronic state is 1-A.
 Alpha  occ. eigenvalues --  -10.62856 -10.62482 -10.61720 -10.61445  -0.92769
 Alpha  occ. eigenvalues --   -0.84714  -0.70189  -0.64266  -0.54406  -0.53979
 Alpha  occ. eigenvalues --   -0.46528  -0.45836  -0.41323  -0.37889  -0.27543
 Alpha virt. eigenvalues --    0.01582   0.07002   0.07456   0.08050   0.09459
 Alpha virt. eigenvalues --    0.11679   0.12408   0.14741   0.15790   0.16203
 Alpha virt. eigenvalues --    0.18868   0.20357   0.21664   0.22877   0.23744

 Mulliken charges:
               1
     1  C   -0.175422
     2  C   -0.031739
     3  C   -0.035207
     4  C   -0.176972
     5  H    0.082905
     6  H    0.064901
     7  H    0.055176
     8  H    0.061186
     9  H    0.069767
    10  H    0.085405
 Sum of Mulliken charges =   0.00000

 Dipole moment (field-independent basis, Debye):
    X=              0.0332    Y=             -0.0174    Z=             -0.0562  Tot=              0.0676
 Quadrupole moment (field-independent basis, Debye-Ang):
   XX=            -23.5006   YY=            -23.0365   ZZ=            -29.3215
   XY=             -0.2155   XZ=             -0.0707   YZ=              0.0350

 1\1\GINC-NODE05\SP\RB2PLYPD3-FC\def2QZVP\C4H6\BOITTIER\26-Aug-2020\0\\
 #p B2PLYPD3/Def2QZVP\\butadiene\\0,1\C,0,-3.841681,0.232833,0.040413\C
 ,0,-2.722499,-0.511795,0.012771\C,0,-1.384702,0.069054,0.001332\C,0,-0
 .253664,-0.652105,0.046666\H,0,-4.812026,-0.220095,-0.023569\H,0,-3.83
 7418,1.306639,0.049427\H,0,-2.825618,-1.605397,0.042725\H,0,-1.351571,
 1.130161,-0.087761\H,0,-0.283213,-1.727721,0.131234\H,0,0.722595,-0.16
 1596,-0.010601\\Version=ES64L-G09RevD.01\State=1-A\HF=-155.6999627\MP2
 =-155.9259324\RMSD=3.232e-09\PG=C01 [X(C4H6)]\\@

 Normal termination of Gaussian 09 at Wed Aug 26 14:36:29 2020.
