 Gaussian 09, Revision D.01,
 Gaussian 09:  ES64L-G09RevD.01 24-Apr-2013

 --------------------
 #p B2PLYPD3/Def2QZVP
 --------------------

 ---------
 butadiene
 ---------
 Symbolic Z-matrix:
 Charge =  0 Multiplicity = 1

                         Standard orientation:
 ---------------------------------------------------------------------
 Center     Atomic      Atomic             Coordinates (Angstroms)
 Number     Number       Type             X           Y           Z
 ---------------------------------------------------------------------
      1          6           0        1.832700   -0.109020    0.010477
      2          6           0        0.604347    0.407123   -0.002941
      3          6           0       -0.591735   -0.398885   -0.019005
      4          6           0       -1.839570    0.104518    0.010757
      5          1           0        2.715217    0.529249    0.045573
      6          1           0        1.962770   -1.199934   -0.031384
      7          1           0        0.450831    1.490871   -0.043953
      8          1           0       -0.432373   -1.456360    0.000332
      9          1           0       -2.058974    1.168475   -0.008859
     10          1           0       -2.671924   -0.554716    0.042559
 ---------------------------------------------------------------------

 SCF Done:  E(RB2PLYPD3) =  -155.699939634     A.U. after   11 cycles
 E2(B2PLYPD3) =    -0.2259326689D+00 E(B2PLYPD3) =    -0.15592587230340D+03

 The electronic state is 1-A.
 Alpha  occ. eigenvalues --  -10.62430 -10.62367 -10.61745 -10.61493  -0.93126
 Alpha  occ. eigenvalues --   -0.84743  -0.70297  -0.64084  -0.54610  -0.53799
 Alpha  occ. eigenvalues --   -0.46616  -0.45743  -0.41280  -0.38163  -0.27510
 Alpha virt. eigenvalues --    0.01612   0.07022   0.07346   0.08109   0.09592
 Alpha virt. eigenvalues --    0.11719   0.12364   0.14796   0.15754   0.16134
 Alpha virt. eigenvalues --    0.18698   0.20439   0.21637   0.22886   0.23911

 Mulliken charges:
               1
     1  C   -0.177739
     2  C   -0.023787
     3  C   -0.032507
     4  C   -0.180034
     5  H    0.087967
     6  H    0.063944
     7  H    0.052768
     8  H    0.055802
     9  H    0.068513
    10  H    0.085071
 Sum of Mulliken charges =   0.00000

 Dipole moment (field-independent basis, Debye):
    X=             -0.0041    Y=              0.0065    Z=             -0.0130  Tot=              0.0151
 Quadrupole moment (field-independent basis, Debye-Ang):
   XX=            -23.6005   YY=            -23.0457   ZZ=            -29.2920
   XY=             -0.2028   XZ=             -0.0670   YZ=             -0.0322

 1\1\GINC-NODE17\SP\RB2PLYPD3-FC\def2QZVP\C4H6\BOITTIER\26-Aug-2020\0\\
 #p B2PLYPD3/Def2QZVP\\butadiene\\0,1\C,0,-3.832641,0.230029,0.028217\C
 ,0,-2.720339,-0.5036,0.030995\C,0,-1.396362,0.067748,-0.003122\C,0,-0.
 262458,-0.655833,0.042538\H,0,-4.817487,-0.233739,0.077751\H,0,-3.7597
 6,1.324791,-0.042131\H,0,-2.769061,-1.597778,0.018366\H,0,-1.358276,1.
 136628,-0.011495\H,0,-0.242722,-1.742142,0.050939\H,0,0.677108,-0.1605
 03,0.05922\\Version=ES64L-G09RevD.01\State=1-A\HF=-155.6999396\MP2=-15
 5.9258723\RMSD=5.457e-09\PG=C01 [X(C4H6)]\\@

 Normal termination of Gaussian 09 at Wed Aug 26 09:15:30 2020.
