 Gaussian 09, Revision D.01,
 Gaussian 09:  ES64L-G09RevD.01 24-Apr-2013

 --------------------
 #p B2PLYPD3/Def2QZVP
 --------------------

 ---------
 butadiene
 ---------
 Symbolic Z-matrix:
 Charge =  0 Multiplicity = 1

                         Standard orientation:
 ---------------------------------------------------------------------
 Center     Atomic      Atomic             Coordinates (Angstroms)
 Number     Number       Type             X           Y           Z
 ---------------------------------------------------------------------
      1          6           0       -1.842055   -0.129781   -0.013889
      2          6           0       -0.609940    0.410851   -0.012128
      3          6           0        0.609733   -0.371134    0.021116
      4          6           0        1.851145    0.089885   -0.029233
      5          1           0       -2.726035    0.486466    0.041043
      6          1           0       -1.935814   -1.196758   -0.058700
      7          1           0       -0.533205    1.501269    0.123555
      8          1           0        0.425245   -1.386975    0.079689
      9          1           0        2.023219    1.163727   -0.041853
     10          1           0        2.693294   -0.566651    0.061068
 ---------------------------------------------------------------------

 SCF Done:  E(RB2PLYPD3) =  -155.697522436     A.U. after   11 cycles
 E2(B2PLYPD3) =    -0.2255298289D+00 E(B2PLYPD3) =    -0.15592305226454D+03

 The electronic state is 1-A.
 Alpha  occ. eigenvalues --  -10.62663 -10.61773 -10.61608 -10.61319  -0.93176
 Alpha  occ. eigenvalues --   -0.85075  -0.70432  -0.64364  -0.54689  -0.54178
 Alpha  occ. eigenvalues --   -0.46974  -0.45797  -0.41246  -0.37989  -0.27753
 Alpha virt. eigenvalues --    0.01598   0.07047   0.07545   0.08070   0.09705
 Alpha virt. eigenvalues --    0.11708   0.12446   0.14735   0.15652   0.16238
 Alpha virt. eigenvalues --    0.18805   0.20036   0.21790   0.22872   0.24029

 Mulliken charges:
               1
     1  C   -0.184260
     2  C   -0.024310
     3  C   -0.034786
     4  C   -0.172267
     5  H    0.089902
     6  H    0.065429
     7  H    0.051008
     8  H    0.056361
     9  H    0.065304
    10  H    0.087620
 Sum of Mulliken charges =   0.00000

 Dipole moment (field-independent basis, Debye):
    X=             -0.0431    Y=             -0.0325    Z=              0.1923  Tot=              0.1997
 Quadrupole moment (field-independent basis, Debye-Ang):
   XX=            -23.4388   YY=            -23.1988   ZZ=            -29.1760
   XY=             -0.0110   XZ=              0.0361   YZ=              0.0812

 1\1\GINC-NODE13\SP\RB2PLYPD3-FC\def2QZVP\C4H6\BOITTIER\26-Aug-2020\0\\
 #p B2PLYPD3/Def2QZVP\\butadiene\\0,1\C,0,-3.842598,0.240499,0.028807\C
 ,0,-2.726408,-0.510758,0.040023\C,0,-1.387092,0.040753,-0.007685\C,0,-
 0.247462,-0.632759,0.053992\H,0,-4.822282,-0.209539,-0.014599\H,0,-3.7
 44822,1.307819,0.051347\H,0,-2.845316,-1.599986,-0.072907\H,0,-1.38793
 5,1.071779,-0.087576\H,0,-0.269265,-1.719587,0.089125\H,0,0.697899,-0.
 138638,-0.048699\\Version=ES64L-G09RevD.01\State=1-A\HF=-155.6975224\M
 P2=-155.9230523\RMSD=6.077e-09\PG=C01 [X(C4H6)]\\@

 Normal termination of Gaussian 09 at Wed Aug 26 22:14:28 2020.
