 Gaussian 09, Revision D.01,
 Gaussian 09:  ES64L-G09RevD.01 24-Apr-2013

 --------------------
 #p B2PLYPD3/Def2QZVP
 --------------------

 ---------
 butadiene
 ---------
 Symbolic Z-matrix:
 Charge =  0 Multiplicity = 1

                         Standard orientation:
 ---------------------------------------------------------------------
 Center     Atomic      Atomic             Coordinates (Angstroms)
 Number     Number       Type             X           Y           Z
 ---------------------------------------------------------------------
      1          6           0        1.866659   -0.088583    0.042779
      2          6           0        0.627994    0.404744   -0.042525
      3          6           0       -0.584223   -0.386343   -0.075763
      4          6           0       -1.885188    0.090026    0.008869
      5          1           0        2.796394    0.425090    0.059288
      6          1           0        1.950335   -1.208331    0.088144
      7          1           0        0.449048    1.533401   -0.005288
      8          1           0       -0.398911   -1.426745   -0.066792
      9          1           0       -2.228374    1.134590    0.074174
     10          1           0       -2.719950   -0.577072    0.250310
 ---------------------------------------------------------------------

 SCF Done:  E(RB2PLYPD3) =  -155.685654410     A.U. after   11 cycles
 E2(B2PLYPD3) =    -0.2278814225D+00 E(B2PLYPD3) =    -0.15591353583215D+03

 The electronic state is 1-A.
 Alpha  occ. eigenvalues --  -10.63499 -10.63395 -10.62947 -10.62164  -0.92591
 Alpha  occ. eigenvalues --   -0.84116  -0.70936  -0.63712  -0.55286  -0.52552
 Alpha  occ. eigenvalues --   -0.47621  -0.44641  -0.40523  -0.37891  -0.27297
 Alpha virt. eigenvalues --    0.00607   0.06930   0.07265   0.08077   0.09420
 Alpha virt. eigenvalues --    0.11350   0.12550   0.14509   0.15794   0.16332
 Alpha virt. eigenvalues --    0.19076   0.20038   0.21809   0.22150   0.23637

 Mulliken charges:
               1
     1  C   -0.163786
     2  C   -0.020262
     3  C   -0.040940
     4  C   -0.168532
     5  H    0.095802
     6  H    0.046985
     7  H    0.045602
     8  H    0.062962
     9  H    0.065282
    10  H    0.076886
 Sum of Mulliken charges =   0.00000

 Dipole moment (field-independent basis, Debye):
    X=              0.0720    Y=              0.0041    Z=              0.2787  Tot=              0.2879
 Quadrupole moment (field-independent basis, Debye-Ang):
   XX=            -22.8821   YY=            -23.6431   ZZ=            -29.4606
   XY=             -0.4340   XZ=             -0.5743   YZ=             -0.0866

 1\1\GINC-NODE23\SP\RB2PLYPD3-FC\def2QZVP\C4H6\BOITTIER\26-Aug-2020\0\\
 #p B2PLYPD3/Def2QZVP\\butadiene\\0,1\C,0,-3.866626,0.221637,0.060725\C
 ,0,-2.741077,-0.495086,-0.005513\C,0,-1.402843,0.056002,-0.048242\C,0,
 -0.213328,-0.651743,0.055447\H,0,-4.875688,-0.109815,0.08246\H,0,-3.74
 0769,1.338173,0.080796\H,0,-2.775175,-1.636182,0.05782\H,0,-1.391516,1
 .112646,-0.063471\H,0,-0.070482,-1.740108,0.146063\H,0,0.730334,-0.146
 018,0.28758\\Version=ES64L-G09RevD.01\State=1-A\HF=-155.6856544\MP2=-1
 55.9135358\RMSD=8.425e-09\PG=C01 [X(C4H6)]\\@

 Normal termination of Gaussian 09 at Wed Aug 26 11:27:15 2020.
