 Gaussian 09, Revision D.01,
 Gaussian 09:  ES64L-G09RevD.01 24-Apr-2013

 --------------------
 #p B2PLYPD3/Def2QZVP
 --------------------

 ---------
 butadiene
 ---------
 Symbolic Z-matrix:
 Charge =  0 Multiplicity = 1

                         Standard orientation:
 ---------------------------------------------------------------------
 Center     Atomic      Atomic             Coordinates (Angstroms)
 Number     Number       Type             X           Y           Z
 ---------------------------------------------------------------------
      1          6           0        1.878343   -0.129415    0.015918
      2          6           0        0.608737    0.449318   -0.056435
      3          6           0       -0.627336   -0.360762   -0.107312
      4          6           0       -1.886055    0.079496    0.076276
      5          1           0        2.822833    0.423446    0.363260
      6          1           0        1.937212   -1.214919    0.087587
      7          1           0        0.514889    1.502990   -0.170484
      8          1           0       -0.390291   -1.443274   -0.119892
      9          1           0       -2.154357    1.115187    0.056075
     10          1           0       -2.572423   -0.615250    0.212770
 ---------------------------------------------------------------------

 SCF Done:  E(RB2PLYPD3) =  -155.676713386     A.U. after   12 cycles
 E2(B2PLYPD3) =    -0.2279834873D+00 E(B2PLYPD3) =    -0.15590469687316D+03

 The electronic state is 1-A.
 Alpha  occ. eigenvalues --  -10.63752 -10.63338 -10.63260 -10.60816  -0.92151
 Alpha  occ. eigenvalues --   -0.84405  -0.70647  -0.64178  -0.54809  -0.53440
 Alpha  occ. eigenvalues --   -0.46638  -0.45742  -0.41659  -0.36978  -0.27241
 Alpha virt. eigenvalues --    0.00656   0.06942   0.07497   0.08026   0.08890
 Alpha virt. eigenvalues --    0.11439   0.12555   0.14463   0.15522   0.16296
 Alpha virt. eigenvalues --    0.19104   0.19806   0.21663   0.22879   0.23521

 Mulliken charges:
               1
     1  C   -0.170885
     2  C   -0.042023
     3  C   -0.035547
     4  C   -0.179356
     5  H    0.079875
     6  H    0.058109
     7  H    0.069934
     8  H    0.049973
     9  H    0.077290
    10  H    0.092630
 Sum of Mulliken charges =   0.00000

 Dipole moment (field-independent basis, Debye):
    X=             -0.1273    Y=              0.0258    Z=              0.2935  Tot=              0.3210
 Quadrupole moment (field-independent basis, Debye-Ang):
   XX=            -23.7057   YY=            -23.2281   ZZ=            -29.3239
   XY=             -0.3367   XZ=              0.4975   YZ=             -0.1302

 1\1\GINC-NODE10\SP\RB2PLYPD3-FC\def2QZVP\C4H6\BOITTIER\26-Aug-2020\0\\
 #p B2PLYPD3/Def2QZVP\\butadiene\\0,1\C,0,-3.877999,0.256371,0.053285\C
 ,0,-2.734485,-0.543035,-0.020143\C,0,-1.372336,0.029548,-0.078381\C,0,
 -0.213495,-0.630682,0.103524\H,0,-4.905699,-0.114881,0.405943\H,0,-3.7
 39027,1.33486,0.120136\H,0,-2.83345,-1.596724,-0.129623\H,0,-1.409447,
 1.137031,-0.095239\H,0,-0.137286,-1.697912,0.087294\H,0,0.587854,-0.07
 121,0.234802\\Version=ES64L-G09RevD.01\State=1-A\HF=-155.6767134\MP2=-
 155.9046969\RMSD=4.843e-09\PG=C01 [X(C4H6)]\\@

 Normal termination of Gaussian 09 at Wed Aug 26 11:34:55 2020.
