 Gaussian 09, Revision D.01,
 Gaussian 09:  ES64L-G09RevD.01 24-Apr-2013

 --------------------
 #p B2PLYPD3/Def2QZVP
 --------------------

 ---------
 butadiene
 ---------
 Symbolic Z-matrix:
 Charge =  0 Multiplicity = 1

                         Standard orientation:
 ---------------------------------------------------------------------
 Center     Atomic      Atomic             Coordinates (Angstroms)
 Number     Number       Type             X           Y           Z
 ---------------------------------------------------------------------
      1          6           0        1.826781    0.091306   -0.018502
      2          6           0        0.591374   -0.380783    0.031948
      3          6           0       -0.598753    0.419736    0.008075
      4          6           0       -1.826727   -0.122920   -0.010311
      5          1           0        2.726973   -0.552288   -0.064552
      6          1           0        2.021914    1.157460   -0.027974
      7          1           0        0.435751   -1.449570    0.060437
      8          1           0       -0.460317    1.484412    0.069118
      9          1           0       -1.983031   -1.194679   -0.052877
     10          1           0       -2.697342    0.510630   -0.051404
 ---------------------------------------------------------------------

 SCF Done:  E(RB2PLYPD3) =  -155.700056785     A.U. after   11 cycles
 E2(B2PLYPD3) =    -0.2256884081D+00 E(B2PLYPD3) =    -0.15592574519258D+03

 The electronic state is 1-A.
 Alpha  occ. eigenvalues --  -10.62403 -10.62040 -10.61635 -10.61536  -0.93390
 Alpha  occ. eigenvalues --   -0.84826  -0.70226  -0.64308  -0.54655  -0.53878
 Alpha  occ. eigenvalues --   -0.46701  -0.45541  -0.41200  -0.38337  -0.27587
 Alpha virt. eigenvalues --    0.01699   0.07005   0.07407   0.08064   0.09678
 Alpha virt. eigenvalues --    0.11711   0.12435   0.14784   0.15809   0.16131
 Alpha virt. eigenvalues --    0.18724   0.20489   0.21734   0.22798   0.23715

 Mulliken charges:
               1
     1  C   -0.175238
     2  C   -0.020900
     3  C   -0.034721
     4  C   -0.177748
     5  H    0.082394
     6  H    0.061036
     7  H    0.053259
     8  H    0.058641
     9  H    0.068935
    10  H    0.084342
 Sum of Mulliken charges =   0.00000

 Dipole moment (field-independent basis, Debye):
    X=             -0.0244    Y=              0.0126    Z=             -0.0358  Tot=              0.0451
 Quadrupole moment (field-independent basis, Debye-Ang):
   XX=            -23.5370   YY=            -23.1172   ZZ=            -29.2181
   XY=              0.2212   XZ=             -0.0080   YZ=              0.0722

 1\1\GINC-NODE02\SP\RB2PLYPD3-FC\def2QZVP\C4H6\BOITTIER\26-Aug-2020\0\\
 #p B2PLYPD3/Def2QZVP\\butadiene\\0,1\C,0,-3.832125,0.210417,0.037542\C
 ,0,-2.704643,-0.482009,0.006358\C,0,-1.387675,0.086667,0.003781\C,0,-0
 .28013,-0.671268,0.043902\H,0,-4.834948,-0.254863,0.104921\H,0,-3.8281
 55,1.293925,0.008452\H,0,-2.748024,-1.561524,0.016462\H,0,-1.328577,1.
 155804,-0.095619\H,0,-0.323051,-1.751301,0.125123\H,0,0.692187,-0.2073
 24,0.063913\\Version=ES64L-G09RevD.01\State=1-A\HF=-155.7000568\MP2=-1
 55.9257452\RMSD=5.843e-09\PG=C01 [X(C4H6)]\\@

 Normal termination of Gaussian 09 at Wed Aug 26 19:39:12 2020.
