 Gaussian 09, Revision D.01,
 Gaussian 09:  ES64L-G09RevD.01 24-Apr-2013

 --------------------
 #p B2PLYPD3/Def2QZVP
 --------------------

 ---------
 butadiene
 ---------
 Symbolic Z-matrix:
 Charge =  0 Multiplicity = 1

                         Standard orientation:
 ---------------------------------------------------------------------
 Center     Atomic      Atomic             Coordinates (Angstroms)
 Number     Number       Type             X           Y           Z
 ---------------------------------------------------------------------
      1          6           0        1.816805   -0.141076    0.100367
      2          6           0        0.608309    0.458288   -0.098088
      3          6           0       -0.589388   -0.388267   -0.112868
      4          6           0       -1.838838    0.085020    0.057351
      5          1           0        2.674036    0.510051    0.017038
      6          1           0        1.935625   -1.226360    0.047086
      7          1           0        0.450121    1.558705    0.066948
      8          1           0       -0.365354   -1.403682   -0.092772
      9          1           0       -2.134619    1.079806    0.027515
     10          1           0       -2.541139   -0.602310    0.253612
 ---------------------------------------------------------------------

 SCF Done:  E(RB2PLYPD3) =  -155.680872902     A.U. after   11 cycles
 E2(B2PLYPD3) =    -0.2267810261D+00 E(B2PLYPD3) =    -0.15590765392796D+03

 The electronic state is 1-A.
 Alpha  occ. eigenvalues --  -10.63303 -10.62177 -10.61948 -10.60234  -0.92775
 Alpha  occ. eigenvalues --   -0.84715  -0.70758  -0.64412  -0.54398  -0.54277
 Alpha  occ. eigenvalues --   -0.47139  -0.45998  -0.41384  -0.37534  -0.27194
 Alpha virt. eigenvalues --    0.01265   0.07109   0.07368   0.08292   0.08689
 Alpha virt. eigenvalues --    0.11851   0.12536   0.14951   0.15302   0.16478
 Alpha virt. eigenvalues --    0.18880   0.19225   0.22150   0.23035   0.24659

 Mulliken charges:
               1
     1  C   -0.174586
     2  C   -0.040515
     3  C   -0.036910
     4  C   -0.179807
     5  H    0.081302
     6  H    0.066124
     7  H    0.063106
     8  H    0.063368
     9  H    0.076344
    10  H    0.081575
 Sum of Mulliken charges =   0.00000

 Dipole moment (field-independent basis, Debye):
    X=             -0.0581    Y=             -0.0036    Z=              0.1365  Tot=              0.1484
 Quadrupole moment (field-independent basis, Debye-Ang):
   XX=            -24.0978   YY=            -22.8019   ZZ=            -29.2213
   XY=             -0.5400   XZ=             -0.6219   YZ=             -0.0217

 1\1\GINC-NODE25\SP\RB2PLYPD3-FC\def2QZVP\C4H6\BOITTIER\26-Aug-2020\0\\
 #p B2PLYPD3/Def2QZVP\\butadiene\\0,1\C,0,-3.80968,0.269445,0.115991\C,
 0,-2.735479,-0.55119,-0.062152\C,0,-1.399492,0.053727,-0.085994\C,0,-0
 .262307,-0.643054,0.102177\H,0,-4.774162,-0.209897,0.040084\H,0,-3.721
 378,1.356284,0.03996\H,0,-2.788289,-1.657951,0.12618\H,0,-1.427905,1.0
 93367,-0.08796\H,0,-0.159517,-1.67618,0.094471\H,0,0.556547,-0.096554,
 0.289214\\Version=ES64L-G09RevD.01\State=1-A\HF=-155.6808729\MP2=-155.
 9076539\RMSD=9.183e-09\PG=C01 [X(C4H6)]\\@

 Normal termination of Gaussian 09 at Wed Aug 26 12:14:29 2020.
