 Gaussian 09, Revision D.01,
 Gaussian 09:  ES64L-G09RevD.01 24-Apr-2013

 --------------------
 #p B2PLYPD3/Def2QZVP
 --------------------

 ---------
 butadiene
 ---------
 Symbolic Z-matrix:
 Charge =  0 Multiplicity = 1

                         Standard orientation:
 ---------------------------------------------------------------------
 Center     Atomic      Atomic             Coordinates (Angstroms)
 Number     Number       Type             X           Y           Z
 ---------------------------------------------------------------------
      1          6           0       -1.861358    0.110880   -0.012796
      2          6           0       -0.614470   -0.364567   -0.001586
      3          6           0        0.608863    0.402835    0.015971
      4          6           0        1.821614   -0.149812   -0.055061
      5          1           0       -2.642712   -0.599991    0.059526
      6          1           0       -1.994567    1.162061   -0.210254
      7          1           0       -0.424797   -1.434672    0.208093
      8          1           0        0.683616    1.485471    0.263217
      9          1           0        1.989240   -1.172068   -0.060162
     10          1           0        2.661323    0.563179    0.060412
 ---------------------------------------------------------------------

 SCF Done:  E(RB2PLYPD3) =  -155.687863573     A.U. after   11 cycles
 E2(B2PLYPD3) =    -0.2261932246D+00 E(B2PLYPD3) =    -0.15591405679773D+03

 The electronic state is 1-A.
 Alpha  occ. eigenvalues --  -10.62611 -10.62468 -10.61266 -10.61146  -0.93135
 Alpha  occ. eigenvalues --   -0.85375  -0.70207  -0.63609  -0.55263  -0.53634
 Alpha  occ. eigenvalues --   -0.46390  -0.45573  -0.41493  -0.37384  -0.27851
 Alpha virt. eigenvalues --    0.01609   0.07130   0.07255   0.07878   0.09479
 Alpha virt. eigenvalues --    0.11768   0.12198   0.14794   0.15546   0.16057
 Alpha virt. eigenvalues --    0.18712   0.19510   0.21346   0.22775   0.24402

 Mulliken charges:
               1
     1  C   -0.190759
     2  C   -0.028927
     3  C   -0.025544
     4  C   -0.177061
     5  H    0.093194
     6  H    0.081519
     7  H    0.050434
     8  H    0.052648
     9  H    0.071004
    10  H    0.073493
 Sum of Mulliken charges =   0.00000

 Dipole moment (field-independent basis, Debye):
    X=              0.0486    Y=             -0.0452    Z=              0.2715  Tot=              0.2795
 Quadrupole moment (field-independent basis, Debye-Ang):
   XX=            -23.9854   YY=            -23.0863   ZZ=            -29.0855
   XY=              0.1104   XZ=              0.4049   YZ=             -0.1250

 1\1\GINC-NODE24\SP\RB2PLYPD3-FC\def2QZVP\C4H6\BOITTIER\26-Aug-2020\0\\
 #p B2PLYPD3/Def2QZVP\\butadiene\\0,1\C,0,-3.861611,0.213686,0.004808\C
 ,0,-2.715136,-0.468446,0.039425\C,0,-1.377998,0.077281,0.038262\C,0,-0
 .278436,-0.677804,-0.006907\H,0,-4.753635,-0.349314,0.096494\H,0,-3.81
 1948,1.264715,-0.22883\H,0,-2.712434,-1.547398,0.286249\H,0,-1.118061,
 1.138763,0.249231\H,0,-0.289219,-1.713222,0.023516\H,0,0.671438,-0.116
 313,0.089364\\Version=ES64L-G09RevD.01\State=1-A\HF=-155.6878636\MP2=-
 155.9140568\RMSD=3.894e-09\PG=C01 [X(C4H6)]\\@

 Normal termination of Gaussian 09 at Wed Aug 26 13:15:04 2020.
