 Gaussian 09, Revision D.01,
 Gaussian 09:  ES64L-G09RevD.01 24-Apr-2013

 --------------------
 #p B2PLYPD3/Def2QZVP
 --------------------

 ---------
 butadiene
 ---------
 Symbolic Z-matrix:
 Charge =  0 Multiplicity = 1

                         Standard orientation:
 ---------------------------------------------------------------------
 Center     Atomic      Atomic             Coordinates (Angstroms)
 Number     Number       Type             X           Y           Z
 ---------------------------------------------------------------------
      1          6           0       -1.842615    0.112364    0.009492
      2          6           0       -0.607350   -0.405204   -0.033886
      3          6           0        0.599648    0.393669   -0.010505
      4          6           0        1.837394   -0.112947    0.018023
      5          1           0       -2.707221   -0.517546    0.045683
      6          1           0       -1.986230    1.179026    0.089612
      7          1           0       -0.480032   -1.490760   -0.029908
      8          1           0        0.474147    1.493307   -0.071239
      9          1           0        2.082315   -1.151222    0.064021
     10          1           0        2.694558    0.559909    0.003089
 ---------------------------------------------------------------------

 SCF Done:  E(RB2PLYPD3) =  -155.700007806     A.U. after   11 cycles
 E2(B2PLYPD3) =    -0.2259145054D+00 E(B2PLYPD3) =    -0.15592592231185D+03

 The electronic state is 1-A.
 Alpha  occ. eigenvalues --  -10.62807 -10.62601 -10.61487 -10.61429  -0.92924
 Alpha  occ. eigenvalues --   -0.84845  -0.70340  -0.63868  -0.54728  -0.53856
 Alpha  occ. eigenvalues --   -0.46575  -0.45645  -0.41102  -0.38127  -0.27583
 Alpha virt. eigenvalues --    0.01603   0.07001   0.07390   0.08004   0.09592
 Alpha virt. eigenvalues --    0.11654   0.12408   0.14853   0.15802   0.16172
 Alpha virt. eigenvalues --    0.18781   0.20494   0.21747   0.22671   0.23718

 Mulliken charges:
               1
     1  C   -0.175098
     2  C   -0.031418
     3  C   -0.027627
     4  C   -0.177267
     5  H    0.087457
     6  H    0.065813
     7  H    0.054604
     8  H    0.053094
     9  H    0.070419
    10  H    0.080024
 Sum of Mulliken charges =   0.00000

 Dipole moment (field-independent basis, Debye):
    X=              0.0088    Y=             -0.0342    Z=              0.0711  Tot=              0.0794
 Quadrupole moment (field-independent basis, Debye-Ang):
   XX=            -23.4902   YY=            -23.0629   ZZ=            -29.2903
   XY=             -0.2395   XZ=             -0.2165   YZ=             -0.0602

 1\1\GINC-NODE35\SP\RB2PLYPD3-FC\def2QZVP\C4H6\BOITTIER\26-Aug-2020\0\\
 #p B2PLYPD3/Def2QZVP\\butadiene\\0,1\C,0,-3.842247,0.230115,0.031601\C
 ,0,-2.721176,-0.503485,0.005725\C,0,-1.389526,0.064221,0.00293\C,0,-0.
 263623,-0.656714,0.048559\H,0,-4.806264,-0.231493,0.088425\H,0,-3.7901
 94,1.307197,0.076285\H,0,-2.79219,-1.593446,0.045716\H,0,-1.314505,1.1
 65843,-0.094251\H,0,-0.210185,-1.7201,0.12901\H,0,0.700961,-0.150851,0
 .011555\\Version=ES64L-G09RevD.01\State=1-A\HF=-155.7000078\MP2=-155.9
 259223\RMSD=3.004e-09\PG=C01 [X(C4H6)]\\@

 Normal termination of Gaussian 09 at Wed Aug 26 20:55:03 2020.
