 Gaussian 09, Revision D.01,
 Gaussian 09:  ES64L-G09RevD.01 24-Apr-2013

 --------------------
 #p B2PLYPD3/Def2QZVP
 --------------------

 ---------
 butadiene
 ---------
 Symbolic Z-matrix:
 Charge =  0 Multiplicity = 1

                         Standard orientation:
 ---------------------------------------------------------------------
 Center     Atomic      Atomic             Coordinates (Angstroms)
 Number     Number       Type             X           Y           Z
 ---------------------------------------------------------------------
      1          6           0        1.817240    0.055787    0.075308
      2          6           0        0.593893   -0.368586   -0.055294
      3          6           0       -0.597342    0.433483   -0.067955
      4          6           0       -1.825675   -0.130935    0.019147
      5          1           0        2.788536   -0.449439   -0.035227
      6          1           0        1.913109    1.218292   -0.043482
      7          1           0        0.434154   -1.474626    0.094547
      8          1           0       -0.422678    1.532466   -0.002652
      9          1           0       -1.882621   -1.227838   -0.089379
     10          1           0       -2.759193    0.462654    0.248955
 ---------------------------------------------------------------------

 SCF Done:  E(RB2PLYPD3) =  -155.679109444     A.U. after   11 cycles
 E2(B2PLYPD3) =    -0.2277548994D+00 E(B2PLYPD3) =    -0.15590686434347D+03

 The electronic state is 1-A.
 Alpha  occ. eigenvalues --  -10.63330 -10.62927 -10.62529 -10.62050  -0.93535
 Alpha  occ. eigenvalues --   -0.84778  -0.69486  -0.63140  -0.54789  -0.52749
 Alpha  occ. eigenvalues --   -0.47073  -0.44070  -0.39886  -0.38462  -0.27854
 Alpha virt. eigenvalues --    0.01340   0.06990   0.07047   0.07846   0.09279
 Alpha virt. eigenvalues --    0.11637   0.12586   0.14028   0.15208   0.16487
 Alpha virt. eigenvalues --    0.18610   0.18725   0.21856   0.23332   0.23714

 Mulliken charges:
               1
     1  C   -0.158604
     2  C   -0.006973
     3  C   -0.037288
     4  C   -0.173098
     5  H    0.091294
     6  H    0.026952
     7  H    0.043079
     8  H    0.053704
     9  H    0.071189
    10  H    0.089746
 Sum of Mulliken charges =   0.00000

 Dipole moment (field-independent basis, Debye):
    X=             -0.0739    Y=             -0.0565    Z=              0.0655  Tot=              0.1138
 Quadrupole moment (field-independent basis, Debye-Ang):
   XX=            -23.3968   YY=            -23.7259   ZZ=            -29.3102
   XY=             -0.1634   XZ=             -0.7937   YZ=              0.1059

 1\1\GINC-NODE04\SP\RB2PLYPD3-FC\def2QZVP\C4H6\BOITTIER\26-Aug-2020\0\\
 #p B2PLYPD3/Def2QZVP\\butadiene\\0,1\C,0,-3.830851,0.171245,-0.047125\
 C,0,-2.704206,-0.46616,0.087456\C,0,-1.386724,0.105363,0.076516\C,0,-0
 .282565,-0.67528,-0.003402\H,0,-4.876944,-0.145939,0.079254\H,0,-3.712
 31,1.334018,0.045761\H,0,-2.74993,-1.585737,-0.038042\H,0,-1.358815,1.
 216115,-0.012844\H,0,-0.425467,-1.7616,0.129661\H,0,0.741452,-0.266901
 ,-0.250849\\Version=ES64L-G09RevD.01\State=1-A\HF=-155.6791094\MP2=-15
 5.9068643\RMSD=8.362e-09\PG=C01 [X(C4H6)]\\@

 Normal termination of Gaussian 09 at Wed Aug 26 13:59:59 2020.
