 Gaussian 09, Revision D.01,
 Gaussian 09:  ES64L-G09RevD.01 24-Apr-2013

 --------------------
 #p B2PLYPD3/Def2QZVP
 --------------------

 ---------
 butadiene
 ---------
 Symbolic Z-matrix:
 Charge =  0 Multiplicity = 1

                         Standard orientation:
 ---------------------------------------------------------------------
 Center     Atomic      Atomic             Coordinates (Angstroms)
 Number     Number       Type             X           Y           Z
 ---------------------------------------------------------------------
      1          6           0       -1.814395   -0.106178    0.052123
      2          6           0       -0.627633    0.402822   -0.054373
      3          6           0        0.597068   -0.426537   -0.114150
      4          6           0        1.834143    0.100852    0.088330
      5          1           0       -2.738717    0.483557   -0.019004
      6          1           0       -1.955053   -1.207185    0.257343
      7          1           0       -0.593464    1.536948   -0.120181
      8          1           0        0.491650   -1.474486   -0.070405
      9          1           0        2.040127    1.250491    0.162033
     10          1           0        2.820361   -0.415077   -0.041363
 ---------------------------------------------------------------------

 SCF Done:  E(RB2PLYPD3) =  -155.680097275     A.U. after   12 cycles
 E2(B2PLYPD3) =    -0.2270683116D+00 E(B2PLYPD3) =    -0.15590716558613D+03

 The electronic state is 1-A.
 Alpha  occ. eigenvalues --  -10.63351 -10.63244 -10.62741 -10.61489  -0.92835
 Alpha  occ. eigenvalues --   -0.84728  -0.68933  -0.63480  -0.54407  -0.53175
 Alpha  occ. eigenvalues --   -0.46968  -0.43445  -0.40709  -0.37630  -0.28070
 Alpha virt. eigenvalues --    0.01686   0.06919   0.07214   0.07749   0.09229
 Alpha virt. eigenvalues --    0.11396   0.12387   0.14091   0.15671   0.16456
 Alpha virt. eigenvalues --    0.19033   0.19727   0.21678   0.21906   0.23431

 Mulliken charges:
               1
     1  C   -0.163677
     2  C   -0.020324
     3  C   -0.060931
     4  C   -0.150365
     5  H    0.083226
     6  H    0.053500
     7  H    0.055228
     8  H    0.076803
     9  H    0.049364
    10  H    0.077177
 Sum of Mulliken charges =   0.00000

 Dipole moment (field-independent basis, Debye):
    X=             -0.0272    Y=             -0.0013    Z=              0.0214  Tot=              0.0347
 Quadrupole moment (field-independent basis, Debye-Ang):
   XX=            -23.2939   YY=            -23.3944   ZZ=            -29.3665
   XY=              0.0263   XZ=             -0.1665   YZ=             -0.1731

 1\1\GINC-NODE18\SP\RB2PLYPD3-FC\def2QZVP\C4H6\BOITTIER\26-Aug-2020\0\\
 #p B2PLYPD3/Def2QZVP\\butadiene\\0,1\C,0,-3.819146,0.20342,-0.039623\C
 ,0,-2.740019,-0.501568,0.091919\C,0,-1.388241,0.101076,0.120566\C,0,-0
 .26416,-0.643825,-0.05566\H,0,-4.832501,-0.210923,0.05337\H,0,-3.76475
 6,1.302393,-0.291446\H,0,-2.905666,-1.620227,0.205515\H,0,-1.307799,1.
 148445,0.032418\H,0,-0.264009,-1.813836,-0.08026\H,0,0.798007,-0.30453
 1,0.055288\\Version=ES64L-G09RevD.01\State=1-A\HF=-155.6800973\MP2=-15
 5.9071656\RMSD=3.348e-09\PG=C01 [X(C4H6)]\\@

 Normal termination of Gaussian 09 at Wed Aug 26 14:41:11 2020.
