 Gaussian 09, Revision D.01,
 Gaussian 09:  ES64L-G09RevD.01 24-Apr-2013

 --------------------
 #p B2PLYPD3/Def2QZVP
 --------------------

 ---------
 butadiene
 ---------
 Symbolic Z-matrix:
 Charge =  0 Multiplicity = 1

                         Standard orientation:
 ---------------------------------------------------------------------
 Center     Atomic      Atomic             Coordinates (Angstroms)
 Number     Number       Type             X           Y           Z
 ---------------------------------------------------------------------
      1          6           0        1.836040    0.115718   -0.008055
      2          6           0        0.612429   -0.408856    0.020222
      3          6           0       -0.608719    0.371519   -0.017302
      4          6           0       -1.849274   -0.105522    0.005601
      5          1           0        2.745905   -0.469390   -0.020531
      6          1           0        2.007556    1.221143    0.120714
      7          1           0        0.578442   -1.483253   -0.105549
      8          1           0       -0.514481    1.451588   -0.072086
      9          1           0       -2.105783   -1.136003    0.090307
     10          1           0       -2.654492    0.578770   -0.015655
 ---------------------------------------------------------------------

 SCF Done:  E(RB2PLYPD3) =  -155.697184592     A.U. after   11 cycles
 E2(B2PLYPD3) =    -0.2255333545D+00 E(B2PLYPD3) =    -0.15592271794694D+03

 The electronic state is 1-A.
 Alpha  occ. eigenvalues --  -10.62510 -10.62448 -10.61932 -10.60923  -0.93032
 Alpha  occ. eigenvalues --   -0.85233  -0.70268  -0.63920  -0.54744  -0.54334
 Alpha  occ. eigenvalues --   -0.46716  -0.45115  -0.41018  -0.38179  -0.27846
 Alpha virt. eigenvalues --    0.01706   0.07039   0.07538   0.07932   0.09649
 Alpha virt. eigenvalues --    0.11551   0.12426   0.14767   0.15685   0.16488
 Alpha virt. eigenvalues --    0.18896   0.20010   0.21846   0.22586   0.23803

 Mulliken charges:
               1
     1  C   -0.165522
     2  C   -0.037674
     3  C   -0.031127
     4  C   -0.174340
     5  H    0.082153
     6  H    0.056299
     7  H    0.061492
     8  H    0.055765
     9  H    0.070310
    10  H    0.082644
 Sum of Mulliken charges =   0.00000

 Dipole moment (field-independent basis, Debye):
    X=              0.0201    Y=             -0.0279    Z=              0.0086  Tot=              0.0355
 Quadrupole moment (field-independent basis, Debye-Ang):
   XX=            -23.2550   YY=            -23.1967   ZZ=            -29.1792
   XY=              0.0164   XZ=             -0.0402   YZ=              0.1008

 1\1\GINC-NODE15\SP\RB2PLYPD3-FC\def2QZVP\C4H6\BOITTIER\26-Aug-2020\0\\
 #p B2PLYPD3/Def2QZVP\\butadiene\\0,1\C,0,-3.839056,0.227143,0.025589\C
 ,0,-2.72783,-0.506578,0.019957\C,0,-1.38762,0.046002,0.029178\C,0,-0.2
 51273,-0.643768,0.027093\H,0,-4.838073,-0.186612,0.059265\H,0,-3.81278
 6,1.339645,-0.146498\H,0,-2.883976,-1.56432,0.187595\H,0,-1.288835,1.1
 26982,0.04163\H,0,-0.181728,-1.705884,-0.016905\H,0,0.662488,-0.11263,
 0.02307\\Version=ES64L-G09RevD.01\State=1-A\HF=-155.6971846\MP2=-155.9
 227179\RMSD=4.964e-09\PG=C01 [X(C4H6)]\\@

 Normal termination of Gaussian 09 at Wed Aug 26 22:15:48 2020.
