 Gaussian 09, Revision D.01,
 Gaussian 09:  ES64L-G09RevD.01 24-Apr-2013

 --------------------
 #p B2PLYPD3/Def2QZVP
 --------------------

 ---------
 butadiene
 ---------
 Symbolic Z-matrix:
 Charge =  0 Multiplicity = 1

                         Standard orientation:
 ---------------------------------------------------------------------
 Center     Atomic      Atomic             Coordinates (Angstroms)
 Number     Number       Type             X           Y           Z
 ---------------------------------------------------------------------
      1          6           0       -1.821272   -0.093839    0.030115
      2          6           0       -0.579566    0.380317   -0.059054
      3          6           0        0.589424   -0.426558   -0.045933
      4          6           0        1.824732    0.116239    0.049559
      5          1           0       -2.676968    0.553945    0.120422
      6          1           0       -2.066577   -1.116182   -0.004154
      7          1           0       -0.443039    1.462838   -0.025881
      8          1           0        0.438738   -1.460100    0.045193
      9          1           0        1.952421    1.192326    0.023824
     10          1           0        2.715515   -0.489787   -0.007529
 ---------------------------------------------------------------------

 SCF Done:  E(RB2PLYPD3) =  -155.696491340     A.U. after   11 cycles
 E2(B2PLYPD3) =    -0.2258899214D+00 E(B2PLYPD3) =    -0.15592238126147D+03

 The electronic state is 1-A.
 Alpha  occ. eigenvalues --  -10.62191 -10.62120 -10.61740 -10.60980  -0.93555
 Alpha  occ. eigenvalues --   -0.84697  -0.70749  -0.64744  -0.55004  -0.54008
 Alpha  occ. eigenvalues --   -0.46472  -0.45822  -0.41698  -0.38373  -0.27253
 Alpha virt. eigenvalues --    0.01334   0.07041   0.07516   0.08141   0.09532
 Alpha virt. eigenvalues --    0.11780   0.12602   0.14921   0.15662   0.16319
 Alpha virt. eigenvalues --    0.18795   0.19924   0.22104   0.23027   0.24011

 Mulliken charges:
               1
     1  C   -0.180840
     2  C   -0.016198
     3  C   -0.040601
     4  C   -0.173691
     5  H    0.079184
     6  H    0.065734
     7  H    0.052553
     8  H    0.065704
     9  H    0.064577
    10  H    0.083578
 Sum of Mulliken charges =   0.00000

 Dipole moment (field-independent basis, Debye):
    X=             -0.0235    Y=             -0.0410    Z=              0.0558  Tot=              0.0731
 Quadrupole moment (field-independent basis, Debye-Ang):
   XX=            -23.4948   YY=            -23.1221   ZZ=            -29.1666
   XY=              0.2939   XZ=             -0.3041   YZ=              0.0427

 1\1\GINC-NODE23\SP\RB2PLYPD3-FC\def2QZVP\C4H6\BOITTIER\26-Aug-2020\0\\
 #p B2PLYPD3/Def2QZVP\\butadiene\\0,1\C,0,-3.826027,0.214366,-0.018517\
 C,0,-2.694716,-0.480855,0.088307\C,0,-1.395571,0.092851,0.059304\C,0,-
 0.283479,-0.673443,-0.016716\H,0,-4.787734,-0.264341,-0.09568\H,0,-3.8
 75992,1.265077,-0.011862\H,0,-2.762856,-1.570317,0.083839\H,0,-1.35056
 5,1.133588,-0.059274\H,0,-0.359064,-1.753386,0.037499\H,0,0.704875,-0.
 243171,0.028476\\Version=ES64L-G09RevD.01\State=1-A\HF=-155.6964913\MP
 2=-155.9223813\RMSD=7.554e-09\PG=C01 [X(C4H6)]\\@

 Normal termination of Gaussian 09 at Wed Aug 26 22:22:35 2020.
