 Gaussian 09, Revision D.01,
 Gaussian 09:  ES64L-G09RevD.01 24-Apr-2013

 --------------------
 #p B2PLYPD3/Def2QZVP
 --------------------

 ---------
 butadiene
 ---------
 Symbolic Z-matrix:
 Charge =  0 Multiplicity = 1

                         Standard orientation:
 ---------------------------------------------------------------------
 Center     Atomic      Atomic             Coordinates (Angstroms)
 Number     Number       Type             X           Y           Z
 ---------------------------------------------------------------------
      1          6           0        1.832667   -0.103139   -0.043981
      2          6           0        0.566165    0.361507    0.074729
      3          6           0       -0.601319   -0.442698    0.051666
      4          6           0       -1.788834    0.145080   -0.065234
      5          1           0        2.712847    0.575395   -0.099439
      6          1           0        2.027525   -1.097352   -0.118727
      7          1           0        0.457522    1.442484    0.161160
      8          1           0       -0.667276   -1.488028    0.073869
      9          1           0       -1.863784    1.240007   -0.145095
     10          1           0       -2.718910   -0.437004    0.025146
 ---------------------------------------------------------------------

 SCF Done:  E(RB2PLYPD3) =  -155.689372507     A.U. after   11 cycles
 E2(B2PLYPD3) =    -0.2262011713D+00 E(B2PLYPD3) =    -0.15591557367821D+03

 The electronic state is 1-A.
 Alpha  occ. eigenvalues --  -10.62593 -10.61804 -10.61607 -10.61103  -0.93699
 Alpha  occ. eigenvalues --   -0.84789  -0.70033  -0.64880  -0.55478  -0.53673
 Alpha  occ. eigenvalues --   -0.45565  -0.45377  -0.42329  -0.38265  -0.27211
 Alpha virt. eigenvalues --    0.01523   0.07016   0.07577   0.07853   0.09613
 Alpha virt. eigenvalues --    0.11730   0.12517   0.14673   0.15896   0.16528
 Alpha virt. eigenvalues --    0.18776   0.19950   0.21623   0.22182   0.24073

 Mulliken charges:
               1
     1  C   -0.184134
     2  C   -0.030548
     3  C   -0.034959
     4  C   -0.164335
     5  H    0.078376
     6  H    0.073320
     7  H    0.061360
     8  H    0.066103
     9  H    0.058692
    10  H    0.076126
 Sum of Mulliken charges =   0.00000

 Dipole moment (field-independent basis, Debye):
    X=             -0.0931    Y=             -0.0667    Z=             -0.0070  Tot=              0.1148
 Quadrupole moment (field-independent basis, Debye-Ang):
   XX=            -23.7614   YY=            -22.9904   ZZ=            -29.1718
   XY=              0.1777   XZ=             -0.3750   YZ=             -0.0182

 1\1\GINC-NODE14\SP\RB2PLYPD3-FC\def2QZVP\C4H6\BOITTIER\26-Aug-2020\0\\
 #p B2PLYPD3/Def2QZVP\\butadiene\\0,1\C,0,-3.838545,0.202423,-0.031964\
 C,0,-2.673212,-0.47426,0.102627\C,0,-1.382876,0.112465,0.069698\C,0,-0
 .316479,-0.676426,-0.029235\H,0,-4.823874,-0.312514,-0.078531\H,0,-3.8
 56119,1.213649,-0.127508\H,0,-2.755737,-1.555557,0.211127\H,0,-1.13487
 8,1.130331,0.071436\H,0,-0.434338,-1.768967,-0.086891\H,0,0.701022,-0.
 264449,0.054428\\Version=ES64L-G09RevD.01\State=1-A\HF=-155.6893725\MP
 2=-155.9155737\RMSD=6.445e-09\PG=C01 [X(C4H6)]\\@

 Normal termination of Gaussian 09 at Wed Aug 26 11:38:42 2020.
