 Gaussian 09, Revision D.01,
 Gaussian 09:  ES64L-G09RevD.01 24-Apr-2013

 --------------------
 #p B2PLYPD3/Def2QZVP
 --------------------

 ---------
 butadiene
 ---------
 Symbolic Z-matrix:
 Charge =  0 Multiplicity = 1

                         Standard orientation:
 ---------------------------------------------------------------------
 Center     Atomic      Atomic             Coordinates (Angstroms)
 Number     Number       Type             X           Y           Z
 ---------------------------------------------------------------------
      1          6           0       -1.831696    0.097687   -0.021713
      2          6           0       -0.596500   -0.393390    0.022617
      3          6           0        0.602992    0.427474    0.013031
      4          6           0        1.835234   -0.125464   -0.018002
      5          1           0       -2.717595   -0.521756   -0.051496
      6          1           0       -2.032592    1.153695    0.008195
      7          1           0       -0.468601   -1.484234    0.075368
      8          1           0        0.466260    1.501606    0.043630
      9          1           0        1.957438   -1.172163   -0.032608
     10          1           0        2.734911    0.485008   -0.018680
 ---------------------------------------------------------------------

 SCF Done:  E(RB2PLYPD3) =  -155.699873423     A.U. after   11 cycles
 E2(B2PLYPD3) =    -0.2258498305D+00 E(B2PLYPD3) =    -0.15592572325338D+03

 The electronic state is 1-A.
 Alpha  occ. eigenvalues --  -10.62818 -10.62576 -10.61519 -10.61251  -0.92936
 Alpha  occ. eigenvalues --   -0.84756  -0.70222  -0.64276  -0.54588  -0.54002
 Alpha  occ. eigenvalues --   -0.46593  -0.45719  -0.41372  -0.37995  -0.27519
 Alpha virt. eigenvalues --    0.01696   0.07032   0.07409   0.08060   0.09433
 Alpha virt. eigenvalues --    0.11664   0.12554   0.14716   0.15932   0.16175
 Alpha virt. eigenvalues --    0.18755   0.20553   0.21807   0.22897   0.23756

 Mulliken charges:
               1
     1  C   -0.175222
     2  C   -0.025146
     3  C   -0.036904
     4  C   -0.176546
     5  H    0.082516
     6  H    0.062169
     7  H    0.053673
     8  H    0.060285
     9  H    0.070712
    10  H    0.084464
 Sum of Mulliken charges =   0.00000

 Dipole moment (field-independent basis, Debye):
    X=              0.0004    Y=              0.0081    Z=              0.0474  Tot=              0.0481
 Quadrupole moment (field-independent basis, Debye-Ang):
   XX=            -23.4325   YY=            -23.0762   ZZ=            -29.2878
   XY=             -0.2327   XZ=              0.0030   YZ=              0.0418

 1\1\GINC-NODE36\SP\RB2PLYPD3-FC\def2QZVP\C4H6\BOITTIER\26-Aug-2020\0\\
 #p B2PLYPD3/Def2QZVP\\butadiene\\0,1\C,0,-3.837334,0.211677,-0.001941\
 C,0,-2.711271,-0.493504,0.057486\C,0,-1.38307,0.096179,0.028364\C,0,-0
 .271336,-0.671263,0.01408\H,0,-4.820791,-0.237769,-0.016935\H,0,-3.843
 721,1.28702,-0.000237\H,0,-2.782728,-1.587715,0.139203\H,0,-1.32307,1.
 177746,0.030394\H,0,-0.340611,-1.722811,0.02729\H,0,0.723955,-0.23393,
 -0.001115\\Version=ES64L-G09RevD.01\State=1-A\HF=-155.6998734\MP2=-155
 .9257233\RMSD=5.961e-09\PG=C01 [X(C4H6)]\\@

 Normal termination of Gaussian 09 at Wed Aug 26 21:03:10 2020.
