 Gaussian 09, Revision D.01,
 Gaussian 09:  ES64L-G09RevD.01 24-Apr-2013

 --------------------
 #p B2PLYPD3/Def2QZVP
 --------------------

 ---------
 butadiene
 ---------
 Symbolic Z-matrix:
 Charge =  0 Multiplicity = 1

                         Standard orientation:
 ---------------------------------------------------------------------
 Center     Atomic      Atomic             Coordinates (Angstroms)
 Number     Number       Type             X           Y           Z
 ---------------------------------------------------------------------
      1          6           0        1.860567   -0.092528    0.034041
      2          6           0        0.593875    0.341155   -0.033518
      3          6           0       -0.640019   -0.433491   -0.102509
      4          6           0       -1.854047    0.133084   -0.005686
      5          1           0        2.595191    0.700854    0.136968
      6          1           0        2.204306   -1.131843    0.012954
      7          1           0        0.551840    1.496044   -0.051724
      8          1           0       -0.452356   -1.519288    0.136061
      9          1           0       -1.990350    1.233357    0.129913
     10          1           0       -2.670890   -0.468442    0.281863
 ---------------------------------------------------------------------

 SCF Done:  E(RB2PLYPD3) =  -155.682442825     A.U. after   11 cycles
 E2(B2PLYPD3) =    -0.2275426344D+00 E(B2PLYPD3) =    -0.15590998545971D+03

 The electronic state is 1-A.
 Alpha  occ. eigenvalues --  -10.63561 -10.63241 -10.62139 -10.61712  -0.92588
 Alpha  occ. eigenvalues --   -0.84985  -0.70304  -0.62504  -0.54357  -0.53657
 Alpha  occ. eigenvalues --   -0.46526  -0.45069  -0.40137  -0.37946  -0.27776
 Alpha virt. eigenvalues --    0.01085   0.06894   0.07166   0.07841   0.09205
 Alpha virt. eigenvalues --    0.11381   0.12472   0.14801   0.15221   0.16327
 Alpha virt. eigenvalues --    0.18962   0.19391   0.21544   0.22681   0.24084

 Mulliken charges:
               1
     1  C   -0.183752
     2  C   -0.014081
     3  C   -0.039818
     4  C   -0.154102
     5  H    0.081406
     6  H    0.069099
     7  H    0.033976
     8  H    0.059788
     9  H    0.065344
    10  H    0.082140
 Sum of Mulliken charges =   0.00000

 Dipole moment (field-independent basis, Debye):
    X=             -0.0234    Y=             -0.0132    Z=              0.4831  Tot=              0.4838
 Quadrupole moment (field-independent basis, Debye-Ang):
   XX=            -23.9316   YY=            -23.1866   ZZ=            -29.2972
   XY=             -0.3075   XZ=             -0.8557   YZ=             -0.1670

 1\1\GINC-NODE36\SP\RB2PLYPD3-FC\def2QZVP\C4H6\BOITTIER\26-Aug-2020\0\\
 #p B2PLYPD3/Def2QZVP\\butadiene\\0,1\C,0,-3.871644,0.207298,0.054882\C
 ,0,-2.70352,-0.448756,0.007633\C,0,-1.350103,0.089278,-0.070569\C,0,-0
 .258241,-0.683837,0.049323\H,0,-4.737434,-0.438125,0.17132\H,0,-4.0225
 76,1.290628,0.005972\H,0,-2.87004,-1.59245,0.017732\H,0,-1.339983,1.19
 6785,0.140173\H,0,-0.322699,-1.786905,0.212583\H,0,0.652619,-0.232023,
 0.328518\\Version=ES64L-G09RevD.01\State=1-A\HF=-155.6824428\MP2=-155.
 9099855\RMSD=7.714e-09\PG=C01 [X(C4H6)]\\@

 Normal termination of Gaussian 09 at Wed Aug 26 16:05:19 2020.
