 Gaussian 09, Revision D.01,
 Gaussian 09:  ES64L-G09RevD.01 24-Apr-2013

 --------------------
 #p B2PLYPD3/Def2QZVP
 --------------------

 ---------
 butadiene
 ---------
 Symbolic Z-matrix:
 Charge =  0 Multiplicity = 1

                         Standard orientation:
 ---------------------------------------------------------------------
 Center     Atomic      Atomic             Coordinates (Angstroms)
 Number     Number       Type             X           Y           Z
 ---------------------------------------------------------------------
      1          6           0       -1.816718    0.129363    0.010717
      2          6           0       -0.607612   -0.443596   -0.049420
      3          6           0        0.575759    0.393631    0.008303
      4          6           0        1.816912   -0.101655    0.049128
      5          1           0       -2.818265   -0.459480    0.182693
      6          1           0       -1.846710    1.245304   -0.077766
      7          1           0       -0.438010   -1.538364   -0.005482
      8          1           0        0.575800    1.576107   -0.097096
      9          1           0        2.000353   -1.171564   -0.151915
     10          1           0        2.716791    0.481538    0.037195
 ---------------------------------------------------------------------

 SCF Done:  E(RB2PLYPD3) =  -155.677973454     A.U. after   11 cycles
 E2(B2PLYPD3) =    -0.2280606019D+00 E(B2PLYPD3) =    -0.15590603405564D+03

 The electronic state is 1-A.
 Alpha  occ. eigenvalues --  -10.63620 -10.63314 -10.63120 -10.61348  -0.93005
 Alpha  occ. eigenvalues --   -0.84483  -0.69013  -0.62958  -0.53956  -0.53161
 Alpha  occ. eigenvalues --   -0.46246  -0.43709  -0.41213  -0.37939  -0.27486
 Alpha virt. eigenvalues --    0.01641   0.06741   0.07037   0.07665   0.08988
 Alpha virt. eigenvalues --    0.11548   0.12384   0.14184   0.15538   0.16360
 Alpha virt. eigenvalues --    0.18533   0.19983   0.21020   0.22925   0.24151

 Mulliken charges:
               1
     1  C   -0.159273
     2  C   -0.040105
     3  C   -0.019044
     4  C   -0.172282
     5  H    0.082395
     6  H    0.068416
     7  H    0.064673
     8  H    0.044246
     9  H    0.050405
    10  H    0.080569
 Sum of Mulliken charges =   0.00000

 Dipole moment (field-independent basis, Debye):
    X=             -0.0109    Y=             -0.0167    Z=             -0.1404  Tot=              0.1418
 Quadrupole moment (field-independent basis, Debye-Ang):
   XX=            -23.7300   YY=            -23.2539   ZZ=            -29.4826
   XY=              0.1585   XZ=             -0.7470   YZ=             -0.1531

 1\1\GINC-NODE33\SP\RB2PLYPD3-FC\def2QZVP\C4H6\BOITTIER\26-Aug-2020\0\\
 #p B2PLYPD3/Def2QZVP\\butadiene\\0,1\C,0,-3.812924,0.235379,0.036721\C
 ,0,-2.724627,-0.544004,-0.008105\C,0,-1.411527,0.072375,0.014088\C,0,-
 0.276893,-0.632763,0.067212\H,0,-4.900757,-0.16084,0.234302\H,0,-3.646
 459,1.335295,-0.091831\H,0,-2.750424,-1.649316,0.074544\H,0,-1.203943,
 1.231843,-0.133904\H,0,-0.287321,-1.724576,-0.095917\H,0,0.7116,-0.218
 576,0.030226\\Version=ES64L-G09RevD.01\State=1-A\HF=-155.6779735\MP2=-
 155.9060341\RMSD=9.517e-09\PG=C01 [X(C4H6)]\\@

 Normal termination of Gaussian 09 at Wed Aug 26 14:18:50 2020.
