 Gaussian 09, Revision D.01,
 Gaussian 09:  ES64L-G09RevD.01 24-Apr-2013

 --------------------
 #p B2PLYPD3/Def2QZVP
 --------------------

 ---------
 butadiene
 ---------
 Symbolic Z-matrix:
 Charge =  0 Multiplicity = 1

                         Standard orientation:
 ---------------------------------------------------------------------
 Center     Atomic      Atomic             Coordinates (Angstroms)
 Number     Number       Type             X           Y           Z
 ---------------------------------------------------------------------
      1          6           0       -1.818275   -0.143543    0.046640
      2          6           0       -0.599652    0.423669   -0.038174
      3          6           0        0.601138   -0.370066   -0.060570
      4          6           0        1.834842    0.097650    0.021975
      5          1           0       -2.687936    0.502611    0.038474
      6          1           0       -1.990486   -1.181213   -0.024663
      7          1           0       -0.538245    1.524353   -0.003660
      8          1           0        0.470400   -1.483009    0.014005
      9          1           0        1.967494    1.198202    0.034797
     10          1           0        2.670450   -0.607209    0.121823
 ---------------------------------------------------------------------

 SCF Done:  E(RB2PLYPD3) =  -155.695176093     A.U. after   11 cycles
 E2(B2PLYPD3) =    -0.2262921798D+00 E(B2PLYPD3) =    -0.15592146827256D+03

 The electronic state is 1-A.
 Alpha  occ. eigenvalues --  -10.62852 -10.62422 -10.61643 -10.61365  -0.93175
 Alpha  occ. eigenvalues --   -0.84974  -0.69934  -0.63477  -0.54565  -0.53774
 Alpha  occ. eigenvalues --   -0.46391  -0.45097  -0.41163  -0.38346  -0.27612
 Alpha virt. eigenvalues --    0.01694   0.07018   0.07215   0.07918   0.09582
 Alpha virt. eigenvalues --    0.11775   0.12281   0.14751   0.15730   0.16065
 Alpha virt. eigenvalues --    0.18621   0.20033   0.21350   0.23124   0.24226

 Mulliken charges:
               1
     1  C   -0.174099
     2  C   -0.036501
     3  C   -0.014502
     4  C   -0.179557
     5  H    0.078441
     6  H    0.072690
     7  H    0.053555
     8  H    0.044875
     9  H    0.064897
    10  H    0.090199
 Sum of Mulliken charges =   0.00000

 Dipole moment (field-independent basis, Debye):
    X=             -0.0658    Y=             -0.0152    Z=              0.0884  Tot=              0.1113
 Quadrupole moment (field-independent basis, Debye-Ang):
   XX=            -23.9304   YY=            -22.9292   ZZ=            -29.3071
   XY=             -0.0526   XZ=              0.4155   YZ=             -0.0352

 1\1\GINC-NODE01\SP\RB2PLYPD3-FC\def2QZVP\C4H6\BOITTIER\26-Aug-2020\0\\
 #p B2PLYPD3/Def2QZVP\\butadiene\\0,1\C,0,-3.81822,0.248056,-0.027614\C
 ,0,-2.718942,-0.523296,0.075185\C,0,-1.396245,0.044888,0.067919\C,0,-0
 .265766,-0.637016,-0.000049\H,0,-4.788632,-0.232735,0.004519\H,0,-3.80
 3048,1.301638,0.007526\H,0,-2.854053,-1.617918,0.079188\H,0,-1.32803,1
 .160144,-0.045431\H,0,-0.330573,-1.743416,0.02552\H,0,0.680842,-0.0955
 79,-0.125814\\Version=ES64L-G09RevD.01\State=1-A\HF=-155.6951761\MP2=-
 155.9214683\RMSD=8.207e-09\PG=C01 [X(C4H6)]\\@

 Normal termination of Gaussian 09 at Wed Aug 26 08:46:41 2020.
