 Gaussian 09, Revision D.01,
 Gaussian 09:  ES64L-G09RevD.01 24-Apr-2013

 --------------------
 #p B2PLYPD3/Def2QZVP
 --------------------

 ---------
 butadiene
 ---------
 Symbolic Z-matrix:
 Charge =  0 Multiplicity = 1

                         Standard orientation:
 ---------------------------------------------------------------------
 Center     Atomic      Atomic             Coordinates (Angstroms)
 Number     Number       Type             X           Y           Z
 ---------------------------------------------------------------------
      1          6           0        1.805027    0.120784    0.011011
      2          6           0        0.598267   -0.397655    0.000557
      3          6           0       -0.579363    0.416124   -0.037547
      4          6           0       -1.799233   -0.134758   -0.018948
      5          1           0        2.612809   -0.587905    0.205020
      6          1           0        1.979397    1.155484   -0.125494
      7          1           0        0.462518   -1.405422   -0.079681
      8          1           0       -0.603986    1.541767    0.033202
      9          1           0       -1.849290   -1.186726   -0.040379
     10          1           0       -2.749636    0.455834    0.276893
 ---------------------------------------------------------------------

 SCF Done:  E(RB2PLYPD3) =  -155.681645232     A.U. after   11 cycles
 E2(B2PLYPD3) =    -0.2260600738D+00 E(B2PLYPD3) =    -0.15590770530594D+03

 The electronic state is 1-A.
 Alpha  occ. eigenvalues --  -10.62538 -10.61613 -10.61427 -10.60911  -0.93915
 Alpha  occ. eigenvalues --   -0.85181  -0.69501  -0.64734  -0.55272  -0.53438
 Alpha  occ. eigenvalues --   -0.46654  -0.44773  -0.41950  -0.38068  -0.27453
 Alpha virt. eigenvalues --    0.01798   0.07002   0.07436   0.07878   0.09328
 Alpha virt. eigenvalues --    0.11888   0.12371   0.14690   0.15473   0.16128
 Alpha virt. eigenvalues --    0.18561   0.20079   0.21273   0.23324   0.24329

 Mulliken charges:
               1
     1  C   -0.178909
     2  C   -0.041993
     3  C   -0.020222
     4  C   -0.174448
     5  H    0.078644
     6  H    0.080207
     7  H    0.070718
     8  H    0.053883
     9  H    0.057303
    10  H    0.074817
 Sum of Mulliken charges =   0.00000

 Dipole moment (field-independent basis, Debye):
    X=              0.0650    Y=             -0.0477    Z=              0.2041  Tot=              0.2194
 Quadrupole moment (field-independent basis, Debye-Ang):
   XX=            -24.3605   YY=            -22.9382   ZZ=            -29.0012
   XY=             -0.0906   XZ=             -0.5563   YZ=              0.0483

 1\1\GINC-NODE28\SP\RB2PLYPD3-FC\def2QZVP\C4H6\BOITTIER\26-Aug-2020\0\\
 #p B2PLYPD3/Def2QZVP\\butadiene\\0,1\C,0,-3.80492,0.220471,0.010162\C,
 0,-2.708021,-0.50163,0.033423\C,0,-1.405407,0.093036,0.041765\C,0,-0.3
 01559,-0.664192,0.036985\H,0,-4.726346,-0.340697,-0.158528\H,0,-3.7935
 21,1.273431,0.114022\H,0,-2.750815,-1.514585,0.145453\H,0,-1.183943,1.
 194048,-0.065057\H,0,-0.436989,-1.70738,0.091923\H,0,0.735236,-0.25948
 1,-0.280588\\Version=ES64L-G09RevD.01\State=1-A\HF=-155.6816452\MP2=-1
 55.9077053\RMSD=5.439e-09\PG=C01 [X(C4H6)]\\@

 Normal termination of Gaussian 09 at Wed Aug 26 13:51:48 2020.
