 Gaussian 09, Revision D.01,
 Gaussian 09:  ES64L-G09RevD.01 24-Apr-2013

 --------------------
 #p B2PLYPD3/Def2QZVP
 --------------------

 ---------
 butadiene
 ---------
 Symbolic Z-matrix:
 Charge =  0 Multiplicity = 1

                         Standard orientation:
 ---------------------------------------------------------------------
 Center     Atomic      Atomic             Coordinates (Angstroms)
 Number     Number       Type             X           Y           Z
 ---------------------------------------------------------------------
      1          6           0       -1.854380    0.103516   -0.012428
      2          6           0       -0.585138   -0.410589    0.030533
      3          6           0        0.606723    0.358910   -0.054163
      4          6           0        1.840396   -0.087924    0.023199
      5          1           0       -2.714312   -0.510609    0.025372
      6          1           0       -2.023052    1.263245   -0.120338
      7          1           0       -0.347144   -1.514899    0.109743
      8          1           0        0.431749    1.453977    0.227056
      9          1           0        2.027109   -1.115158   -0.181350
     10          1           0        2.580042    0.639967    0.016671
 ---------------------------------------------------------------------

 SCF Done:  E(RB2PLYPD3) =  -155.677847815     A.U. after   12 cycles
 E2(B2PLYPD3) =    -0.2275929915D+00 E(B2PLYPD3) =    -0.15590544080699D+03

 The electronic state is 1-A.
 Alpha  occ. eigenvalues --  -10.63431 -10.63065 -10.62265 -10.60673  -0.93418
 Alpha  occ. eigenvalues --   -0.84827  -0.70975  -0.62555  -0.55126  -0.53321
 Alpha  occ. eigenvalues --   -0.46900  -0.45099  -0.40563  -0.37974  -0.27627
 Alpha virt. eigenvalues --    0.00972   0.06923   0.07250   0.07947   0.09331
 Alpha virt. eigenvalues --    0.11639   0.12203   0.14775   0.15064   0.16041
 Alpha virt. eigenvalues --    0.18346   0.19398   0.21643   0.23156   0.24059

 Mulliken charges:
               1
     1  C   -0.175589
     2  C   -0.041174
     3  C   -0.003216
     4  C   -0.181007
     5  H    0.096993
     6  H    0.063161
     7  H    0.042106
     8  H    0.042761
     9  H    0.067907
    10  H    0.088059
 Sum of Mulliken charges =   0.00000

 Dipole moment (field-independent basis, Debye):
    X=              0.0154    Y=             -0.0505    Z=              0.0191  Tot=              0.0561
 Quadrupole moment (field-independent basis, Debye-Ang):
   XX=            -23.6168   YY=            -23.4261   ZZ=            -29.2459
   XY=             -0.2037   XZ=             -0.0779   YZ=              0.2150

 1\1\GINC-NODE01\SP\RB2PLYPD3-FC\def2QZVP\C4H6\BOITTIER\26-Aug-2020\0\\
 #p B2PLYPD3/Def2QZVP\\butadiene\\0,1\C,0,-3.853373,0.240936,0.01178\C,
 0,-2.70433,-0.503586,0.0619\C,0,-1.388467,0.025396,-0.030406\C,0,-0.26
 1577,-0.64595,0.053306\H,0,-4.813953,-0.198852,0.055747\H,0,-3.799618,
 1.410316,-0.109573\H,0,-2.67956,-1.632001,0.15399\H,0,-1.352679,1.1369
 29,0.238078\H,0,-0.272909,-1.692226,-0.139279\H,0,0.602462,-0.071335,0
 .039185\\Version=ES64L-G09RevD.01\State=1-A\HF=-155.6778478\MP2=-155.9
 054408\RMSD=3.198e-09\PG=C01 [X(C4H6)]\\@

 Normal termination of Gaussian 09 at Wed Aug 26 11:35:35 2020.
