 Gaussian 09, Revision D.01,
 Gaussian 09:  ES64L-G09RevD.01 24-Apr-2013

 --------------------
 #p B2PLYPD3/Def2QZVP
 --------------------

 ---------
 butadiene
 ---------
 Symbolic Z-matrix:
 Charge =  0 Multiplicity = 1

                         Standard orientation:
 ---------------------------------------------------------------------
 Center     Atomic      Atomic             Coordinates (Angstroms)
 Number     Number       Type             X           Y           Z
 ---------------------------------------------------------------------
      1          6           0       -1.811433    0.090439    0.044461
      2          6           0       -0.590030   -0.347246   -0.050739
      3          6           0        0.609739    0.411389   -0.061220
      4          6           0        1.798921   -0.142447    0.079677
      5          1           0       -2.670579   -0.552251   -0.121049
      6          1           0       -2.051542    1.087683    0.252206
      7          1           0       -0.378794   -1.456988   -0.012815
      8          1           0        0.530851    1.558921   -0.170646
      9          1           0        1.838342   -1.261553   -0.003865
     10          1           0        2.688535    0.551378   -0.016905
 ---------------------------------------------------------------------

 SCF Done:  E(RB2PLYPD3) =  -155.682155150     A.U. after   11 cycles
 E2(B2PLYPD3) =    -0.2262910697D+00 E(B2PLYPD3) =    -0.15590844621960D+03

 The electronic state is 1-A.
 Alpha  occ. eigenvalues --  -10.62598 -10.62216 -10.62150 -10.60661  -0.93946
 Alpha  occ. eigenvalues --   -0.85519  -0.69985  -0.62818  -0.55009  -0.53353
 Alpha  occ. eigenvalues --   -0.46427  -0.45208  -0.40450  -0.38458  -0.27935
 Alpha virt. eigenvalues --    0.01650   0.06949   0.07007   0.07849   0.09846
 Alpha virt. eigenvalues --    0.11870   0.12424   0.14746   0.15187   0.16164
 Alpha virt. eigenvalues --    0.18641   0.19456   0.21754   0.22357   0.24254

 Mulliken charges:
               1
     1  C   -0.178134
     2  C   -0.012627
     3  C   -0.024455
     4  C   -0.166937
     5  H    0.084540
     6  H    0.067846
     7  H    0.040606
     8  H    0.041957
     9  H    0.064592
    10  H    0.082611
 Sum of Mulliken charges =   0.00000

 Dipole moment (field-independent basis, Debye):
    X=             -0.0490    Y=              0.0763    Z=             -0.1302  Tot=              0.1587
 Quadrupole moment (field-independent basis, Debye-Ang):
   XX=            -23.9290   YY=            -23.3115   ZZ=            -29.0759
   XY=             -0.0108   XZ=             -0.3398   YZ=              0.1799

 1\1\GINC-NODE26\SP\RB2PLYPD3-FC\def2QZVP\C4H6\BOITTIER\26-Aug-2020\0\\
 #p B2PLYPD3/Def2QZVP\\butadiene\\0,1\C,0,-3.8191,0.199295,0.067754\C,0
 ,-2.696662,-0.45307,-0.015962\C,0,-1.380476,0.077392,-0.052679\C,0,-0.
 308768,-0.676165,0.103309\H,0,-4.780739,-0.283648,-0.075747\H,0,-3.875
 031,1.229328,0.244418\H,0,-2.68744,-1.581009,0.056524\H,0,-1.253265,1.
 21656,-0.198078\H,0,-0.47117,-1.786222,0.055017\H,0,0.690028,-0.156444
 ,-0.016823\\Version=ES64L-G09RevD.01\State=1-A\HF=-155.6821551\MP2=-15
 5.9084462\RMSD=8.800e-09\PG=C01 [X(C4H6)]\\@

 Normal termination of Gaussian 09 at Wed Aug 26 15:29:48 2020.
