 Gaussian 09, Revision D.01,
 Gaussian 09:  ES64L-G09RevD.01 24-Apr-2013

 --------------------
 #p B2PLYPD3/Def2QZVP
 --------------------

 ---------
 butadiene
 ---------
 Symbolic Z-matrix:
 Charge =  0 Multiplicity = 1

                         Standard orientation:
 ---------------------------------------------------------------------
 Center     Atomic      Atomic             Coordinates (Angstroms)
 Number     Number       Type             X           Y           Z
 ---------------------------------------------------------------------
      1          6           0        1.834967   -0.100708    0.015213
      2          6           0        0.600308    0.400813   -0.007936
      3          6           0       -0.602562   -0.411606   -0.026615
      4          6           0       -1.841856    0.104619    0.005377
      5          1           0        2.710580    0.502954    0.065548
      6          1           0        2.015877   -1.156875   -0.027601
      7          1           0        0.470590    1.477928   -0.051487
      8          1           0       -0.409486   -1.482565   -0.004852
      9          1           0       -1.975977    1.189486    0.007861
     10          1           0       -2.756723   -0.489638    0.094303
 ---------------------------------------------------------------------

 SCF Done:  E(RB2PLYPD3) =  -155.699853929     A.U. after   11 cycles
 E2(B2PLYPD3) =    -0.2258777602D+00 E(B2PLYPD3) =    -0.15592573168881D+03

 The electronic state is 1-A.
 Alpha  occ. eigenvalues --  -10.62779 -10.62466 -10.61985 -10.61177  -0.93015
 Alpha  occ. eigenvalues --   -0.84768  -0.70314  -0.64190  -0.54890  -0.53596
 Alpha  occ. eigenvalues --   -0.47026  -0.45415  -0.41144  -0.38089  -0.27609
 Alpha virt. eigenvalues --    0.01637   0.07026   0.07378   0.08129   0.09499
 Alpha virt. eigenvalues --    0.11644   0.12585   0.14634   0.15805   0.16237
 Alpha virt. eigenvalues --    0.18798   0.20489   0.21789   0.22983   0.23619

 Mulliken charges:
               1
     1  C   -0.177508
     2  C   -0.022669
     3  C   -0.034543
     4  C   -0.171253
     5  H    0.085484
     6  H    0.061517
     7  H    0.053662
     8  H    0.055607
     9  H    0.063062
    10  H    0.086640
 Sum of Mulliken charges =   0.00000

 Dipole moment (field-independent basis, Debye):
    X=              0.0288    Y=              0.0015    Z=              0.0532  Tot=              0.0605
 Quadrupole moment (field-independent basis, Debye-Ang):
   XX=            -23.2748   YY=            -23.2445   ZZ=            -29.2707
   XY=             -0.2532   XZ=             -0.2106   YZ=             -0.0387

 1\1\GINC-NODE22\SP\RB2PLYPD3-FC\def2QZVP\C4H6\BOITTIER\26-Aug-2020\0\\
 #p B2PLYPD3/Def2QZVP\\butadiene\\0,1\C,0,-3.838823,0.219875,0.032462\C
 ,0,-2.716929,-0.499685,0.02692\C,0,-1.385644,0.077944,-0.009056\C,0,-0
 .261809,-0.655443,0.040929\H,0,-4.81011,-0.211683,0.0957\H,0,-3.823306
 ,1.289787,-0.038935\H,0,-2.786731,-1.583112,0.012359\H,0,-1.379287,1.1
 66343,-0.016334\H,0,-0.328636,-1.746067,0.072607\H,0,0.746542,-0.23660
 1,0.117289\\Version=ES64L-G09RevD.01\State=1-A\HF=-155.6998539\MP2=-15
 5.9257317\RMSD=4.056e-09\PG=C01 [X(C4H6)]\\@

 Normal termination of Gaussian 09 at Wed Aug 26 19:34:07 2020.
