 Gaussian 09, Revision D.01,
 Gaussian 09:  ES64L-G09RevD.01 24-Apr-2013

 --------------------
 #p B2PLYPD3/Def2QZVP
 --------------------

 ---------
 butadiene
 ---------
 Symbolic Z-matrix:
 Charge =  0 Multiplicity = 1

                         Standard orientation:
 ---------------------------------------------------------------------
 Center     Atomic      Atomic             Coordinates (Angstroms)
 Number     Number       Type             X           Y           Z
 ---------------------------------------------------------------------
      1          6           0       -1.843172    0.106661   -0.001564
      2          6           0       -0.602301   -0.400326    0.017403
      3          6           0        0.611609    0.403115   -0.003963
      4          6           0        1.833342   -0.117059   -0.013865
      5          1           0       -2.721300   -0.540242   -0.021093
      6          1           0       -2.045903    1.184655   -0.083720
      7          1           0       -0.450693   -1.457173    0.051515
      8          1           0        0.498398    1.492996    0.091870
      9          1           0        2.014563   -1.171443   -0.048375
     10          1           0        2.708060    0.536862    0.021734
 ---------------------------------------------------------------------

 SCF Done:  E(RB2PLYPD3) =  -155.700087419     A.U. after   11 cycles
 E2(B2PLYPD3) =    -0.2257445213D+00 E(B2PLYPD3) =    -0.15592583194034D+03

 The electronic state is 1-A.
 Alpha  occ. eigenvalues --  -10.62549 -10.62481 -10.61873 -10.61395  -0.92955
 Alpha  occ. eigenvalues --   -0.84857  -0.70021  -0.64097  -0.54405  -0.53941
 Alpha  occ. eigenvalues --   -0.46679  -0.45559  -0.40982  -0.38081  -0.27736
 Alpha virt. eigenvalues --    0.01769   0.06997   0.07415   0.08009   0.09536
 Alpha virt. eigenvalues --    0.11671   0.12368   0.14766   0.15760   0.16128
 Alpha virt. eigenvalues --    0.18804   0.20412   0.21634   0.22828   0.23710

 Mulliken charges:
               1
     1  C   -0.172283
     2  C   -0.040150
     3  C   -0.024413
     4  C   -0.177495
     5  H    0.082858
     6  H    0.066084
     7  H    0.059276
     8  H    0.055730
     9  H    0.067843
    10  H    0.082551
 Sum of Mulliken charges =   0.00000

 Dipole moment (field-independent basis, Debye):
    X=              0.0270    Y=             -0.0256    Z=              0.0126  Tot=              0.0393
 Quadrupole moment (field-independent basis, Debye-Ang):
   XX=            -23.5181   YY=            -23.0765   ZZ=            -29.2779
   XY=             -0.2373   XZ=              0.2496   YZ=              0.0450

 1\1\GINC-NODE31\SP\RB2PLYPD3-FC\def2QZVP\C4H6\BOITTIER\26-Aug-2020\0\\
 #p B2PLYPD3/Def2QZVP\\butadiene\\0,1\C,0,-3.84565,0.222952,0.014177\C,
 0,-2.716532,-0.49879,0.050754\C,0,-1.377656,0.071801,0.013495\C,0,-0.2
 69766,-0.660201,0.021477\H,0,-4.826056,-0.255312,0.007831\H,0,-3.85073
 2,1.317352,-0.096206\H,0,-2.757964,-1.564417,0.112376\H,0,-1.292385,1.
 166334,0.081077\H,0,-0.281687,-1.730513,0.014549\H,0,0.708566,-0.17400
 7,0.043695\\Version=ES64L-G09RevD.01\State=1-A\HF=-155.7000874\MP2=-15
 5.9258319\RMSD=3.731e-09\PG=C01 [X(C4H6)]\\@

 Normal termination of Gaussian 09 at Wed Aug 26 14:26:04 2020.
