 Gaussian 09, Revision D.01,
 Gaussian 09:  ES64L-G09RevD.01 24-Apr-2013

 --------------------
 #p B2PLYPD3/Def2QZVP
 --------------------

 ---------
 butadiene
 ---------
 Symbolic Z-matrix:
 Charge =  0 Multiplicity = 1

                         Standard orientation:
 ---------------------------------------------------------------------
 Center     Atomic      Atomic             Coordinates (Angstroms)
 Number     Number       Type             X           Y           Z
 ---------------------------------------------------------------------
      1          6           0        1.849380   -0.121966    0.008307
      2          6           0        0.602266    0.435954   -0.041865
      3          6           0       -0.603141   -0.380867   -0.007838
      4          6           0       -1.859023    0.083559    0.026424
      5          1           0        2.759823    0.447074    0.011070
      6          1           0        1.995496   -1.218440    0.157333
      7          1           0        0.489052    1.505128   -0.026843
      8          1           0       -0.416572   -1.410276   -0.098410
      9          1           0       -2.040498    1.135060    0.117421
     10          1           0       -2.724199   -0.558627   -0.070736
 ---------------------------------------------------------------------

 SCF Done:  E(RB2PLYPD3) =  -155.696239786     A.U. after   11 cycles
 E2(B2PLYPD3) =    -0.2264519236D+00 E(B2PLYPD3) =    -0.15592269170996D+03

 The electronic state is 1-A.
 Alpha  occ. eigenvalues --  -10.63104 -10.62404 -10.62244 -10.61459  -0.92722
 Alpha  occ. eigenvalues --   -0.84400  -0.70424  -0.64608  -0.54726  -0.53556
 Alpha  occ. eigenvalues --   -0.46894  -0.45569  -0.41483  -0.37747  -0.27353
 Alpha virt. eigenvalues --    0.01214   0.07001   0.07458   0.08179   0.09317
 Alpha virt. eigenvalues --    0.11619   0.12498   0.14631   0.15780   0.16303
 Alpha virt. eigenvalues --    0.18920   0.20420   0.21544   0.22870   0.23489

 Mulliken charges:
               1
     1  C   -0.171968
     2  C   -0.044257
     3  C   -0.025816
     4  C   -0.180665
     5  H    0.085538
     6  H    0.060716
     7  H    0.060927
     8  H    0.063063
     9  H    0.065562
    10  H    0.086900
 Sum of Mulliken charges =   0.00000

 Dipole moment (field-independent basis, Debye):
    X=              0.0439    Y=              0.0238    Z=              0.0500  Tot=              0.0707
 Quadrupole moment (field-independent basis, Debye-Ang):
   XX=            -23.2841   YY=            -23.2289   ZZ=            -29.3333
   XY=             -0.2068   XZ=              0.3906   YZ=              0.1001

 1\1\GINC-NODE09\SP\RB2PLYPD3-FC\def2QZVP\C4H6\BOITTIER\26-Aug-2020\0\\
 #p B2PLYPD3/Def2QZVP\\butadiene\\0,1\C,0,-3.848793,0.244202,0.031936\C
 ,0,-2.724743,-0.53329,-0.001286\C,0,-1.390361,0.050441,0.005169\C,0,-0
 .240061,-0.634101,0.053301\H,0,-4.847719,-0.148714,0.053958\H,0,-3.791
 432,1.353086,0.145513\H,0,-2.808356,-1.604146,0.048245\H,0,-1.386638,1
 .093217,-0.118517\H,0,-0.252818,-1.697644,0.178132\H,0,0.727058,-0.164
 033,-0.065395\\Version=ES64L-G09RevD.01\State=1-A\HF=-155.6962398\MP2=
 -155.9226917\RMSD=6.641e-09\PG=C01 [X(C4H6)]\\@

 Normal termination of Gaussian 09 at Wed Aug 26 08:54:58 2020.
