 Gaussian 09, Revision D.01,
 Gaussian 09:  ES64L-G09RevD.01 24-Apr-2013

 --------------------
 #p B2PLYPD3/Def2QZVP
 --------------------

 ---------
 butadiene
 ---------
 Symbolic Z-matrix:
 Charge =  0 Multiplicity = 1

                         Standard orientation:
 ---------------------------------------------------------------------
 Center     Atomic      Atomic             Coordinates (Angstroms)
 Number     Number       Type             X           Y           Z
 ---------------------------------------------------------------------
      1          6           0       -1.842646    0.115804    0.014868
      2          6           0       -0.613262   -0.407549   -0.015959
      3          6           0        0.608613    0.400117   -0.009991
      4          6           0        1.840162   -0.115074    0.001811
      5          1           0       -2.708824   -0.545157    0.055609
      6          1           0       -1.975933    1.187464   -0.037315
      7          1           0       -0.481071   -1.456818   -0.033383
      8          1           0        0.471411    1.468528   -0.002745
      9          1           0        2.061926   -1.155528    0.019969
     10          1           0        2.675282    0.541718    0.053493
 ---------------------------------------------------------------------

 SCF Done:  E(RB2PLYPD3) =  -155.700286062     A.U. after   11 cycles
 E2(B2PLYPD3) =    -0.2253342707D+00 E(B2PLYPD3) =    -0.15592562033271D+03

 The electronic state is 1-A.
 Alpha  occ. eigenvalues --  -10.62477 -10.62192 -10.61558 -10.61078  -0.92884
 Alpha  occ. eigenvalues --   -0.85011  -0.70184  -0.64532  -0.54594  -0.54083
 Alpha  occ. eigenvalues --   -0.46683  -0.46170  -0.41226  -0.37920  -0.27699
 Alpha virt. eigenvalues --    0.01836   0.06993   0.07518   0.08141   0.09517
 Alpha virt. eigenvalues --    0.11748   0.12390   0.14849   0.15905   0.16020
 Alpha virt. eigenvalues --    0.18787   0.20584   0.21549   0.22987   0.24031

 Mulliken charges:
               1
     1  C   -0.178383
     2  C   -0.034170
     3  C   -0.032933
     4  C   -0.177522
     5  H    0.086005
     6  H    0.068813
     7  H    0.060199
     8  H    0.056219
     9  H    0.069755
    10  H    0.082018
 Sum of Mulliken charges =   0.00000

 Dipole moment (field-independent basis, Debye):
    X=              0.0263    Y=             -0.0289    Z=              0.0313  Tot=              0.0501
 Quadrupole moment (field-independent basis, Debye-Ang):
   XX=            -23.6233   YY=            -22.9474   ZZ=            -29.2282
   XY=             -0.1981   XZ=              0.1272   YZ=             -0.0408

 1\1\GINC-NODE04\SP\RB2PLYPD3-FC\def2QZVP\C4H6\BOITTIER\26-Aug-2020\0\\
 #p B2PLYPD3/Def2QZVP\\butadiene\\0,1\C,0,-3.843065,0.230494,0.031699\C
 ,0,-2.727608,-0.505624,0.020794\C,0,-1.380648,0.069518,0.005059\C,0,-0
 .261479,-0.657631,0.036514\H,0,-4.813653,-0.262749,0.090565\H,0,-3.782
 074,1.306516,-0.054327\H,0,-2.785853,-1.561609,0.036545\H,0,-1.323927,
 1.144905,-0.021477\H,0,-0.229925,-1.719905,0.087812\H,0,0.678062,-0.16
 0027,0.070065\\Version=ES64L-G09RevD.01\State=1-A\HF=-155.7002861\MP2=
 -155.9256203\RMSD=2.576e-09\PG=C01 [X(C4H6)]\\@

 Normal termination of Gaussian 09 at Wed Aug 26 20:34:56 2020.
