 Gaussian 09, Revision D.01,
 Gaussian 09:  ES64L-G09RevD.01 24-Apr-2013

 --------------------
 #p B2PLYPD3/Def2QZVP
 --------------------

 ---------
 butadiene
 ---------
 Symbolic Z-matrix:
 Charge =  0 Multiplicity = 1

                         Standard orientation:
 ---------------------------------------------------------------------
 Center     Atomic      Atomic             Coordinates (Angstroms)
 Number     Number       Type             X           Y           Z
 ---------------------------------------------------------------------
      1          6           0       -1.846466   -0.109630    0.002980
      2          6           0       -0.611759    0.408408   -0.015011
      3          6           0        0.613569   -0.391561   -0.005246
      4          6           0        1.848682    0.108081    0.010348
      5          1           0       -2.756367    0.489423    0.060379
      6          1           0       -1.961560   -1.211406    0.017255
      7          1           0       -0.464670    1.497904   -0.018177
      8          1           0        0.429960   -1.452726   -0.051235
      9          1           0        2.037298    1.152796   -0.009999
     10          1           0        2.691182   -0.567776    0.043355
 ---------------------------------------------------------------------

 SCF Done:  E(RB2PLYPD3) =  -155.699682920     A.U. after   11 cycles
 E2(B2PLYPD3) =    -0.2258644464D+00 E(B2PLYPD3) =    -0.15592554736594D+03

 The electronic state is 1-A.
 Alpha  occ. eigenvalues --  -10.62781 -10.62503 -10.62023 -10.61336  -0.92831
 Alpha  occ. eigenvalues --   -0.84887  -0.70117  -0.63966  -0.54549  -0.53738
 Alpha  occ. eigenvalues --   -0.47026  -0.45611  -0.40827  -0.37974  -0.27786
 Alpha virt. eigenvalues --    0.01720   0.06985   0.07372   0.08093   0.09568
 Alpha virt. eigenvalues --    0.11679   0.12410   0.14648   0.15798   0.16039
 Alpha virt. eigenvalues --    0.18779   0.20553   0.21508   0.22926   0.23730

 Mulliken charges:
               1
     1  C   -0.173442
     2  C   -0.030042
     3  C   -0.027976
     4  C   -0.179609
     5  H    0.089676
     6  H    0.058696
     7  H    0.049984
     8  H    0.054164
     9  H    0.071989
    10  H    0.086560
 Sum of Mulliken charges =   0.00000

 Dipole moment (field-independent basis, Debye):
    X=              0.0042    Y=              0.0162    Z=              0.0258  Tot=              0.0308
 Quadrupole moment (field-independent basis, Debye-Ang):
   XX=            -23.4318   YY=            -23.1714   ZZ=            -29.3134
   XY=              0.1812   XZ=             -0.1408   YZ=              0.0171

 1\1\GINC-NODE30\SP\RB2PLYPD3-FC\def2QZVP\C4H6\BOITTIER\26-Aug-2020\0\\
 #p B2PLYPD3/Def2QZVP\\butadiene\\0,1\C,0,-3.848927,0.22631,0.012687\C,
 0,-2.7275,-0.504633,0.048915\C,0,-1.378291,0.061291,0.01993\C,0,-0.253
 233,-0.652592,0.022066\H,0,-4.85187,-0.200702,-0.030271\H,0,-3.763998,
 1.329959,-0.03321\H,0,-2.778772,-1.602278,0.08345\H,0,-1.367926,1.1390
 46,0.035231\H,0,-0.255562,-1.713186,0.072621\H,0,0.697015,-0.14051,-0.
 02772\\Version=ES64L-G09RevD.01\State=1-A\HF=-155.6996829\MP2=-155.925
 5474\RMSD=4.205e-09\PG=C01 [X(C4H6)]\\@

 Normal termination of Gaussian 09 at Wed Aug 26 14:06:53 2020.
