 Gaussian 09, Revision D.01,
 Gaussian 09:  ES64L-G09RevD.01 24-Apr-2013

 --------------------
 #p B2PLYPD3/Def2QZVP
 --------------------

 ---------
 butadiene
 ---------
 Symbolic Z-matrix:
 Charge =  0 Multiplicity = 1

                         Standard orientation:
 ---------------------------------------------------------------------
 Center     Atomic      Atomic             Coordinates (Angstroms)
 Number     Number       Type             X           Y           Z
 ---------------------------------------------------------------------
      1          6           0        1.851180    0.129477    0.058363
      2          6           0        0.649558   -0.409562   -0.053143
      3          6           0       -0.624689    0.365771   -0.104348
      4          6           0       -1.884475   -0.086473    0.091170
      5          1           0        2.735689   -0.543214    0.141876
      6          1           0        1.902374    1.265797    0.048215
      7          1           0        0.579543   -1.431094   -0.048695
      8          1           0       -0.422761    1.434349   -0.173114
      9          1           0       -2.001619   -1.231556   -0.146078
     10          1           0       -2.742676    0.510444    0.225545
 ---------------------------------------------------------------------

 SCF Done:  E(RB2PLYPD3) =  -155.678823966     A.U. after   11 cycles
 E2(B2PLYPD3) =    -0.2269718914D+00 E(B2PLYPD3) =    -0.15590579585714D+03

 The electronic state is 1-A.
 Alpha  occ. eigenvalues --  -10.63341 -10.62649 -10.62441 -10.62033  -0.92585
 Alpha  occ. eigenvalues --   -0.84931  -0.69497  -0.64072  -0.54694  -0.52913
 Alpha  occ. eigenvalues --   -0.47368  -0.44637  -0.40948  -0.37171  -0.27945
 Alpha virt. eigenvalues --    0.01533   0.06911   0.07274   0.08024   0.09233
 Alpha virt. eigenvalues --    0.11554   0.12345   0.14141   0.15773   0.16105
 Alpha virt. eigenvalues --    0.18777   0.19917   0.20591   0.23072   0.24170

 Mulliken charges:
               1
     1  C   -0.168977
     2  C   -0.025851
     3  C   -0.039199
     4  C   -0.177421
     5  H    0.090053
     6  H    0.062326
     7  H    0.058428
     8  H    0.046070
     9  H    0.058613
    10  H    0.095958
 Sum of Mulliken charges =   0.00000

 Dipole moment (field-independent basis, Debye):
    X=              0.0580    Y=             -0.0064    Z=             -0.0507  Tot=              0.0773
 Quadrupole moment (field-independent basis, Debye-Ang):
   XX=            -23.5923   YY=            -23.4073   ZZ=            -29.3288
   XY=             -0.5200   XZ=              0.0910   YZ=              0.2132

 1\1\GINC-NODE17\SP\RB2PLYPD3-FC\def2QZVP\C4H6\BOITTIER\26-Aug-2020\0\\
 #p B2PLYPD3/Def2QZVP\\butadiene\\0,1\C,0,-3.854803,0.226358,-0.04553\C
 ,0,-2.762448,-0.504422,0.094518\C,0,-1.374181,0.04315,0.113162\C,0,-0.
 211256,-0.626432,-0.057362\H,0,-4.841694,-0.288337,-0.100108\H,0,-3.71
 096,1.353922,-0.088607\H,0,-2.868098,-1.521967,0.137982\H,0,-1.390129,
 1.132543,0.131365\H,0,-0.290351,-1.762391,0.23344\H,0,0.735646,-0.1919
 47,-0.216972\\Version=ES64L-G09RevD.01\State=1-A\HF=-155.678824\MP2=-1
 55.9057959\RMSD=8.836e-09\PG=C01 [X(C4H6)]\\@

 Normal termination of Gaussian 09 at Wed Aug 26 12:32:58 2020.
