 Gaussian 09, Revision D.01,
 Gaussian 09:  ES64L-G09RevD.01 24-Apr-2013

 --------------------
 #p B2PLYPD3/Def2QZVP
 --------------------

 ---------
 butadiene
 ---------
 Symbolic Z-matrix:
 Charge =  0 Multiplicity = 1

                         Standard orientation:
 ---------------------------------------------------------------------
 Center     Atomic      Atomic             Coordinates (Angstroms)
 Number     Number       Type             X           Y           Z
 ---------------------------------------------------------------------
      1          6           0        1.848833    0.049286    0.032775
      2          6           0        0.573183   -0.358577   -0.040931
      3          6           0       -0.614862    0.465737   -0.084888
      4          6           0       -1.821900   -0.142515    0.049264
      5          1           0        2.787923   -0.500097    0.012315
      6          1           0        2.064435    1.076796    0.295533
      7          1           0        0.397593   -1.446867   -0.221394
      8          1           0       -0.391381    1.581731   -0.108259
      9          1           0       -1.973916   -1.229580    0.242286
     10          1           0       -2.796178    0.434434    0.042198
 ---------------------------------------------------------------------

 SCF Done:  E(RB2PLYPD3) =  -155.683737623     A.U. after   11 cycles
 E2(B2PLYPD3) =    -0.2279412549D+00 E(B2PLYPD3) =    -0.15591167887788D+03

 The electronic state is 1-A.
 Alpha  occ. eigenvalues --  -10.64000 -10.63272 -10.62911 -10.61527  -0.92786
 Alpha  occ. eigenvalues --   -0.84119  -0.70150  -0.63440  -0.54794  -0.52610
 Alpha  occ. eigenvalues --   -0.47422  -0.44023  -0.40286  -0.37918  -0.27433
 Alpha virt. eigenvalues --    0.01078   0.06992   0.07105   0.07844   0.09194
 Alpha virt. eigenvalues --    0.11412   0.12431   0.14502   0.15711   0.16307
 Alpha virt. eigenvalues --    0.18619   0.19925   0.21732   0.22179   0.23041

 Mulliken charges:
               1
     1  C   -0.180052
     2  C   -0.014457
     3  C   -0.047625
     4  C   -0.157858
     5  H    0.083782
     6  H    0.047498
     7  H    0.054263
     8  H    0.064134
     9  H    0.072753
    10  H    0.077561
 Sum of Mulliken charges =   0.00000

 Dipole moment (field-independent basis, Debye):
    X=             -0.0858    Y=              0.0049    Z=              0.1610  Tot=              0.1825
 Quadrupole moment (field-independent basis, Debye-Ang):
   XX=            -23.1445   YY=            -23.5933   ZZ=            -29.3585
   XY=              0.5561   XZ=             -0.0656   YZ=              0.1293

 1\1\GINC-NODE24\SP\RB2PLYPD3-FC\def2QZVP\C4H6\BOITTIER\26-Aug-2020\0\\
 #p B2PLYPD3/Def2QZVP\\butadiene\\0,1\C,0,-3.861925,0.177402,-0.017959\
 C,0,-2.684849,-0.459578,0.070448\C,0,-1.363509,0.128945,0.094455\C,0,-
 0.291858,-0.697788,-0.019493\H,0,-4.887122,-0.185901,0.015393\H,0,-3.8
 8229,1.219354,-0.309891\H,0,-2.715375,-1.556031,0.281712\H,0,-1.374307
 ,1.267253,0.086046\H,0,-0.346306,-1.799066,-0.181663\H,0,0.773134,-0.3
 13227,-0.026008\\Version=ES64L-G09RevD.01\State=1-A\HF=-155.6837376\MP
 2=-155.9116789\RMSD=8.870e-09\PG=C01 [X(C4H6)]\\@

 Normal termination of Gaussian 09 at Wed Aug 26 15:50:55 2020.
