 Gaussian 09, Revision D.01,
 Gaussian 09:  ES64L-G09RevD.01 24-Apr-2013

 --------------------
 #p B2PLYPD3/Def2QZVP
 --------------------

 ---------
 butadiene
 ---------
 Symbolic Z-matrix:
 Charge =  0 Multiplicity = 1

                         Standard orientation:
 ---------------------------------------------------------------------
 Center     Atomic      Atomic             Coordinates (Angstroms)
 Number     Number       Type             X           Y           Z
 ---------------------------------------------------------------------
      1          6           0        1.851352    0.100813   -0.025082
      2          6           0        0.602787   -0.398737    0.018590
      3          6           0       -0.621078    0.412989    0.048306
      4          6           0       -1.831215   -0.120482   -0.050479
      5          1           0        2.694209   -0.529780   -0.045799
      6          1           0        2.061961    1.185735   -0.097152
      7          1           0        0.426782   -1.467917    0.161603
      8          1           0       -0.511263    1.474682    0.104119
      9          1           0       -2.012437   -1.189488   -0.067275
     10          1           0       -2.670325    0.559273   -0.003502
 ---------------------------------------------------------------------

 SCF Done:  E(RB2PLYPD3) =  -155.698144956     A.U. after   11 cycles
 E2(B2PLYPD3) =    -0.2257095841D+00 E(B2PLYPD3) =    -0.15592385453998D+03

 The electronic state is 1-A.
 Alpha  occ. eigenvalues --  -10.62835 -10.62246 -10.61613 -10.61362  -0.92769
 Alpha  occ. eigenvalues --   -0.84916  -0.70102  -0.64059  -0.54568  -0.53795
 Alpha  occ. eigenvalues --   -0.46905  -0.45765  -0.40996  -0.37719  -0.27799
 Alpha virt. eigenvalues --    0.01837   0.07059   0.07380   0.08080   0.09441
 Alpha virt. eigenvalues --    0.11648   0.12329   0.14804   0.15605   0.16233
 Alpha virt. eigenvalues --    0.18831   0.20024   0.21833   0.22685   0.23843

 Mulliken charges:
               1
     1  C   -0.180101
     2  C   -0.036027
     3  C   -0.034386
     4  C   -0.170732
     5  H    0.087825
     6  H    0.064817
     7  H    0.058153
     8  H    0.059833
     9  H    0.069525
    10  H    0.081093
 Sum of Mulliken charges =   0.00000

 Dipole moment (field-independent basis, Debye):
    X=             -0.0225    Y=              0.0151    Z=              0.0890  Tot=              0.0930
 Quadrupole moment (field-independent basis, Debye-Ang):
   XX=            -23.6265   YY=            -22.9907   ZZ=            -29.2561
   XY=              0.2610   XZ=             -0.1655   YZ=             -0.0876

 1\1\GINC-NODE32\SP\RB2PLYPD3-FC\def2QZVP\C4H6\BOITTIER\26-Aug-2020\0\\
 #p B2PLYPD3/Def2QZVP\\butadiene\\0,1\C,0,-3.85426,0.220804,0.045836\C,
 0,-2.717121,-0.497692,0.013408\C,0,-1.366522,0.077815,-0.034587\C,0,-0
 .272741,-0.663911,0.07617\H,0,-4.797368,-0.245898,0.080752\H,0,-3.8644
 2,1.327255,0.093467\H,0,-2.738428,-1.583962,-0.105502\H,0,-1.282294,1.
 140321,-0.114285\H,0,-0.288232,-1.747418,0.117024\H,0,0.675487,-0.1487
 75,0.013893\\Version=ES64L-G09RevD.01\State=1-A\HF=-155.698145\MP2=-15
 5.9238545\RMSD=3.573e-09\PG=C01 [X(C4H6)]\\@

 Normal termination of Gaussian 09 at Wed Aug 26 09:11:43 2020.
