 Gaussian 09, Revision D.01,
 Gaussian 09:  ES64L-G09RevD.01 24-Apr-2013

 --------------------
 #p B2PLYPD3/Def2QZVP
 --------------------

 ---------
 butadiene
 ---------
 Symbolic Z-matrix:
 Charge =  0 Multiplicity = 1

                         Standard orientation:
 ---------------------------------------------------------------------
 Center     Atomic      Atomic             Coordinates (Angstroms)
 Number     Number       Type             X           Y           Z
 ---------------------------------------------------------------------
      1          6           0       -1.838875    0.076088    0.042100
      2          6           0       -0.599169   -0.385358   -0.097372
      3          6           0        0.580848    0.471524   -0.061340
      4          6           0        1.827781   -0.145392    0.060413
      5          1           0       -2.716823   -0.588445    0.089966
      6          1           0       -1.956282    1.171692    0.245592
      7          1           0       -0.283086   -1.396998   -0.164555
      8          1           0        0.505911    1.506016   -0.068843
      9          1           0        1.840035   -1.217364    0.291708
     10          1           0        2.786739    0.423923   -0.056674
 ---------------------------------------------------------------------

 SCF Done:  E(RB2PLYPD3) =  -155.683925154     A.U. after   12 cycles
 E2(B2PLYPD3) =    -0.2278856910D+00 E(B2PLYPD3) =    -0.15591181084479D+03

 The electronic state is 1-A.
 Alpha  occ. eigenvalues --  -10.62944 -10.62840 -10.62347 -10.62116  -0.92886
 Alpha  occ. eigenvalues --   -0.83818  -0.69542  -0.65146  -0.53942  -0.53219
 Alpha  occ. eigenvalues --   -0.46217  -0.45896  -0.41653  -0.37461  -0.26988
 Alpha virt. eigenvalues --    0.01039   0.06984   0.07295   0.08055   0.09011
 Alpha virt. eigenvalues --    0.11691   0.12364   0.14491   0.15699   0.16168
 Alpha virt. eigenvalues --    0.18591   0.20033   0.21096   0.22540   0.23446

 Mulliken charges:
               1
     1  C   -0.170494
     2  C   -0.029110
     3  C   -0.041889
     4  C   -0.190987
     5  H    0.087216
     6  H    0.063206
     7  H    0.060403
     8  H    0.068948
     9  H    0.066522
    10  H    0.086185
 Sum of Mulliken charges =   0.00000

 Dipole moment (field-independent basis, Debye):
    X=              0.0301    Y=              0.0184    Z=              0.1926  Tot=              0.1958
 Quadrupole moment (field-independent basis, Debye-Ang):
   XX=            -23.9988   YY=            -23.1680   ZZ=            -29.3763
   XY=             -0.0059   XZ=             -0.4162   YZ=             -0.0921

 1\1\GINC-NODE29\SP\RB2PLYPD3-FC\def2QZVP\C4H6\BOITTIER\26-Aug-2020\0\\
 #p B2PLYPD3/Def2QZVP\\butadiene\\0,1\C,0,-3.842425,0.197442,0.072331\C
 ,0,-2.709605,-0.488881,-0.049884\C,0,-1.392288,0.137742,-0.051748\C,0,
 -0.2784,-0.691957,0.093519\H,0,-4.826773,-0.29225,0.149455\H,0,-3.7552
 08,1.303362,0.230055\H,0,-2.584857,-1.54322,-0.075273\H,0,-1.276496,1.
 167245,-0.102353\H,0,-0.46058,-1.73765,0.369396\H,0,0.76749,-0.31347,-
 0.048926\\Version=ES64L-G09RevD.01\State=1-A\HF=-155.6839252\MP2=-155.
 9118108\RMSD=5.369e-09\PG=C01 [X(C4H6)]\\@

 Normal termination of Gaussian 09 at Wed Aug 26 12:10:08 2020.
