 Gaussian 09, Revision D.01,
 Gaussian 09:  ES64L-G09RevD.01 24-Apr-2013

 --------------------
 #p B2PLYPD3/Def2QZVP
 --------------------

 ---------
 butadiene
 ---------
 Symbolic Z-matrix:
 Charge =  0 Multiplicity = 1

                         Standard orientation:
 ---------------------------------------------------------------------
 Center     Atomic      Atomic             Coordinates (Angstroms)
 Number     Number       Type             X           Y           Z
 ---------------------------------------------------------------------
      1          6           0        1.846959    0.105047    0.002470
      2          6           0        0.605698   -0.390148   -0.008809
      3          6           0       -0.608289    0.411407   -0.006213
      4          6           0       -1.844203   -0.111230   -0.012844
      5          1           0        2.670117   -0.572182    0.005503
      6          1           0        2.067364    1.145815   -0.014954
      7          1           0        0.491088   -1.457317    0.070614
      8          1           0       -0.467679    1.497811    0.036433
      9          1           0       -2.028616   -1.172442   -0.016814
     10          1           0       -2.733261    0.467859    0.071592
 ---------------------------------------------------------------------

 SCF Done:  E(RB2PLYPD3) =  -155.699998563     A.U. after   11 cycles
 E2(B2PLYPD3) =    -0.2255573263D+00 E(B2PLYPD3) =    -0.15592555588916D+03

 The electronic state is 1-A.
 Alpha  occ. eigenvalues --  -10.62855 -10.62395 -10.61431 -10.61127  -0.92857
 Alpha  occ. eigenvalues --   -0.84954  -0.70602  -0.64214  -0.54858  -0.54068
 Alpha  occ. eigenvalues --   -0.46786  -0.45853  -0.41199  -0.37973  -0.27629
 Alpha virt. eigenvalues --    0.01602   0.07029   0.07484   0.08101   0.09576
 Alpha virt. eigenvalues --    0.11633   0.12514   0.14844   0.15810   0.16281
 Alpha virt. eigenvalues --    0.18896   0.20314   0.22006   0.22820   0.23747

 Mulliken charges:
               1
     1  C   -0.179321
     2  C   -0.027505
     3  C   -0.036827
     4  C   -0.169781
     5  H    0.084064
     6  H    0.069365
     7  H    0.057551
     8  H    0.055892
     9  H    0.062757
    10  H    0.083805
 Sum of Mulliken charges =   0.00000

 Dipole moment (field-independent basis, Debye):
    X=             -0.0150    Y=             -0.0121    Z=              0.1260  Tot=              0.1275
 Quadrupole moment (field-independent basis, Debye-Ang):
   XX=            -23.2920   YY=            -23.1148   ZZ=            -29.2332
   XY=              0.3027   XZ=             -0.1890   YZ=             -0.0038

 1\1\GINC-NODE04\SP\RB2PLYPD3-FC\def2QZVP\C4H6\BOITTIER\26-Aug-2020\0\\
 #p B2PLYPD3/Def2QZVP\\butadiene\\0,1\C,0,-3.849638,0.221906,0.015543\C
 ,0,-2.718798,-0.489871,0.041016\C,0,-1.379545,0.077639,0.016624\C,0,-0
 .258964,-0.66027,0.03821\H,0,-4.782022,-0.294484,0.031002\H,0,-3.87745
 ,1.285473,0.003996\H,0,-2.800104,-1.561882,-0.008719\H,0,-1.320887,1.1
 69939,-0.056207\H,0,-0.270156,-1.736815,0.071697\H,0,0.720008,-0.25470
 7,-0.061936\\Version=ES64L-G09RevD.01\State=1-A\HF=-155.6999986\MP2=-1
 55.9255559\RMSD=2.542e-09\PG=C01 [X(C4H6)]\\@

 Normal termination of Gaussian 09 at Wed Aug 26 21:48:00 2020.
