 Gaussian 09, Revision D.01,
 Gaussian 09:  ES64L-G09RevD.01 24-Apr-2013

 --------------------
 #p B2PLYPD3/Def2QZVP
 --------------------

 ---------
 butadiene
 ---------
 Symbolic Z-matrix:
 Charge =  0 Multiplicity = 1

                         Standard orientation:
 ---------------------------------------------------------------------
 Center     Atomic      Atomic             Coordinates (Angstroms)
 Number     Number       Type             X           Y           Z
 ---------------------------------------------------------------------
      1          6           0       -1.851649    0.074120   -0.036414
      2          6           0       -0.604049   -0.377506    0.026254
      3          6           0        0.594714    0.427434    0.039490
      4          6           0        1.843746   -0.125775   -0.043124
      5          1           0       -2.734951   -0.552241   -0.012009
      6          1           0       -2.015592    1.181517   -0.048039
      7          1           0       -0.417362   -1.413482    0.067901
      8          1           0        0.481312    1.536064    0.110062
      9          1           0        2.011280   -1.203607    0.038948
     10          1           0        2.778746    0.462110   -0.074094
 ---------------------------------------------------------------------

 SCF Done:  E(RB2PLYPD3) =  -155.694497285     A.U. after   11 cycles
 E2(B2PLYPD3) =    -0.2268584441D+00 E(B2PLYPD3) =    -0.15592135572947D+03

 The electronic state is 1-A.
 Alpha  occ. eigenvalues --  -10.63520 -10.62565 -10.62124 -10.61851  -0.92935
 Alpha  occ. eigenvalues --   -0.84351  -0.70214  -0.64023  -0.54801  -0.53113
 Alpha  occ. eigenvalues --   -0.46918  -0.44973  -0.41220  -0.37938  -0.27437
 Alpha virt. eigenvalues --    0.01238   0.06974   0.07314   0.08011   0.09521
 Alpha virt. eigenvalues --    0.11557   0.12464   0.14458   0.15908   0.16201
 Alpha virt. eigenvalues --    0.18878   0.20469   0.21408   0.22808   0.23408

 Mulliken charges:
               1
     1  C   -0.171524
     2  C   -0.024333
     3  C   -0.035690
     4  C   -0.173366
     5  H    0.090025
     6  H    0.056526
     7  H    0.057474
     8  H    0.054577
     9  H    0.064598
    10  H    0.081714
 Sum of Mulliken charges =   0.00000

 Dipole moment (field-independent basis, Debye):
    X=              0.0420    Y=             -0.0517    Z=              0.1273  Tot=              0.1437
 Quadrupole moment (field-independent basis, Debye-Ang):
   XX=            -23.2560   YY=            -23.3104   ZZ=            -29.4149
   XY=             -0.1560   XZ=             -0.0061   YZ=             -0.0843

 1\1\GINC-NODE31\SP\RB2PLYPD3-FC\def2QZVP\C4H6\BOITTIER\26-Aug-2020\0\\
 #p B2PLYPD3/Def2QZVP\\butadiene\\0,1\C,0,-3.857222,0.195746,-0.015718\
 C,0,-2.712998,-0.474321,0.062778\C,0,-1.387259,0.097946,0.055004\C,0,-
 0.26067,-0.676444,-0.008744\H,0,-4.840051,-0.257602,0.025126\H,0,-3.81
 6015,1.313634,-0.060079\H,0,-2.718691,-1.525306,0.135107\H,0,-1.295869
 ,1.210203,0.092876\H,0,-0.292712,-1.763882,0.105177\H,0,0.765932,-0.27
 055,-0.054915\\Version=ES64L-G09RevD.01\State=1-A\HF=-155.6944973\MP2=
 -155.9213557\RMSD=7.711e-09\PG=C01 [X(C4H6)]\\@

 Normal termination of Gaussian 09 at Wed Aug 26 09:55:59 2020.
