 Gaussian 09, Revision D.01,
 Gaussian 09:  ES64L-G09RevD.01 24-Apr-2013

 --------------------
 #p B2PLYPD3/Def2QZVP
 --------------------

 ---------
 butadiene
 ---------
 Symbolic Z-matrix:
 Charge =  0 Multiplicity = 1

                         Standard orientation:
 ---------------------------------------------------------------------
 Center     Atomic      Atomic             Coordinates (Angstroms)
 Number     Number       Type             X           Y           Z
 ---------------------------------------------------------------------
      1          6           0       -1.844243   -0.116841    0.068702
      2          6           0       -0.579247    0.374156   -0.090502
      3          6           0        0.625306   -0.435360   -0.086961
      4          6           0        1.810993    0.134913    0.074305
      5          1           0       -2.707814    0.554683   -0.006626
      6          1           0       -1.990426   -1.108519    0.208290
      7          1           0       -0.442148    1.513580   -0.015915
      8          1           0        0.577046   -1.504741   -0.155887
      9          1           0        1.767061    1.236760    0.038750
     10          1           0        2.719431   -0.432971    0.138129
 ---------------------------------------------------------------------

 SCF Done:  E(RB2PLYPD3) =  -155.686539982     A.U. after   12 cycles
 E2(B2PLYPD3) =    -0.2268330566D+00 E(B2PLYPD3) =    -0.15591337303814D+03

 The electronic state is 1-A.
 Alpha  occ. eigenvalues --  -10.63552 -10.62234 -10.61501 -10.61205  -0.93082
 Alpha  occ. eigenvalues --   -0.84782  -0.69912  -0.63999  -0.55296  -0.53418
 Alpha  occ. eigenvalues --   -0.45907  -0.45547  -0.41874  -0.37843  -0.27331
 Alpha virt. eigenvalues --    0.01477   0.06972   0.07371   0.07993   0.09291
 Alpha virt. eigenvalues --    0.11735   0.12576   0.14523   0.15486   0.16403
 Alpha virt. eigenvalues --    0.18744   0.19425   0.21536   0.22938   0.24345

 Mulliken charges:
               1
     1  C   -0.187240
     2  C   -0.028515
     3  C   -0.033740
     4  C   -0.167391
     5  H    0.087803
     6  H    0.073324
     7  H    0.046650
     8  H    0.057604
     9  H    0.061315
    10  H    0.090190
 Sum of Mulliken charges =   0.00000

 Dipole moment (field-independent basis, Debye):
    X=              0.1060    Y=             -0.1276    Z=              0.0809  Tot=              0.1845
 Quadrupole moment (field-independent basis, Debye-Ang):
   XX=            -23.7616   YY=            -23.1008   ZZ=            -29.2903
   XY=             -0.3018   XZ=             -0.0227   YZ=             -0.1222

 1\1\GINC-NODE10\SP\RB2PLYPD3-FC\def2QZVP\C4H6\BOITTIER\26-Aug-2020\0\\
 #p B2PLYPD3/Def2QZVP\\butadiene\\0,1\C,0,-3.851364,0.21197,-0.055034\C
 ,0,-2.689783,-0.485983,0.118837\C,0,-1.363712,0.103486,0.100457\C,0,-0
 .294265,-0.666153,-0.044495\H,0,-4.817692,-0.298754,0.032972\H,0,-3.82
 4546,1.210567,-0.217404\H,0,-2.75125,-1.633381,0.070398\H,0,-1.226817,
 1.166465,0.145072\H,0,-0.527455,-1.742836,0.015813\H,0,0.698404,-0.264
 963,-0.118531\\Version=ES64L-G09RevD.01\State=1-A\HF=-155.68654\MP2=-1
 55.913373\RMSD=3.082e-09\PG=C01 [X(C4H6)]\\@

 Normal termination of Gaussian 09 at Wed Aug 26 12:57:11 2020.
