 Gaussian 09, Revision D.01,
 Gaussian 09:  ES64L-G09RevD.01 24-Apr-2013

 --------------------
 #p B2PLYPD3/Def2QZVP
 --------------------

 ---------
 butadiene
 ---------
 Symbolic Z-matrix:
 Charge =  0 Multiplicity = 1

                         Standard orientation:
 ---------------------------------------------------------------------
 Center     Atomic      Atomic             Coordinates (Angstroms)
 Number     Number       Type             X           Y           Z
 ---------------------------------------------------------------------
      1          6           0       -1.841636   -0.136951   -0.006484
      2          6           0       -0.623320    0.407509   -0.000326
      3          6           0        0.600414   -0.357651   -0.016118
      4          6           0        1.858686    0.096364    0.008756
      5          1           0       -2.674015    0.523903   -0.049841
      6          1           0       -1.944694   -1.199917    0.186568
      7          1           0       -0.539927    1.478751   -0.011524
      8          1           0        0.445650   -1.420091   -0.114946
      9          1           0        2.024791    1.154574    0.059480
     10          1           0        2.723329   -0.592844    0.015298
 ---------------------------------------------------------------------

 SCF Done:  E(RB2PLYPD3) =  -155.697313002     A.U. after   11 cycles
 E2(B2PLYPD3) =    -0.2258080451D+00 E(B2PLYPD3) =    -0.15592312104723D+03

 The electronic state is 1-A.
 Alpha  occ. eigenvalues --  -10.62303 -10.62240 -10.61708 -10.61425  -0.93165
 Alpha  occ. eigenvalues --   -0.85097  -0.70326  -0.64091  -0.54724  -0.53905
 Alpha  occ. eigenvalues --   -0.46534  -0.46101  -0.41150  -0.38085  -0.27652
 Alpha virt. eigenvalues --    0.01465   0.06975   0.07553   0.07999   0.09717
 Alpha virt. eigenvalues --    0.11771   0.12317   0.14782   0.15641   0.16204
 Alpha virt. eigenvalues --    0.18730   0.20126   0.21365   0.22826   0.24117

 Mulliken charges:
               1
     1  C   -0.179096
     2  C   -0.032963
     3  C   -0.023233
     4  C   -0.183321
     5  H    0.087631
     6  H    0.072952
     7  H    0.050945
     8  H    0.050869
     9  H    0.066857
    10  H    0.089359
 Sum of Mulliken charges =   0.00000

 Dipole moment (field-independent basis, Debye):
    X=             -0.0459    Y=              0.0421    Z=              0.0852  Tot=              0.1055
 Quadrupole moment (field-independent basis, Debye-Ang):
   XX=            -23.6511   YY=            -23.1404   ZZ=            -29.1926
   XY=             -0.1407   XZ=             -0.0928   YZ=             -0.1026

 1\1\GINC-NODE21\SP\RB2PLYPD3-FC\def2QZVP\C4H6\BOITTIER\26-Aug-2020\0\\
 #p B2PLYPD3/Def2QZVP\\butadiene\\0,1\C,0,-3.83995,0.244144,0.020512\C,
 0,-2.736275,-0.505793,0.036795\C,0,-1.397093,0.032506,0.028594\C,0,-0.
 238262,-0.636133,0.023069\H,0,-4.775323,-0.258214,0.085133\H,0,-3.7553
 61,1.301179,-0.210372\H,0,-2.84235,-1.573945,0.086183\H,0,-1.362417,1.
 108429,0.089291\H,0,-0.260851,-1.708187,0.010324\H,0,0.733991,-0.11024
 8,-0.005683\\Version=ES64L-G09RevD.01\State=1-A\HF=-155.697313\MP2=-15
 5.923121\RMSD=5.584e-09\PG=C01 [X(C4H6)]\\@

 Normal termination of Gaussian 09 at Wed Aug 26 08:49:11 2020.
