 Gaussian 09, Revision D.01,
 Gaussian 09:  ES64L-G09RevD.01 24-Apr-2013

 --------------------
 #p B2PLYPD3/Def2QZVP
 --------------------

 ---------
 butadiene
 ---------
 Symbolic Z-matrix:
 Charge =  0 Multiplicity = 1

                         Standard orientation:
 ---------------------------------------------------------------------
 Center     Atomic      Atomic             Coordinates (Angstroms)
 Number     Number       Type             X           Y           Z
 ---------------------------------------------------------------------
      1          6           0       -1.843678   -0.118526   -0.003803
      2          6           0       -0.606018    0.405595   -0.001489
      3          6           0        0.602596   -0.370059   -0.023412
      4          6           0        1.838614    0.095013    0.009952
      5          1           0       -2.726598    0.489056    0.051577
      6          1           0       -1.973264   -1.184220    0.038595
      7          1           0       -0.483523    1.477676   -0.017374
      8          1           0        0.506215   -1.457179   -0.013614
      9          1           0        2.058810    1.156550   -0.000514
     10          1           0        2.669280   -0.554019    0.053839
 ---------------------------------------------------------------------

 SCF Done:  E(RB2PLYPD3) =  -155.700348870     A.U. after   11 cycles
 E2(B2PLYPD3) =    -0.2253633394D+00 E(B2PLYPD3) =    -0.15592571220912D+03

 The electronic state is 1-A.
 Alpha  occ. eigenvalues --  -10.62514 -10.62146 -10.61545 -10.60991  -0.93262
 Alpha  occ. eigenvalues --   -0.85168  -0.70671  -0.64044  -0.54979  -0.54230
 Alpha  occ. eigenvalues --   -0.46922  -0.45586  -0.41143  -0.38345  -0.27681
 Alpha virt. eigenvalues --    0.01586   0.07022   0.07508   0.08061   0.09886
 Alpha virt. eigenvalues --    0.11659   0.12504   0.14810   0.15877   0.16258
 Alpha virt. eigenvalues --    0.18845   0.20522   0.21807   0.22474   0.23942

 Mulliken charges:
               1
     1  C   -0.173478
     2  C   -0.036396
     3  C   -0.017619
     4  C   -0.176741
     5  H    0.087343
     6  H    0.066212
     7  H    0.055406
     8  H    0.047091
     9  H    0.061493
    10  H    0.086689
 Sum of Mulliken charges =   0.00000

 Dipole moment (field-independent basis, Debye):
    X=              0.0067    Y=              0.0029    Z=              0.0881  Tot=              0.0884
 Quadrupole moment (field-independent basis, Debye-Ang):
   XX=            -23.2904   YY=            -23.1921   ZZ=            -29.1671
   XY=              0.0479   XZ=             -0.0640   YZ=             -0.0732

 1\1\GINC-NODE26\SP\RB2PLYPD3-FC\def2QZVP\C4H6\BOITTIER\26-Aug-2020\0\\
 #p B2PLYPD3/Def2QZVP\\butadiene\\0,1\C,0,-3.843104,0.234184,0.017581\C
 ,0,-2.719947,-0.503819,0.037135\C,0,-1.391432,0.041991,0.034282\C,0,-0
 .259392,-0.638777,0.020688\H,0,-4.821138,-0.206201,-0.018208\H,0,-3.77
 9022,1.303599,-0.063286\H,0,-2.792259,-1.579182,0.091717\H,0,-1.290703
 ,1.127657,-0.01469\H,0,-0.233722,-1.721548,0.069721\H,0,0.674303,-0.15
 1786,-0.044342\\Version=ES64L-G09RevD.01\State=1-A\HF=-155.7003489\MP2
 =-155.9257122\RMSD=5.341e-09\PG=C01 [X(C4H6)]\\@

 Normal termination of Gaussian 09 at Wed Aug 26 15:01:00 2020.
