 Gaussian 09, Revision D.01,
 Gaussian 09:  ES64L-G09RevD.01 24-Apr-2013

 --------------------
 #p B2PLYPD3/Def2QZVP
 --------------------

 ---------
 butadiene
 ---------
 Symbolic Z-matrix:
 Charge =  0 Multiplicity = 1

                         Standard orientation:
 ---------------------------------------------------------------------
 Center     Atomic      Atomic             Coordinates (Angstroms)
 Number     Number       Type             X           Y           Z
 ---------------------------------------------------------------------
      1          6           0        1.856502    0.078849   -0.067102
      2          6           0        0.623558   -0.327532   -0.001779
      3          6           0       -0.629444    0.403447    0.042874
      4          6           0       -1.831927   -0.160824   -0.040971
      5          1           0        2.662215   -0.620985    0.108230
      6          1           0        2.104239    1.111168   -0.027750
      7          1           0        0.364273   -1.319101    0.300251
      8          1           0       -0.603659    1.526046    0.134398
      9          1           0       -1.940624   -1.270880   -0.129209
     10          1           0       -2.698575    0.610116    0.015948
 ---------------------------------------------------------------------

 SCF Done:  E(RB2PLYPD3) =  -155.680890497     A.U. after   12 cycles
 E2(B2PLYPD3) =    -0.2261757576D+00 E(B2PLYPD3) =    -0.15590706625448D+03

 The electronic state is 1-A.
 Alpha  occ. eigenvalues --  -10.62881 -10.62671 -10.61759 -10.60897  -0.93401
 Alpha  occ. eigenvalues --   -0.85542  -0.70085  -0.63131  -0.54417  -0.53822
 Alpha  occ. eigenvalues --   -0.46745  -0.45620  -0.40314  -0.37264  -0.28453
 Alpha virt. eigenvalues --    0.01756   0.06862   0.07339   0.07744   0.09771
 Alpha virt. eigenvalues --    0.11710   0.12183   0.14755   0.15206   0.15868
 Alpha virt. eigenvalues --    0.18593   0.19767   0.21242   0.22373   0.24296

 Mulliken charges:
               1
     1  C   -0.176118
     2  C   -0.012877
     3  C   -0.032448
     4  C   -0.176062
     5  H    0.082202
     6  H    0.067042
     7  H    0.050611
     8  H    0.039442
     9  H    0.073508
    10  H    0.084701
 Sum of Mulliken charges =   0.00000

 Dipole moment (field-independent basis, Debye):
    X=             -0.0251    Y=              0.0479    Z=              0.3577  Tot=              0.3617
 Quadrupole moment (field-independent basis, Debye-Ang):
   XX=            -23.9455   YY=            -23.2992   ZZ=            -29.0951
   XY=              0.1007   XZ=              0.5557   YZ=             -0.0926

 1\1\GINC-NODE09\SP\RB2PLYPD3-FC\def2QZVP\C4H6\BOITTIER\26-Aug-2020\0\\
 #p B2PLYPD3/Def2QZVP\\butadiene\\0,1\C,0,-3.864563,0.188981,0.071203\C
 ,0,-2.721387,-0.427874,0.024285\C,0,-1.360134,0.07182,-0.036012\C,0,-0
 .274438,-0.690585,0.070756\H,0,-4.780015,-0.364714,-0.087078\H,0,-3.92
 8513,1.246996,-0.000359\H,0,-2.639063,-1.458182,-0.246543\H,0,-1.18980
 6,1.178417,-0.161319\H,0,-0.360938,-1.799388,0.192818\H,0,0.713343,-0.
 084594,-0.004936\\Version=ES64L-G09RevD.01\State=1-A\HF=-155.6808905\M
 P2=-155.9070663\RMSD=3.029e-09\PG=C01 [X(C4H6)]\\@

 Normal termination of Gaussian 09 at Wed Aug 26 13:13:33 2020.
