 Gaussian 09, Revision D.01,
 Gaussian 09:  ES64L-G09RevD.01 24-Apr-2013

 --------------------
 #p B2PLYPD3/Def2QZVP
 --------------------

 ---------
 butadiene
 ---------
 Symbolic Z-matrix:
 Charge =  0 Multiplicity = 1

                         Standard orientation:
 ---------------------------------------------------------------------
 Center     Atomic      Atomic             Coordinates (Angstroms)
 Number     Number       Type             X           Y           Z
 ---------------------------------------------------------------------
      1          6           0       -1.837058   -0.128394    0.019715
      2          6           0       -0.614070    0.406785   -0.023139
      3          6           0        0.603689   -0.373984   -0.030271
      4          6           0        1.845391    0.100290    0.001747
      5          1           0       -2.684793    0.521332    0.023793
      6          1           0       -1.989044   -1.192329    0.036905
      7          1           0       -0.495169    1.480521    0.013349
      8          1           0        0.473845   -1.428295   -0.031210
      9          1           0        1.993859    1.162825    0.031767
     10          1           0        2.713595   -0.572232    0.117076
 ---------------------------------------------------------------------

 SCF Done:  E(RB2PLYPD3) =  -155.699871108     A.U. after   11 cycles
 E2(B2PLYPD3) =    -0.2254184095D+00 E(B2PLYPD3) =    -0.15592528951767D+03

 The electronic state is 1-A.
 Alpha  occ. eigenvalues --  -10.62419 -10.61959 -10.61474 -10.61384  -0.93199
 Alpha  occ. eigenvalues --   -0.85116  -0.70251  -0.64345  -0.54438  -0.54299
 Alpha  occ. eigenvalues --   -0.46666  -0.45929  -0.41195  -0.38212  -0.27719
 Alpha virt. eigenvalues --    0.01692   0.06974   0.07524   0.08058   0.09780
 Alpha virt. eigenvalues --    0.11763   0.12387   0.14800   0.15772   0.16142
 Alpha virt. eigenvalues --    0.18770   0.20276   0.21676   0.22826   0.24037

 Mulliken charges:
               1
     1  C   -0.178393
     2  C   -0.034543
     3  C   -0.021990
     4  C   -0.178220
     5  H    0.087134
     6  H    0.070670
     7  H    0.052840
     8  H    0.052916
     9  H    0.063735
    10  H    0.085851
 Sum of Mulliken charges =   0.00000

 Dipole moment (field-independent basis, Debye):
    X=             -0.0626    Y=             -0.0093    Z=              0.1410  Tot=              0.1545
 Quadrupole moment (field-independent basis, Debye-Ang):
   XX=            -23.6266   YY=            -23.0608   ZZ=            -29.1905
   XY=              0.0209   XZ=              0.2638   YZ=             -0.0270

 1\1\GINC-NODE21\SP\RB2PLYPD3-FC\def2QZVP\C4H6\BOITTIER\26-Aug-2020\0\\
 #p B2PLYPD3/Def2QZVP\\butadiene\\0,1\C,0,-3.836717,0.237611,-0.001985\
 C,0,-2.728134,-0.505013,0.057234\C,0,-1.39094,0.046518,0.039496\C,0,-0
 .253555,-0.641837,0.021965\H,0,-4.786472,-0.250761,0.014579\H,0,-3.797
 219,1.310571,-0.052472\H,0,-2.802248,-1.583381,0.054387\H,0,-1.331258,
 1.106632,0.007424\H,0,-0.296544,-1.714248,0.025222\H,0,0.719692,-0.138
 362,-0.114668\\Version=ES64L-G09RevD.01\State=1-A\HF=-155.6998711\MP2=
 -155.9252895\RMSD=5.369e-09\PG=C01 [X(C4H6)]\\@

 Normal termination of Gaussian 09 at Wed Aug 26 19:32:38 2020.
