 Gaussian 09, Revision D.01,
 Gaussian 09:  ES64L-G09RevD.01 24-Apr-2013

 --------------------
 #p B2PLYPD3/Def2QZVP
 --------------------

 ---------
 butadiene
 ---------
 Symbolic Z-matrix:
 Charge =  0 Multiplicity = 1

                         Standard orientation:
 ---------------------------------------------------------------------
 Center     Atomic      Atomic             Coordinates (Angstroms)
 Number     Number       Type             X           Y           Z
 ---------------------------------------------------------------------
      1          6           0       -1.843556   -0.114118   -0.018428
      2          6           0       -0.608288    0.414864   -0.001552
      3          6           0        0.608526   -0.392343    0.024510
      4          6           0        1.844167    0.099864   -0.014594
      5          1           0       -2.753324    0.474871    0.006883
      6          1           0       -2.006621   -1.169754   -0.013405
      7          1           0       -0.469729    1.487471    0.084671
      8          1           0        0.489248   -1.488241    0.036883
      9          1           0        2.038316    1.178089   -0.035896
     10          1           0        2.697015   -0.532040   -0.018746
 ---------------------------------------------------------------------

 SCF Done:  E(RB2PLYPD3) =  -155.700103539     A.U. after   11 cycles
 E2(B2PLYPD3) =    -0.2257549962D+00 E(B2PLYPD3) =    -0.15592585853472D+03

 The electronic state is 1-A.
 Alpha  occ. eigenvalues --  -10.62853 -10.62678 -10.61600 -10.61348  -0.92789
 Alpha  occ. eigenvalues --   -0.84895  -0.70303  -0.63965  -0.54840  -0.53758
 Alpha  occ. eigenvalues --   -0.46975  -0.45390  -0.41066  -0.37976  -0.27714
 Alpha virt. eigenvalues --    0.01698   0.07034   0.07402   0.08061   0.09520
 Alpha virt. eigenvalues --    0.11597   0.12520   0.14654   0.15785   0.16329
 Alpha virt. eigenvalues --    0.18855   0.20415   0.21894   0.22723   0.23661

 Mulliken charges:
               1
     1  C   -0.171767
     2  C   -0.035646
     3  C   -0.028007
     4  C   -0.174339
     5  H    0.083328
     6  H    0.065753
     7  H    0.059643
     8  H    0.051539
     9  H    0.061972
    10  H    0.087525
 Sum of Mulliken charges =   0.00000

 Dipole moment (field-independent basis, Debye):
    X=             -0.0121    Y=             -0.0185    Z=              0.0699  Tot=              0.0733
 Quadrupole moment (field-independent basis, Debye-Ang):
   XX=            -23.2443   YY=            -23.1767   ZZ=            -29.2897
   XY=              0.2178   XZ=             -0.1709   YZ=              0.0655

 1\1\GINC-NODE30\SP\RB2PLYPD3-FC\def2QZVP\C4H6\BOITTIER\26-Aug-2020\0\\
 #p B2PLYPD3/Def2QZVP\\butadiene\\0,1\C,0,-3.844831,0.23052,0.03337\C,0
 ,-2.725135,-0.512632,0.032972\C,0,-1.382815,0.06124,-0.008854\C,0,-0.2
 56048,-0.64446,0.045827\H,0,-4.845878,-0.185341,0.019508\H,0,-3.815003
 ,1.297823,0.002426\H,0,-2.782251,-1.594419,-0.026969\H,0,-1.302672,1.1
 60066,-0.047983\H,0,-0.25935,-1.739181,0.093683\H,0,0.696715,-0.176656
 ,0.03733\\Version=ES64L-G09RevD.01\State=1-A\HF=-155.7001035\MP2=-155.
 9258585\RMSD=5.350e-09\PG=C01 [X(C4H6)]\\@

 Normal termination of Gaussian 09 at Wed Aug 26 19:20:27 2020.
