 Gaussian 09, Revision D.01,
 Gaussian 09:  ES64L-G09RevD.01 24-Apr-2013

 --------------------
 #p B2PLYPD3/Def2QZVP
 --------------------

 ---------
 butadiene
 ---------
 Symbolic Z-matrix:
 Charge =  0 Multiplicity = 1

                         Standard orientation:
 ---------------------------------------------------------------------
 Center     Atomic      Atomic             Coordinates (Angstroms)
 Number     Number       Type             X           Y           Z
 ---------------------------------------------------------------------
      1          6           0       -1.841774   -0.113354   -0.013644
      2          6           0       -0.607265    0.389178    0.024600
      3          6           0        0.617950   -0.399650    0.004331
      4          6           0        1.840934    0.113367   -0.021165
      5          1           0       -2.673752    0.566850   -0.007250
      6          1           0       -2.068621   -1.164758   -0.074717
      7          1           0       -0.493204    1.461858    0.054765
      8          1           0        0.508025   -1.493163    0.089002
      9          1           0        1.969500    1.215814   -0.049388
     10          1           0        2.698979   -0.523852    0.022860
 ---------------------------------------------------------------------

 SCF Done:  E(RB2PLYPD3) =  -155.700160094     A.U. after   11 cycles
 E2(B2PLYPD3) =    -0.2255039763D+00 E(B2PLYPD3) =    -0.15592566406993D+03

 The electronic state is 1-A.
 Alpha  occ. eigenvalues --  -10.62508 -10.62432 -10.61538 -10.61341  -0.92947
 Alpha  occ. eigenvalues --   -0.85154  -0.70069  -0.63742  -0.54669  -0.53956
 Alpha  occ. eigenvalues --   -0.46766  -0.45513  -0.40970  -0.38087  -0.27859
 Alpha virt. eigenvalues --    0.01864   0.07021   0.07389   0.08011   0.09711
 Alpha virt. eigenvalues --    0.11674   0.12307   0.14756   0.15783   0.16129
 Alpha virt. eigenvalues --    0.18795   0.20453   0.21439   0.22586   0.24065

 Mulliken charges:
               1
     1  C   -0.175844
     2  C   -0.032578
     3  C   -0.027749
     4  C   -0.176215
     5  H    0.082966
     6  H    0.070526
     7  H    0.054092
     8  H    0.051359
     9  H    0.063064
    10  H    0.090379
 Sum of Mulliken charges =   0.00000

 Dipole moment (field-independent basis, Debye):
    X=             -0.0085    Y=             -0.0155    Z=              0.0464  Tot=              0.0497
 Quadrupole moment (field-independent basis, Debye-Ang):
   XX=            -23.5762   YY=            -23.0329   ZZ=            -29.2469
   XY=              0.0544   XZ=              0.1993   YZ=             -0.0399

 1\1\GINC-NODE26\SP\RB2PLYPD3-FC\def2QZVP\C4H6\BOITTIER\26-Aug-2020\0\\
 #p B2PLYPD3/Def2QZVP\\butadiene\\0,1\C,0,-3.84561,0.223734,0.03301\C,0
 ,-2.720414,-0.491461,0.011962\C,0,-1.374329,0.066959,0.006146\C,0,-0.2
 61977,-0.654394,0.04915\H,0,-4.785335,-0.297381,0.049165\H,0,-3.881469
 ,1.300159,0.058776\H,0,-2.79915,-1.567718,0.017767\H,0,-1.28847,1.1591
 79,-0.115128\H,0,-0.331402,-1.76058,0.114311\H,0,0.695467,-0.181856,-0
 .015949\\Version=ES64L-G09RevD.01\State=1-A\HF=-155.7001601\MP2=-155.9
 256641\RMSD=4.983e-09\PG=C01 [X(C4H6)]\\@

 Normal termination of Gaussian 09 at Wed Aug 26 18:31:48 2020.
