 Gaussian 09, Revision D.01,
 Gaussian 09:  ES64L-G09RevD.01 24-Apr-2013

 --------------------
 #p B2PLYPD3/Def2QZVP
 --------------------

 ---------
 butadiene
 ---------
 Symbolic Z-matrix:
 Charge =  0 Multiplicity = 1

                         Standard orientation:
 ---------------------------------------------------------------------
 Center     Atomic      Atomic             Coordinates (Angstroms)
 Number     Number       Type             X           Y           Z
 ---------------------------------------------------------------------
      1          6           0       -1.831640    0.115151   -0.028402
      2          6           0       -0.608421   -0.423593    0.029007
      3          6           0        0.598764    0.389842    0.004683
      4          6           0        1.845503   -0.094374   -0.020947
      5          1           0       -2.736945   -0.489562    0.007027
      6          1           0       -1.958682    1.217063   -0.032060
      7          1           0       -0.465617   -1.483178    0.056263
      8          1           0        0.409243    1.459809    0.091585
      9          1           0        2.010815   -1.163633   -0.046004
     10          1           0        2.715947    0.537344    0.017140
 ---------------------------------------------------------------------

 SCF Done:  E(RB2PLYPD3) =  -155.699937296     A.U. after   11 cycles
 E2(B2PLYPD3) =    -0.2259627142D+00 E(B2PLYPD3) =    -0.15592590001005D+03

 The electronic state is 1-A.
 Alpha  occ. eigenvalues --  -10.62578 -10.62458 -10.61997 -10.61483  -0.92975
 Alpha  occ. eigenvalues --   -0.84726  -0.70063  -0.64186  -0.54683  -0.53547
 Alpha  occ. eigenvalues --   -0.46987  -0.45420  -0.41099  -0.38025  -0.27673
 Alpha virt. eigenvalues --    0.01695   0.07026   0.07345   0.08119   0.09497
 Alpha virt. eigenvalues --    0.11681   0.12466   0.14611   0.15754   0.16170
 Alpha virt. eigenvalues --    0.18776   0.20370   0.21628   0.22920   0.23702

 Mulliken charges:
               1
     1  C   -0.169975
     2  C   -0.036035
     3  C   -0.023273
     4  C   -0.181087
     5  H    0.085542
     6  H    0.061892
     7  H    0.057834
     8  H    0.052650
     9  H    0.063889
    10  H    0.088563
 Sum of Mulliken charges =   0.00000

 Dipole moment (field-independent basis, Debye):
    X=             -0.0313    Y=             -0.0304    Z=              0.1093  Tot=              0.1177
 Quadrupole moment (field-independent basis, Debye-Ang):
   XX=            -23.4568   YY=            -23.1649   ZZ=            -29.3072
   XY=             -0.1787   XZ=              0.0281   YZ=              0.0754

 1\1\GINC-NODE27\SP\RB2PLYPD3-FC\def2QZVP\C4H6\BOITTIER\26-Aug-2020\0\\
 #p B2PLYPD3/Def2QZVP\\butadiene\\0,1\C,0,-3.83216,0.232867,-0.007522\C
 ,0,-2.727555,-0.518355,0.065406\C,0,-1.392338,0.060407,0.023075\C,0,-0
 .254893,-0.64356,0.011679\H,0,-4.832466,-0.195523,0.041274\H,0,-3.7561
 2,1.339035,-0.038723\H,0,-2.780314,-1.585211,0.119176\H,0,-1.383303,1.
 148808,0.083087\H,0,-0.28743,-1.725322,0.013433\H,0,0.716265,-0.180451
 ,0.035645\\Version=ES64L-G09RevD.01\State=1-A\HF=-155.6999373\MP2=-155
 .9259\RMSD=3.755e-09\PG=C01 [X(C4H6)]\\@

 Normal termination of Gaussian 09 at Wed Aug 26 08:55:59 2020.
