 Gaussian 09, Revision D.01,
 Gaussian 09:  ES64L-G09RevD.01 24-Apr-2013

 --------------------
 #p B2PLYPD3/Def2QZVP
 --------------------

 ---------
 butadiene
 ---------
 Symbolic Z-matrix:
 Charge =  0 Multiplicity = 1

                         Standard orientation:
 ---------------------------------------------------------------------
 Center     Atomic      Atomic             Coordinates (Angstroms)
 Number     Number       Type             X           Y           Z
 ---------------------------------------------------------------------
      1          6           0       -1.857709   -0.092397   -0.010133
      2          6           0       -0.587184    0.341908   -0.064825
      3          6           0        0.616786   -0.406497   -0.000645
      4          6           0        1.829848    0.113009    0.022473
      5          1           0       -2.656434    0.586105    0.259775
      6          1           0       -2.123421   -1.112311    0.041491
      7          1           0       -0.475288    1.399901    0.031336
      8          1           0        0.593699   -1.426808   -0.081458
      9          1           0        1.875399    1.246179   -0.075571
     10          1           0        2.775596   -0.429205    0.143208
 ---------------------------------------------------------------------

 SCF Done:  E(RB2PLYPD3) =  -155.686958655     A.U. after   11 cycles
 E2(B2PLYPD3) =    -0.2259136889D+00 E(B2PLYPD3) =    -0.15591287234403D+03

 The electronic state is 1-A.
 Alpha  occ. eigenvalues --  -10.62285 -10.62207 -10.61455 -10.61323  -0.93773
 Alpha  occ. eigenvalues --   -0.85233  -0.70571  -0.64780  -0.55312  -0.54043
 Alpha  occ. eigenvalues --   -0.47144  -0.44783  -0.41346  -0.38351  -0.27614
 Alpha virt. eigenvalues --    0.01185   0.06926   0.07681   0.08026   0.09813
 Alpha virt. eigenvalues --    0.11603   0.12678   0.14648   0.15531   0.16449
 Alpha virt. eigenvalues --    0.18884   0.20244   0.21566   0.22268   0.24044

 Mulliken charges:
               1
     1  C   -0.169814
     2  C   -0.028379
     3  C   -0.032246
     4  C   -0.166088
     5  H    0.076227
     6  H    0.063699
     7  H    0.055021
     8  H    0.062560
     9  H    0.048481
    10  H    0.090539
 Sum of Mulliken charges =   0.00000

 Dipole moment (field-independent basis, Debye):
    X=              0.1257    Y=             -0.1076    Z=              0.2467  Tot=              0.2970
 Quadrupole moment (field-independent basis, Debye-Ang):
   XX=            -23.3187   YY=            -23.4894   ZZ=            -28.9975
   XY=             -0.1822   XZ=             -0.6647   YZ=              0.1366

 1\1\GINC-NODE28\SP\RB2PLYPD3-FC\def2QZVP\C4H6\BOITTIER\26-Aug-2020\0\\
 #p B2PLYPD3/Def2QZVP\\butadiene\\0,1\C,0,-3.865257,0.201093,0.014378\C
 ,0,-2.692221,-0.450743,0.084695\C,0,-1.374282,0.071044,0.017257\C,0,-0
 .2726,-0.655726,0.010702\H,0,-4.770612,-0.329337,-0.250486\H,0,-3.9455
 16,1.250969,-0.054989\H,0,-2.769488,-1.513252,0.005819\H,0,-1.216243,1
 .080465,0.081993\H,0,-0.429296,-1.77722,0.126712\H,0,0.754855,-0.29196
 1,-0.11187\\Version=ES64L-G09RevD.01\State=1-A\HF=-155.6869587\MP2=-15
 5.9128723\RMSD=7.651e-09\PG=C01 [X(C4H6)]\\@

 Normal termination of Gaussian 09 at Wed Aug 26 11:51:55 2020.
