 Gaussian 09, Revision D.01,
 Gaussian 09:  ES64L-G09RevD.01 24-Apr-2013

 --------------------
 #p B2PLYPD3/Def2QZVP
 --------------------

 ---------
 butadiene
 ---------
 Symbolic Z-matrix:
 Charge =  0 Multiplicity = 1

                         Standard orientation:
 ---------------------------------------------------------------------
 Center     Atomic      Atomic             Coordinates (Angstroms)
 Number     Number       Type             X           Y           Z
 ---------------------------------------------------------------------
      1          6           0       -1.836718   -0.128639   -0.008379
      2          6           0       -0.610544    0.416640    0.012830
      3          6           0        0.611084   -0.374425   -0.033026
      4          6           0        1.841432    0.097751    0.008946
      5          1           0       -2.736119    0.449626    0.087222
      6          1           0       -1.988395   -1.160351    0.018706
      7          1           0       -0.510785    1.507674   -0.060234
      8          1           0        0.533872   -1.471560   -0.012536
      9          1           0        2.028429    1.178203   -0.008439
     10          1           0        2.641478   -0.571556    0.093051
 ---------------------------------------------------------------------

 SCF Done:  E(RB2PLYPD3) =  -155.696914164     A.U. after   11 cycles
 E2(B2PLYPD3) =    -0.2253680238D+00 E(B2PLYPD3) =    -0.15592228218758D+03

 The electronic state is 1-A.
 Alpha  occ. eigenvalues --  -10.62922 -10.62287 -10.61151 -10.60905  -0.93003
 Alpha  occ. eigenvalues --   -0.85336  -0.70440  -0.63823  -0.55104  -0.54097
 Alpha  occ. eigenvalues --   -0.46874  -0.45437  -0.41216  -0.38076  -0.27808
 Alpha virt. eigenvalues --    0.01782   0.07057   0.07449   0.08031   0.09637
 Alpha virt. eigenvalues --    0.11653   0.12518   0.14733   0.15678   0.16404
 Alpha virt. eigenvalues --    0.18815   0.20170   0.22012   0.22643   0.24041

 Mulliken charges:
               1
     1  C   -0.168750
     2  C   -0.039369
     3  C   -0.020367
     4  C   -0.178022
     5  H    0.080902
     6  H    0.067558
     7  H    0.058216
     8  H    0.047336
     9  H    0.063449
    10  H    0.089048
 Sum of Mulliken charges =   0.00000

 Dipole moment (field-independent basis, Debye):
    X=             -0.0354    Y=             -0.0400    Z=              0.0974  Tot=              0.1111
 Quadrupole moment (field-independent basis, Debye-Ang):
   XX=            -23.4196   YY=            -23.0882   ZZ=            -29.1658
   XY=              0.0572   XZ=              0.0126   YZ=             -0.1427

 1\1\GINC-NODE31\SP\RB2PLYPD3-FC\def2QZVP\C4H6\BOITTIER\26-Aug-2020\0\\
 #p B2PLYPD3/Def2QZVP\\butadiene\\0,1\C,0,-3.837419,0.237772,0.021822\C
 ,0,-2.727192,-0.516328,0.025556\C,0,-1.384653,0.047229,0.041472\C,0,-0
 .257493,-0.636568,0.02147\H,0,-4.825428,-0.175583,-0.051854\H,0,-3.804
 302,1.278067,-0.047876\H,0,-2.821664,-1.603896,0.143519\H,0,-1.266637,
 1.138948,-0.024165\H,0,-0.264521,-1.731439,0.08355\H,0,0.647902,-0.123
 421,-0.088349\\Version=ES64L-G09RevD.01\State=1-A\HF=-155.6969142\MP2=
 -155.9222822\RMSD=5.907e-09\PG=C01 [X(C4H6)]\\@

 Normal termination of Gaussian 09 at Wed Aug 26 08:58:23 2020.
