 Gaussian 09, Revision D.01,
 Gaussian 09:  ES64L-G09RevD.01 24-Apr-2013

 --------------------
 #p B2PLYPD3/Def2QZVP
 --------------------

 ---------
 butadiene
 ---------
 Symbolic Z-matrix:
 Charge =  0 Multiplicity = 1

                         Standard orientation:
 ---------------------------------------------------------------------
 Center     Atomic      Atomic             Coordinates (Angstroms)
 Number     Number       Type             X           Y           Z
 ---------------------------------------------------------------------
      1          6           0        1.828500   -0.101865   -0.085931
      2          6           0        0.587383    0.415159    0.067580
      3          6           0       -0.590671   -0.382629    0.018039
      4          6           0       -1.854957    0.090290   -0.039531
      5          1           0        2.728234    0.475958    0.044148
      6          1           0        1.937381   -1.154284   -0.097533
      7          1           0        0.415579    1.473160    0.189264
      8          1           0       -0.283119   -1.433976    0.287926
      9          1           0       -2.086681    1.172630   -0.152497
     10          1           0       -2.532921   -0.659218   -0.032253
 ---------------------------------------------------------------------

 SCF Done:  E(RB2PLYPD3) =  -155.682211317     A.U. after   11 cycles
 E2(B2PLYPD3) =    -0.2271029479D+00 E(B2PLYPD3) =    -0.15590931426504D+03

 The electronic state is 1-A.
 Alpha  occ. eigenvalues --  -10.62768 -10.62271 -10.61518 -10.61467  -0.93343
 Alpha  occ. eigenvalues --   -0.84750  -0.71280  -0.63640  -0.54856  -0.53714
 Alpha  occ. eigenvalues --   -0.46728  -0.46451  -0.41305  -0.37328  -0.27392
 Alpha virt. eigenvalues --    0.01013   0.07169   0.07228   0.08121   0.09458
 Alpha virt. eigenvalues --    0.11685   0.12345   0.14760   0.15287   0.16361
 Alpha virt. eigenvalues --    0.18710   0.19492   0.21516   0.22776   0.23969

 Mulliken charges:
               1
     1  C   -0.170901
     2  C   -0.030947
     3  C   -0.021013
     4  C   -0.200259
     5  H    0.083867
     6  H    0.059678
     7  H    0.051627
     8  H    0.050263
     9  H    0.082885
    10  H    0.094799
 Sum of Mulliken charges =   0.00000

 Dipole moment (field-independent basis, Debye):
    X=              0.0174    Y=              0.0453    Z=              0.2567  Tot=              0.2612
 Quadrupole moment (field-independent basis, Debye-Ang):
   XX=            -23.8283   YY=            -23.2239   ZZ=            -29.1793
   XY=             -0.5391   XZ=              0.3801   YZ=             -0.1556

 1\1\GINC-NODE26\SP\RB2PLYPD3-FC\def2QZVP\C4H6\BOITTIER\26-Aug-2020\0\\
 #p B2PLYPD3/Def2QZVP\\butadiene\\0,1\C,0,-3.829975,0.239477,-0.053981\
 C,0,-2.711405,-0.504922,0.107021\C,0,-1.401643,0.049014,0.040624\C,0,-
 0.252928,-0.660388,-0.010279\H,0,-4.82373,-0.151049,0.088369\H,0,-3.73
 3444,1.292708,-0.084999\H,0,-2.746699,-1.573819,0.248098\H,0,-1.498757
 ,1.144658,0.291404\H,0,-0.235375,-1.768957,-0.10346\H,0,0.55715,-0.056
 1,-0.018116\\Version=ES64L-G09RevD.01\State=1-A\HF=-155.6822113\MP2=-1
 55.9093143\RMSD=7.875e-09\PG=C01 [X(C4H6)]\\@

 Normal termination of Gaussian 09 at Wed Aug 26 12:43:09 2020.
