 Gaussian 09, Revision D.01,
 Gaussian 09:  ES64L-G09RevD.01 24-Apr-2013

 --------------------
 #p B2PLYPD3/Def2QZVP
 --------------------

 ---------
 butadiene
 ---------
 Symbolic Z-matrix:
 Charge =  0 Multiplicity = 1

                         Standard orientation:
 ---------------------------------------------------------------------
 Center     Atomic      Atomic             Coordinates (Angstroms)
 Number     Number       Type             X           Y           Z
 ---------------------------------------------------------------------
      1          6           0        1.824276   -0.130030    0.023379
      2          6           0        0.600550    0.430454   -0.005990
      3          6           0       -0.589747   -0.382225   -0.051788
      4          6           0       -1.832450    0.079420    0.010532
      5          1           0        2.732643    0.444479    0.066506
      6          1           0        1.887571   -1.197794   -0.006374
      7          1           0        0.550740    1.517915   -0.082409
      8          1           0       -0.431809   -1.445713   -0.001516
      9          1           0       -1.989499    1.162554    0.045186
     10          1           0       -2.765424   -0.467154    0.121808
 ---------------------------------------------------------------------

 SCF Done:  E(RB2PLYPD3) =  -155.697077219     A.U. after   11 cycles
 E2(B2PLYPD3) =    -0.2259887562D+00 E(B2PLYPD3) =    -0.15592306597515D+03

 The electronic state is 1-A.
 Alpha  occ. eigenvalues --  -10.62704 -10.62380 -10.61530 -10.61458  -0.93272
 Alpha  occ. eigenvalues --   -0.84859  -0.70120  -0.64367  -0.55103  -0.53805
 Alpha  occ. eigenvalues --   -0.46769  -0.45015  -0.41345  -0.38281  -0.27548
 Alpha virt. eigenvalues --    0.01658   0.07075   0.07452   0.08031   0.09460
 Alpha virt. eigenvalues --    0.11586   0.12767   0.14440   0.15668   0.16599
 Alpha virt. eigenvalues --    0.18781   0.20224   0.21871   0.23048   0.23614

 Mulliken charges:
               1
     1  C   -0.177757
     2  C   -0.028875
     3  C   -0.029460
     4  C   -0.166230
     5  H    0.087564
     6  H    0.063535
     7  H    0.058114
     8  H    0.055508
     9  H    0.052764
    10  H    0.084837
 Sum of Mulliken charges =   0.00000

 Dipole moment (field-independent basis, Debye):
    X=              0.0327    Y=              0.0164    Z=              0.0900  Tot=              0.0972
 Quadrupole moment (field-independent basis, Debye-Ang):
   XX=            -23.2167   YY=            -23.3151   ZZ=            -29.2218
   XY=              0.0437   XZ=             -0.3673   YZ=             -0.0952

 1\1\GINC-NODE08\SP\RB2PLYPD3-FC\def2QZVP\C4H6\BOITTIER\26-Aug-2020\0\\
 #p B2PLYPD3/Def2QZVP\\butadiene\\0,1\C,0,-3.823097,0.23977,0.039562\C,
 0,-2.719678,-0.531477,0.027107\C,0,-1.4029,0.053563,-0.029243\C,0,-0.2
 63186,-0.621998,0.048095\H,0,-4.819804,-0.1616,0.089831\H,0,-3.693867,
 1.300752,-0.011722\H,0,-2.865592,-1.611582,-0.027431\H,0,-1.367631,1.1
 28937,-0.000879\H,0,-0.302942,-1.714803,0.105026\H,0,0.752556,-0.24936
 3,0.152868\\Version=ES64L-G09RevD.01\State=1-A\HF=-155.6970772\MP2=-15
 5.923066\RMSD=6.039e-09\PG=C01 [X(C4H6)]\\@

 Normal termination of Gaussian 09 at Wed Aug 26 09:31:07 2020.
