 Gaussian 09, Revision D.01,
 Gaussian 09:  ES64L-G09RevD.01 24-Apr-2013

 --------------------
 #p B2PLYPD3/Def2QZVP
 --------------------

 ---------
 butadiene
 ---------
 Symbolic Z-matrix:
 Charge =  0 Multiplicity = 1

                         Standard orientation:
 ---------------------------------------------------------------------
 Center     Atomic      Atomic             Coordinates (Angstroms)
 Number     Number       Type             X           Y           Z
 ---------------------------------------------------------------------
      1          6           0       -1.846625   -0.122091   -0.012870
      2          6           0       -0.619083    0.412118    0.005972
      3          6           0        0.612773   -0.398944    0.051065
      4          6           0        1.846137    0.107554   -0.039025
      5          1           0       -2.673376    0.530941   -0.060559
      6          1           0       -1.981313   -1.207925   -0.134221
      7          1           0       -0.541045    1.493013    0.169031
      8          1           0        0.452656   -1.438027    0.114554
      9          1           0        2.058899    1.169375   -0.093006
     10          1           0        2.724967   -0.539197   -0.026652
 ---------------------------------------------------------------------

 SCF Done:  E(RB2PLYPD3) =  -155.697340635     A.U. after   11 cycles
 E2(B2PLYPD3) =    -0.2257886266D+00 E(B2PLYPD3) =    -0.15592312926162D+03

 The electronic state is 1-A.
 Alpha  occ. eigenvalues --  -10.62707 -10.62460 -10.61688 -10.61405  -0.92654
 Alpha  occ. eigenvalues --   -0.84953  -0.70001  -0.64124  -0.54661  -0.53746
 Alpha  occ. eigenvalues --   -0.46960  -0.45535  -0.41139  -0.37626  -0.27834
 Alpha virt. eigenvalues --    0.01811   0.07060   0.07469   0.08028   0.09294
 Alpha virt. eigenvalues --    0.11657   0.12354   0.14711   0.15520   0.16302
 Alpha virt. eigenvalues --    0.18796   0.19901   0.21874   0.22741   0.23873

 Mulliken charges:
               1
     1  C   -0.180415
     2  C   -0.031247
     3  C   -0.045504
     4  C   -0.168658
     5  H    0.087221
     6  H    0.065565
     7  H    0.059232
     8  H    0.063936
     9  H    0.069080
    10  H    0.080788
 Sum of Mulliken charges =   0.00000

 Dipole moment (field-independent basis, Debye):
    X=              0.0132    Y=              0.0144    Z=              0.0026  Tot=              0.0197
 Quadrupole moment (field-independent basis, Debye-Ang):
   XX=            -23.6041   YY=            -23.0296   ZZ=            -29.2498
   XY=              0.1245   XZ=              0.1085   YZ=              0.1179

 1\1\GINC-NODE07\SP\RB2PLYPD3-FC\def2QZVP\C4H6\BOITTIER\26-Aug-2020\0\\
 #p B2PLYPD3/Def2QZVP\\butadiene\\0,1\C,0,-3.846893,0.232872,0.033879\C
 ,0,-2.73376,-0.511074,0.025294\C,0,-1.377574,0.067446,-0.032981\C,0,-0
 .253537,-0.648384,0.066872\H,0,-4.776347,-0.262047,0.092307\H,0,-3.786
 353,1.327299,0.136183\H,0,-2.849271,-1.591303,-0.118841\H,0,-1.350792,
 1.117193,-0.114694\H,0,-0.232569,-1.730016,0.139515\H,0,0.726136,-0.16
 8283,0.043904\\Version=ES64L-G09RevD.01\State=1-A\HF=-155.6973406\MP2=
 -155.9231293\RMSD=3.133e-09\PG=C01 [X(C4H6)]\\@

 Normal termination of Gaussian 09 at Wed Aug 26 09:13:10 2020.
