 Gaussian 09, Revision D.01,
 Gaussian 09:  ES64L-G09RevD.01 24-Apr-2013

 --------------------
 #p B2PLYPD3/Def2QZVP
 --------------------

 ---------
 butadiene
 ---------
 Symbolic Z-matrix:
 Charge =  0 Multiplicity = 1

                         Standard orientation:
 ---------------------------------------------------------------------
 Center     Atomic      Atomic             Coordinates (Angstroms)
 Number     Number       Type             X           Y           Z
 ---------------------------------------------------------------------
      1          6           0        1.857547   -0.084435    0.040178
      2          6           0        0.610103    0.353016   -0.058109
      3          6           0       -0.621380   -0.420973   -0.049355
      4          6           0       -1.855040    0.129910    0.010067
      5          1           0        2.713777    0.536616    0.034131
      6          1           0        1.997063   -1.137018    0.086186
      7          1           0        0.474958    1.457435    0.004469
      8          1           0       -0.501667   -1.469859   -0.026406
      9          1           0       -1.944010    1.236804    0.095644
     10          1           0       -2.687502   -0.489084    0.149288
 ---------------------------------------------------------------------

 SCF Done:  E(RB2PLYPD3) =  -155.694698341     A.U. after   11 cycles
 E2(B2PLYPD3) =    -0.2258755493D+00 E(B2PLYPD3) =    -0.15592057389048D+03

 The electronic state is 1-A.
 Alpha  occ. eigenvalues --  -10.62657 -10.62524 -10.61921 -10.60929  -0.92939
 Alpha  occ. eigenvalues --   -0.85180  -0.70636  -0.63955  -0.55149  -0.53970
 Alpha  occ. eigenvalues --   -0.47194  -0.45592  -0.40953  -0.37996  -0.27741
 Alpha virt. eigenvalues --    0.01410   0.07016   0.07475   0.08118   0.09717
 Alpha virt. eigenvalues --    0.11673   0.12535   0.14642   0.15713   0.16337
 Alpha virt. eigenvalues --    0.18906   0.19904   0.21751   0.23031   0.23812

 Mulliken charges:
               1
     1  C   -0.179353
     2  C   -0.010122
     3  C   -0.045535
     4  C   -0.169301
     5  H    0.094034
     6  H    0.057697
     7  H    0.039566
     8  H    0.055687
     9  H    0.066423
    10  H    0.090904
 Sum of Mulliken charges =   0.00000

 Dipole moment (field-independent basis, Debye):
    X=              0.0022    Y=             -0.0670    Z=              0.2490  Tot=              0.2579
 Quadrupole moment (field-independent basis, Debye-Ang):
   XX=            -23.3936   YY=            -23.2564   ZZ=            -29.2077
   XY=              0.1378   XZ=             -0.3665   YZ=              0.0018

 1\1\GINC-NODE14\SP\RB2PLYPD3-FC\def2QZVP\C4H6\BOITTIER\26-Aug-2020\0\\
 #p B2PLYPD3/Def2QZVP\\butadiene\\0,1\C,0,-3.86727,0.195754,0.060193\C,
 0,-2.716902,-0.458417,-0.016314\C,0,-1.368082,0.085786,-0.031027\C,0,-
 0.250949,-0.67162,0.054227\H,0,-4.819722,-0.264168,0.07355\H,0,-3.8186
 24,1.257407,0.066374\H,0,-2.778754,-1.566221,0.087926\H,0,-1.30065,1.1
 39444,-0.047666\H,0,-0.358635,-1.772846,0.18134\H,0,0.678051,-0.204543
 ,0.173924\\Version=ES64L-G09RevD.01\State=1-A\HF=-155.6946983\MP2=-155
 .9205739\RMSD=7.050e-09\PG=C01 [X(C4H6)]\\@

 Normal termination of Gaussian 09 at Wed Aug 26 09:17:12 2020.
