 Gaussian 09, Revision D.01,
 Gaussian 09:  ES64L-G09RevD.01 24-Apr-2013

 --------------------
 #p B2PLYPD3/Def2QZVP
 --------------------

 ---------
 butadiene
 ---------
 Symbolic Z-matrix:
 Charge =  0 Multiplicity = 1

                         Standard orientation:
 ---------------------------------------------------------------------
 Center     Atomic      Atomic             Coordinates (Angstroms)
 Number     Number       Type             X           Y           Z
 ---------------------------------------------------------------------
      1          6           0        1.840623    0.102690    0.012167
      2          6           0        0.602740   -0.398059   -0.018555
      3          6           0       -0.598897    0.409094   -0.015607
      4          6           0       -1.834880   -0.111736    0.006364
      5          1           0        2.706989   -0.521784    0.011142
      6          1           0        1.969434    1.165781   -0.012527
      7          1           0        0.428552   -1.442997    0.051305
      8          1           0       -0.484763    1.489949    0.024714
      9          1           0       -1.965362   -1.210040   -0.022522
     10          1           0       -2.712367    0.507155    0.041679
 ---------------------------------------------------------------------

 SCF Done:  E(RB2PLYPD3) =  -155.700100693     A.U. after   11 cycles
 E2(B2PLYPD3) =    -0.2257453894D+00 E(B2PLYPD3) =    -0.15592584608216D+03

 The electronic state is 1-A.
 Alpha  occ. eigenvalues --  -10.62508 -10.62189 -10.61761 -10.61255  -0.93129
 Alpha  occ. eigenvalues --   -0.84851  -0.70273  -0.64299  -0.54757  -0.53940
 Alpha  occ. eigenvalues --   -0.46735  -0.45658  -0.41445  -0.38120  -0.27574
 Alpha virt. eigenvalues --    0.01656   0.07055   0.07418   0.08137   0.09547
 Alpha virt. eigenvalues --    0.11727   0.12508   0.14658   0.15795   0.16144
 Alpha virt. eigenvalues --    0.18718   0.20358   0.21575   0.23182   0.23928

 Mulliken charges:
               1
     1  C   -0.178803
     2  C   -0.028555
     3  C   -0.028127
     4  C   -0.179026
     5  H    0.088868
     6  H    0.066302
     7  H    0.057035
     8  H    0.051877
     9  H    0.061536
    10  H    0.088894
 Sum of Mulliken charges =   0.00000

 Dipole moment (field-independent basis, Debye):
    X=             -0.0045    Y=              0.0089    Z=              0.0596  Tot=              0.0604
 Quadrupole moment (field-independent basis, Debye-Ang):
   XX=            -23.5070   YY=            -23.1128   ZZ=            -29.2557
   XY=              0.0291   XZ=             -0.0656   YZ=              0.0003

 1\1\GINC-NODE32\SP\RB2PLYPD3-FC\def2QZVP\C4H6\BOITTIER\26-Aug-2020\0\\
 #p B2PLYPD3/Def2QZVP\\butadiene\\0,1\C,0,-3.842721,0.218886,0.005304\C
 ,0,-2.715956,-0.496853,0.051852\C,0,-1.387974,0.078743,0.027537\C,0,-0
 .266921,-0.657877,0.021981\H,0,-4.807889,-0.237948,0.022943\H,0,-3.776
 67,1.287983,-0.000383\H,0,-2.734266,-1.557602,0.011934\H,0,-1.304523,1
 .160811,-0.043625\H,0,-0.337501,-1.760383,0.082229\H,0,0.70804,-0.2095
 13,-0.029761\\Version=ES64L-G09RevD.01\State=1-A\HF=-155.7001007\MP2=-
 155.9258461\RMSD=3.106e-09\PG=C01 [X(C4H6)]\\@

 Normal termination of Gaussian 09 at Wed Aug 26 20:52:33 2020.
