 Gaussian 09, Revision D.01,
 Gaussian 09:  ES64L-G09RevD.01 24-Apr-2013

 --------------------
 #p B2PLYPD3/Def2QZVP
 --------------------

 ---------
 butadiene
 ---------
 Symbolic Z-matrix:
 Charge =  0 Multiplicity = 1

                         Standard orientation:
 ---------------------------------------------------------------------
 Center     Atomic      Atomic             Coordinates (Angstroms)
 Number     Number       Type             X           Y           Z
 ---------------------------------------------------------------------
      1          6           0        1.830073   -0.094251    0.029499
      2          6           0        0.591088    0.374878   -0.039917
      3          6           0       -0.595792   -0.418964   -0.040175
      4          6           0       -1.821659    0.103693    0.023663
      5          1           0        2.661157    0.579924    0.135401
      6          1           0        2.063594   -1.136138    0.034204
      7          1           0        0.447809    1.462498   -0.135697
      8          1           0       -0.446100   -1.451710   -0.065416
      9          1           0       -1.997844    1.211116    0.085673
     10          1           0       -2.750873   -0.457825    0.107415
 ---------------------------------------------------------------------

 SCF Done:  E(RB2PLYPD3) =  -155.696872951     A.U. after   11 cycles
 E2(B2PLYPD3) =    -0.2255804337D+00 E(B2PLYPD3) =    -0.15592245338457D+03

 The electronic state is 1-A.
 Alpha  occ. eigenvalues --  -10.62245 -10.62131 -10.61981 -10.61081  -0.93537
 Alpha  occ. eigenvalues --   -0.84898  -0.70505  -0.64374  -0.55076  -0.53852
 Alpha  occ. eigenvalues --   -0.47123  -0.45031  -0.41231  -0.38290  -0.27605
 Alpha virt. eigenvalues --    0.01650   0.06984   0.07436   0.08091   0.09749
 Alpha virt. eigenvalues --    0.11624   0.12519   0.14743   0.15760   0.16302
 Alpha virt. eigenvalues --    0.18790   0.20481   0.21902   0.22540   0.23644

 Mulliken charges:
               1
     1  C   -0.182825
     2  C   -0.016112
     3  C   -0.041087
     4  C   -0.163196
     5  H    0.083874
     6  H    0.065577
     7  H    0.053209
     8  H    0.062989
     9  H    0.055864
    10  H    0.081706
 Sum of Mulliken charges =   0.00000

 Dipole moment (field-independent basis, Debye):
    X=             -0.0291    Y=             -0.0446    Z=              0.0921  Tot=              0.1063
 Quadrupole moment (field-independent basis, Debye-Ang):
   XX=            -23.3511   YY=            -23.2543   ZZ=            -29.1295
   XY=             -0.2972   XZ=             -0.0626   YZ=              0.0214

 1\1\GINC-NODE22\SP\RB2PLYPD3-FC\def2QZVP\C4H6\BOITTIER\26-Aug-2020\0\\
 #p B2PLYPD3/Def2QZVP\\butadiene\\0,1\C,0,-3.832901,0.216002,0.049191\C
 ,0,-2.703268,-0.477775,-0.001668\C,0,-1.389276,0.08058,-0.024777\C,0,-
 0.282032,-0.658976,0.05926\H,0,-4.774659,-0.287701,0.1749\H,0,-3.8682,
 1.282746,0.019271\H,0,-2.765475,-1.575577,-0.061514\H,0,-1.344023,1.12
 1753,-0.084112\H,0,-0.315039,-1.777217,0.157851\H,0,0.735821,-0.278006
 ,0.127035\\Version=ES64L-G09RevD.01\State=1-A\HF=-155.696873\MP2=-155.
 9224534\RMSD=4.268e-09\PG=C01 [X(C4H6)]\\@

 Normal termination of Gaussian 09 at Wed Aug 26 09:04:04 2020.
