 Gaussian 09, Revision D.01,
 Gaussian 09:  ES64L-G09RevD.01 24-Apr-2013

 --------------------
 #p B2PLYPD3/Def2QZVP
 --------------------

 ---------
 butadiene
 ---------
 Symbolic Z-matrix:
 Charge =  0 Multiplicity = 1

                         Standard orientation:
 ---------------------------------------------------------------------
 Center     Atomic      Atomic             Coordinates (Angstroms)
 Number     Number       Type             X           Y           Z
 ---------------------------------------------------------------------
      1          6           0       -1.828807   -0.124968    0.017606
      2          6           0       -0.601926    0.427131   -0.031995
      3          6           0        0.603389   -0.387569   -0.014610
      4          6           0        1.835031    0.100606    0.020040
      5          1           0       -2.762118    0.468777    0.065571
      6          1           0       -1.970081   -1.219375    0.007851
      7          1           0       -0.505338    1.501404   -0.011501
      8          1           0        0.490759   -1.473085   -0.053258
      9          1           0        1.975033    1.171204   -0.005184
     10          1           0        2.725624   -0.540124    0.050276
 ---------------------------------------------------------------------

 SCF Done:  E(RB2PLYPD3) =  -155.699139540     A.U. after   11 cycles
 E2(B2PLYPD3) =    -0.2260739629D+00 E(B2PLYPD3) =    -0.15592521350243D+03

 The electronic state is 1-A.
 Alpha  occ. eigenvalues --  -10.62815 -10.62411 -10.62209 -10.61370  -0.92990
 Alpha  occ. eigenvalues --   -0.84751  -0.69601  -0.64117  -0.54305  -0.53888
 Alpha  occ. eigenvalues --   -0.46542  -0.44992  -0.41298  -0.38140  -0.27657
 Alpha virt. eigenvalues --    0.01812   0.06992   0.07372   0.07952   0.09477
 Alpha virt. eigenvalues --    0.11636   0.12463   0.14484   0.15832   0.16272
 Alpha virt. eigenvalues --    0.18742   0.20395   0.21512   0.22834   0.23812

 Mulliken charges:
               1
     1  C   -0.168699
     2  C   -0.041932
     3  C   -0.021169
     4  C   -0.176528
     5  H    0.081470
     6  H    0.063835
     7  H    0.060595
     8  H    0.053775
     9  H    0.062612
    10  H    0.086040
 Sum of Mulliken charges =   0.00000

 Dipole moment (field-independent basis, Debye):
    X=             -0.0321    Y=              0.0023    Z=              0.0147  Tot=              0.0354
 Quadrupole moment (field-independent basis, Debye-Ang):
   XX=            -23.5199   YY=            -23.0944   ZZ=            -29.3421
   XY=              0.0086   XZ=             -0.1147   YZ=              0.0459

 1\1\GINC-NODE16\SP\RB2PLYPD3-FC\def2QZVP\C4H6\BOITTIER\26-Aug-2020\0\\
 #p B2PLYPD3/Def2QZVP\\butadiene\\0,1\C,0,-3.830179,0.2335,-0.001871\C,
 0,-2.720674,-0.526061,0.065764\C,0,-1.389928,0.060987,0.029543\C,0,-0.
 264579,-0.638808,0.011247\H,0,-4.854167,-0.186227,-0.036228\H,0,-3.774
 924,1.335464,-0.021982\H,0,-2.816355,-1.600576,0.074482\H,0,-1.307997,
 1.149899,0.038627\H,0,-0.316781,-1.71618,0.06568\H,0,0.725534,-0.16738
 7,-0.033945\\Version=ES64L-G09RevD.01\State=1-A\HF=-155.6991395\MP2=-1
 55.9252135\RMSD=5.872e-09\PG=C01 [X(C4H6)]\\@

 Normal termination of Gaussian 09 at Wed Aug 26 09:09:50 2020.
