 Gaussian 09, Revision D.01,
 Gaussian 09:  ES64L-G09RevD.01 24-Apr-2013

 --------------------
 #p B2PLYPD3/Def2QZVP
 --------------------

 ---------
 butadiene
 ---------
 Symbolic Z-matrix:
 Charge =  0 Multiplicity = 1

                         Standard orientation:
 ---------------------------------------------------------------------
 Center     Atomic      Atomic             Coordinates (Angstroms)
 Number     Number       Type             X           Y           Z
 ---------------------------------------------------------------------
      1          6           0        1.820664   -0.072715    0.092857
      2          6           0        0.583647    0.377570   -0.109531
      3          6           0       -0.614928   -0.480430   -0.039860
      4          6           0       -1.827412    0.124880    0.062019
      5          1           0        2.696684    0.534922   -0.111251
      6          1           0        2.147668   -1.062073    0.199958
      7          1           0        0.454694    1.468691   -0.155679
      8          1           0       -0.393627   -1.579428   -0.132533
      9          1           0       -1.871291    1.349271    0.276869
     10          1           0       -2.805950   -0.407214   -0.110273
 ---------------------------------------------------------------------

 SCF Done:  E(RB2PLYPD3) =  -155.670361903     A.U. after   12 cycles
 E2(B2PLYPD3) =    -0.2283360893D+00 E(B2PLYPD3) =    -0.15589869799218D+03

 The electronic state is 1-A.
 Alpha  occ. eigenvalues --  -10.64223 -10.63858 -10.62859 -10.60929  -0.92480
 Alpha  occ. eigenvalues --   -0.84144  -0.69374  -0.63575  -0.54473  -0.52113
 Alpha  occ. eigenvalues --   -0.46901  -0.43984  -0.40705  -0.37129  -0.27632
 Alpha virt. eigenvalues --    0.01276   0.06525   0.07132   0.07818   0.08986
 Alpha virt. eigenvalues --    0.11460   0.12222   0.14403   0.15484   0.16241
 Alpha virt. eigenvalues --    0.18826   0.19626   0.20543   0.22502   0.23670

 Mulliken charges:
               1
     1  C   -0.158819
     2  C   -0.028301
     3  C   -0.050201
     4  C   -0.161896
     5  H    0.067694
     6  H    0.055576
     7  H    0.063657
     8  H    0.068209
     9  H    0.055675
    10  H    0.088405
 Sum of Mulliken charges =   0.00000

 Dipole moment (field-independent basis, Debye):
    X=              0.0448    Y=             -0.1115    Z=             -0.1491  Tot=              0.1915
 Quadrupole moment (field-independent basis, Debye-Ang):
   XX=            -23.6475   YY=            -23.2865   ZZ=            -29.4516
   XY=             -0.5039   XZ=              0.0205   YZ=              0.1547

 1\1\GINC-NODE33\SP\RB2PLYPD3-FC\def2QZVP\C4H6\BOITTIER\26-Aug-2020\0\\
 #p B2PLYPD3/Def2QZVP\\butadiene\\0,1\C,0,-3.832692,0.19548,0.107684\C,
 0,-2.702456,-0.487136,-0.067042\C,0,-1.364868,0.135599,-0.041352\C,0,-
 0.285148,-0.678161,0.096112\H,0,-4.807899,-0.248825,-0.06511\H,0,-3.96
 94,1.232688,0.16006\H,0,-2.77877,-1.584084,-0.053482\H,0,-1.378916,1.2
 49964,-0.19417\H,0,-0.467763,-1.875986,0.377334\H,0,0.773812,-0.347303
 ,-0.102589\\Version=ES64L-G09RevD.01\State=1-A\HF=-155.6703619\MP2=-15
 5.898698\RMSD=6.030e-09\PG=C01 [X(C4H6)]\\@

 Normal termination of Gaussian 09 at Wed Aug 26 15:50:51 2020.
