 Gaussian 09, Revision D.01,
 Gaussian 09:  ES64L-G09RevD.01 24-Apr-2013

 --------------------
 #p B2PLYPD3/Def2QZVP
 --------------------

 ---------
 butadiene
 ---------
 Symbolic Z-matrix:
 Charge =  0 Multiplicity = 1

                         Standard orientation:
 ---------------------------------------------------------------------
 Center     Atomic      Atomic             Coordinates (Angstroms)
 Number     Number       Type             X           Y           Z
 ---------------------------------------------------------------------
      1          6           0        1.845773    0.107326    0.002124
      2          6           0        0.605989   -0.393612   -0.018014
      3          6           0       -0.606785    0.405551   -0.003881
      4          6           0       -1.837869   -0.118209    0.014127
      5          1           0        2.689500   -0.576295    0.026730
      6          1           0        2.010060    1.180315   -0.010803
      7          1           0        0.455101   -1.463494    0.051744
      8          1           0       -0.486920    1.510212    0.021887
      9          1           0       -2.032115   -1.184647   -0.044249
     10          1           0       -2.678273    0.527570   -0.011444
 ---------------------------------------------------------------------

 SCF Done:  E(RB2PLYPD3) =  -155.699849571     A.U. after   11 cycles
 E2(B2PLYPD3) =    -0.2259015231D+00 E(B2PLYPD3) =    -0.15592575109459D+03

 The electronic state is 1-A.
 Alpha  occ. eigenvalues --  -10.62804 -10.62423 -10.61620 -10.61357  -0.92899
 Alpha  occ. eigenvalues --   -0.84913  -0.70205  -0.63761  -0.54437  -0.54017
 Alpha  occ. eigenvalues --   -0.46407  -0.45886  -0.41121  -0.38065  -0.27646
 Alpha virt. eigenvalues --    0.01674   0.07025   0.07341   0.08043   0.09575
 Alpha virt. eigenvalues --    0.11716   0.12317   0.14812   0.15774   0.16023
 Alpha virt. eigenvalues --    0.18768   0.20445   0.21466   0.22961   0.23921

 Mulliken charges:
               1
     1  C   -0.180145
     2  C   -0.028086
     3  C   -0.029777
     4  C   -0.176975
     5  H    0.087685
     6  H    0.069888
     7  H    0.055114
     8  H    0.049476
     9  H    0.067333
    10  H    0.085486
 Sum of Mulliken charges =   0.00000

 Dipole moment (field-independent basis, Debye):
    X=             -0.0309    Y=             -0.0114    Z=              0.0091  Tot=              0.0342
 Quadrupole moment (field-independent basis, Debye-Ang):
   XX=            -23.6551   YY=            -22.9842   ZZ=            -29.3091
   XY=              0.1617   XZ=              0.2194   YZ=             -0.0287

 1\1\GINC-NODE28\SP\RB2PLYPD3-FC\def2QZVP\C4H6\BOITTIER\26-Aug-2020\0\\
 #p B2PLYPD3/Def2QZVP\\butadiene\\0,1\C,0,-3.847379,0.223673,0.01254\C,
 0,-2.718445,-0.492205,0.050441\C,0,-1.381288,0.074101,0.018968\C,0,-0.
 265091,-0.663679,0.019322\H,0,-4.800746,-0.296737,0.003448\H,0,-3.8151
 28,1.308638,-0.004009\H,0,-2.763398,-1.573237,0.01005\H,0,-1.299682,1.
 181133,-0.036961\H,0,-0.266587,-1.74568,0.107075\H,0,0.678174,-0.17984
 9,0.030387\\Version=ES64L-G09RevD.01\State=1-A\HF=-155.6998496\MP2=-15
 5.9257511\RMSD=2.950e-09\PG=C01 [X(C4H6)]\\@

 Normal termination of Gaussian 09 at Wed Aug 26 19:44:31 2020.
