 Gaussian 09, Revision D.01,
 Gaussian 09:  ES64L-G09RevD.01 24-Apr-2013

 --------------------
 #p B2PLYPD3/Def2QZVP
 --------------------

 ---------
 butadiene
 ---------
 Symbolic Z-matrix:
 Charge =  0 Multiplicity = 1

                         Standard orientation:
 ---------------------------------------------------------------------
 Center     Atomic      Atomic             Coordinates (Angstroms)
 Number     Number       Type             X           Y           Z
 ---------------------------------------------------------------------
      1          6           0       -1.838563   -0.113280   -0.022581
      2          6           0       -0.601166    0.409307    0.012878
      3          6           0        0.600772   -0.379695    0.006044
      4          6           0        1.848503    0.093640   -0.010949
      5          1           0       -2.720893    0.506715   -0.011799
      6          1           0       -2.063639   -1.192404    0.006016
      7          1           0       -0.462447    1.483594    0.101880
      8          1           0        0.459884   -1.446418    0.046002
      9          1           0        2.033240    1.147685   -0.075558
     10          1           0        2.696574   -0.559003    0.021100
 ---------------------------------------------------------------------

 SCF Done:  E(RB2PLYPD3) =  -155.699797317     A.U. after   11 cycles
 E2(B2PLYPD3) =    -0.2258119281D+00 E(B2PLYPD3) =    -0.15592560924498D+03

 The electronic state is 1-A.
 Alpha  occ. eigenvalues --  -10.62700 -10.62188 -10.61958 -10.61245  -0.93116
 Alpha  occ. eigenvalues --   -0.84812  -0.70612  -0.64111  -0.54906  -0.53802
 Alpha  occ. eigenvalues --   -0.47014  -0.45449  -0.41176  -0.38129  -0.27552
 Alpha virt. eigenvalues --    0.01453   0.07010   0.07442   0.08076   0.09718
 Alpha virt. eigenvalues --    0.11632   0.12442   0.14801   0.15838   0.16197
 Alpha virt. eigenvalues --    0.18864   0.20516   0.21779   0.22633   0.23613

 Mulliken charges:
               1
     1  C   -0.171691
     2  C   -0.037824
     3  C   -0.021038
     4  C   -0.180816
     5  H    0.082310
     6  H    0.065214
     7  H    0.057248
     8  H    0.053720
     9  H    0.064887
    10  H    0.087992
 Sum of Mulliken charges =   0.00000

 Dipole moment (field-independent basis, Debye):
    X=             -0.0376    Y=             -0.0085    Z=              0.0903  Tot=              0.0982
 Quadrupole moment (field-independent basis, Debye-Ang):
   XX=            -23.2882   YY=            -23.2002   ZZ=            -29.2469
   XY=              0.2562   XZ=             -0.0984   YZ=             -0.0539

 1\1\GINC-NODE20\SP\RB2PLYPD3-FC\def2QZVP\C4H6\BOITTIER\26-Aug-2020\0\\
 #p B2PLYPD3/Def2QZVP\\butadiene\\0,1\C,0,-3.839332,0.235349,0.036451\C
 ,0,-2.718968,-0.5063,0.020782\C,0,-1.392629,0.04854,0.006502\C,0,-0.25
 2914,-0.644983,0.041758\H,0,-4.820488,-0.212217,0.04244\H,0,-3.862623,
 1.336031,-0.026328\H,0,-2.780021,-1.590038,-0.034377\H,0,-1.335471,1.1
 21235,-0.067006\H,0,-0.26457,-1.712502,0.139637\H,0,0.700431,-0.160384
 ,-0.008153\\Version=ES64L-G09RevD.01\State=1-A\HF=-155.6997973\MP2=-15
 5.9256092\RMSD=4.328e-09\PG=C01 [X(C4H6)]\\@

 Normal termination of Gaussian 09 at Wed Aug 26 16:32:42 2020.
