 Gaussian 09, Revision D.01,
 Gaussian 09:  ES64L-G09RevD.01 24-Apr-2013

 --------------------
 #p B2PLYPD3/Def2QZVP
 --------------------

 ---------
 butadiene
 ---------
 Symbolic Z-matrix:
 Charge =  0 Multiplicity = 1

                         Standard orientation:
 ---------------------------------------------------------------------
 Center     Atomic      Atomic             Coordinates (Angstroms)
 Number     Number       Type             X           Y           Z
 ---------------------------------------------------------------------
      1          6           0        1.832930   -0.120272    0.007179
      2          6           0        0.607311    0.420477   -0.024686
      3          6           0       -0.601964   -0.387290   -0.036917
      4          6           0       -1.840998    0.098880    0.015921
      5          1           0        2.713820    0.502866    0.050133
      6          1           0        2.030367   -1.200802    0.075258
      7          1           0        0.475786    1.497698    0.025648
      8          1           0       -0.468236   -1.451706   -0.019457
      9          1           0       -2.053631    1.151970    0.015954
     10          1           0       -2.681776   -0.570791    0.083480
 ---------------------------------------------------------------------

 SCF Done:  E(RB2PLYPD3) =  -155.700350899     A.U. after   11 cycles
 E2(B2PLYPD3) =    -0.2256627773D+00 E(B2PLYPD3) =    -0.15592601367636D+03

 The electronic state is 1-A.
 Alpha  occ. eigenvalues --  -10.62710 -10.62241 -10.61803 -10.61232  -0.92954
 Alpha  occ. eigenvalues --   -0.84861  -0.70186  -0.64200  -0.54597  -0.53938
 Alpha  occ. eigenvalues --   -0.46724  -0.45612  -0.41133  -0.38080  -0.27645
 Alpha virt. eigenvalues --    0.01732   0.07004   0.07410   0.08092   0.09540
 Alpha virt. eigenvalues --    0.11667   0.12399   0.14800   0.15884   0.16145
 Alpha virt. eigenvalues --    0.18829   0.20481   0.21713   0.22839   0.23738

 Mulliken charges:
               1
     1  C   -0.170989
     2  C   -0.039188
     3  C   -0.025453
     4  C   -0.178531
     5  H    0.081472
     6  H    0.066233
     7  H    0.058948
     8  H    0.057206
     9  H    0.066798
    10  H    0.083504
 Sum of Mulliken charges =   0.00000

 Dipole moment (field-independent basis, Debye):
    X=              0.0262    Y=              0.0013    Z=              0.1687  Tot=              0.1707
 Quadrupole moment (field-independent basis, Debye-Ang):
   XX=            -23.5228   YY=            -23.0297   ZZ=            -29.2600
   XY=             -0.2759   XZ=              0.0430   YZ=             -0.0537

 1\1\GINC-NODE24\SP\RB2PLYPD3-FC\def2QZVP\C4H6\BOITTIER\26-Aug-2020\0\\
 #p B2PLYPD3/Def2QZVP\\butadiene\\0,1\C,0,-3.832384,0.238404,0.03092\C,
 0,-2.725855,-0.517162,0.014203\C,0,-1.389739,0.056271,-0.016652\C,0,-0
 .259802,-0.645986,0.04996\H,0,-4.811884,-0.212597,0.088298\H,0,-3.8295
 09,1.338173,0.071681\H,0,-2.79255,-1.598731,0.091648\H,0,-1.32732,1.12
 7338,-0.026007\H,0,-0.242516,-1.719858,0.076623\H,0,0.689092,-0.139193
 ,0.101843\\Version=ES64L-G09RevD.01\State=1-A\HF=-155.7003509\MP2=-155
 .9260137\RMSD=4.197e-09\PG=C01 [X(C4H6)]\\@

 Normal termination of Gaussian 09 at Wed Aug 26 16:15:33 2020.
