 Gaussian 09, Revision D.01,
 Gaussian 09:  ES64L-G09RevD.01 24-Apr-2013

 --------------------
 #p B2PLYPD3/Def2QZVP
 --------------------

 ---------
 butadiene
 ---------
 Symbolic Z-matrix:
 Charge =  0 Multiplicity = 1

                         Standard orientation:
 ---------------------------------------------------------------------
 Center     Atomic      Atomic             Coordinates (Angstroms)
 Number     Number       Type             X           Y           Z
 ---------------------------------------------------------------------
      1          6           0       -1.867719    0.113474   -0.020396
      2          6           0       -0.617687   -0.420081    0.044031
      3          6           0        0.619991    0.417380   -0.023579
      4          6           0        1.863087   -0.128013   -0.005501
      5          1           0       -2.775601   -0.570216   -0.027469
      6          1           0       -1.920208    1.238823   -0.115452
      7          1           0       -0.516548   -1.450292    0.103357
      8          1           0        0.438104    1.496933    0.190758
      9          1           0        2.138137   -1.182950   -0.136301
     10          1           0        2.650084    0.571142    0.017786
 ---------------------------------------------------------------------

 SCF Done:  E(RB2PLYPD3) =  -155.684842266     A.U. after   12 cycles
 E2(B2PLYPD3) =    -0.2276375399D+00 E(B2PLYPD3) =    -0.15591247980594D+03

 The electronic state is 1-A.
 Alpha  occ. eigenvalues --  -10.63704 -10.62873 -10.62495 -10.61911  -0.91965
 Alpha  occ. eigenvalues --   -0.84301  -0.69402  -0.64046  -0.53961  -0.53110
 Alpha  occ. eigenvalues --   -0.46481  -0.45401  -0.40990  -0.37152  -0.27550
 Alpha virt. eigenvalues --    0.01458   0.06950   0.07327   0.07865   0.08785
 Alpha virt. eigenvalues --    0.11621   0.12125   0.14575   0.15312   0.15941
 Alpha virt. eigenvalues --    0.18572   0.19863   0.21523   0.22840   0.23902

 Mulliken charges:
               1
     1  C   -0.175809
     2  C   -0.040213
     3  C   -0.045089
     4  C   -0.179314
     5  H    0.088505
     6  H    0.062466
     7  H    0.065605
     8  H    0.062819
     9  H    0.079367
    10  H    0.081662
 Sum of Mulliken charges =   0.00000

 Dipole moment (field-independent basis, Debye):
    X=              0.1023    Y=             -0.1019    Z=              0.0288  Tot=              0.1473
 Quadrupole moment (field-independent basis, Debye-Ang):
   XX=            -23.8833   YY=            -22.9087   ZZ=            -29.5494
   XY=             -0.1137   XZ=              0.1149   YZ=              0.2085

 1\1\GINC-NODE31\SP\RB2PLYPD3-FC\def2QZVP\C4H6\BOITTIER\26-Aug-2020\0\\
 #p B2PLYPD3/Def2QZVP\\butadiene\\0,1\C,0,-3.869778,0.22861,0.00036\C,0
 ,-2.733825,-0.516644,0.07531\C,0,-1.367548,0.087529,-0.002274\C,0,-0.2
 40544,-0.668846,0.026495\H,0,-4.884304,-0.283707,0.001647\H,0,-3.72239
 7,1.343932,-0.111608\H,0,-2.816514,-1.547485,0.15023\H,0,-1.355431,1.1
 85337,0.195536\H,0,-0.15656,-1.757653,-0.087964\H,0,0.65775,-0.11968,0
 .040943\\Version=ES64L-G09RevD.01\State=1-A\HF=-155.6848423\MP2=-155.9
 124798\RMSD=3.475e-09\PG=C01 [X(C4H6)]\\@

 Normal termination of Gaussian 09 at Wed Aug 26 14:30:28 2020.
