 Gaussian 09, Revision D.01,
 Gaussian 09:  ES64L-G09RevD.01 24-Apr-2013

 --------------------
 #p B2PLYPD3/Def2QZVP
 --------------------

 ---------
 butadiene
 ---------
 Symbolic Z-matrix:
 Charge =  0 Multiplicity = 1

                         Standard orientation:
 ---------------------------------------------------------------------
 Center     Atomic      Atomic             Coordinates (Angstroms)
 Number     Number       Type             X           Y           Z
 ---------------------------------------------------------------------
      1          6           0        1.843903    0.086247    0.000746
      2          6           0        0.576715   -0.363439   -0.072811
      3          6           0       -0.607643    0.428090   -0.033376
      4          6           0       -1.829220   -0.122008    0.055632
      5          1           0        2.745622   -0.542645    0.171731
      6          1           0        2.080003    1.151489    0.055528
      7          1           0        0.446925   -1.411573    0.043783
      8          1           0       -0.555888    1.478467    0.076214
      9          1           0       -1.730153   -1.191150    0.024641
     10          1           0       -2.889038    0.342066   -0.073041
 ---------------------------------------------------------------------

 SCF Done:  E(RB2PLYPD3) =  -155.681744571     A.U. after   11 cycles
 E2(B2PLYPD3) =    -0.2273349662D+00 E(B2PLYPD3) =    -0.15590907953725D+03

 The electronic state is 1-A.
 Alpha  occ. eigenvalues --  -10.62546 -10.62425 -10.62293 -10.62217  -0.93649
 Alpha  occ. eigenvalues --   -0.84623  -0.69795  -0.64903  -0.54612  -0.53568
 Alpha  occ. eigenvalues --   -0.46712  -0.44144  -0.41608  -0.38233  -0.27422
 Alpha virt. eigenvalues --    0.01014   0.06967   0.07583   0.07859   0.09401
 Alpha virt. eigenvalues --    0.11470   0.12865   0.14267   0.15574   0.16506
 Alpha virt. eigenvalues --    0.18805   0.19212   0.21945   0.22295   0.24461

 Mulliken charges:
               1
     1  C   -0.170779
     2  C   -0.033097
     3  C   -0.027845
     4  C   -0.164047
     5  H    0.078856
     6  H    0.060005
     7  H    0.058051
     8  H    0.061857
     9  H    0.047851
    10  H    0.089149
 Sum of Mulliken charges =   0.00000

 Dipole moment (field-independent basis, Debye):
    X=             -0.0214    Y=              0.0437    Z=              0.1882  Tot=              0.1944
 Quadrupole moment (field-independent basis, Debye-Ang):
   XX=            -23.0315   YY=            -23.6929   ZZ=            -29.2706
   XY=             -0.1886   XZ=              0.8723   YZ=             -0.0735

 1\1\GINC-NODE34\SP\RB2PLYPD3-FC\def2QZVP\C4H6\BOITTIER\26-Aug-2020\0\\
 #p B2PLYPD3/Def2QZVP\\butadiene\\0,1\C,0,-3.854381,0.191764,-0.000309\
 C,0,-2.686572,-0.471903,0.095404\C,0,-1.381131,0.097556,0.047241\C,0,-
 0.275185,-0.661041,-0.017519\H,0,-4.852017,-0.272761,-0.163943\H,0,-3.
 898881,1.280182,-0.083076\H,0,-2.742941,-1.529146,0.005492\H,0,-1.2465
 47,1.137503,-0.088318\H,0,-0.561188,-1.694915,0.038585\H,0,0.849229,-0
 .387611,0.109229\\Version=ES64L-G09RevD.01\State=1-A\HF=-155.6817446\M
 P2=-155.9090795\RMSD=5.392e-09\PG=C01 [X(C4H6)]\\@

 Normal termination of Gaussian 09 at Wed Aug 26 16:02:18 2020.
