 Gaussian 09, Revision D.01,
 Gaussian 09:  ES64L-G09RevD.01 24-Apr-2013

 --------------------
 #p B2PLYPD3/Def2QZVP
 --------------------

 ---------
 butadiene
 ---------
 Symbolic Z-matrix:
 Charge =  0 Multiplicity = 1

                         Standard orientation:
 ---------------------------------------------------------------------
 Center     Atomic      Atomic             Coordinates (Angstroms)
 Number     Number       Type             X           Y           Z
 ---------------------------------------------------------------------
      1          6           0       -1.843653   -0.121194    0.022664
      2          6           0       -0.612191    0.410518   -0.029303
      3          6           0        0.618827   -0.390435   -0.008161
      4          6           0        1.842228    0.104068    0.011763
      5          1           0       -2.711921    0.494401   -0.024190
      6          1           0       -2.021736   -1.184789    0.060697
      7          1           0       -0.512997    1.500416   -0.022949
      8          1           0        0.490408   -1.482907   -0.058501
      9          1           0        1.989332    1.183446    0.074262
     10          1           0        2.735650   -0.528304   -0.011094
 ---------------------------------------------------------------------

 SCF Done:  E(RB2PLYPD3) =  -155.700167331     A.U. after   11 cycles
 E2(B2PLYPD3) =    -0.2256249291D+00 E(B2PLYPD3) =    -0.15592579226003D+03

 The electronic state is 1-A.
 Alpha  occ. eigenvalues --  -10.62929 -10.62566 -10.61496 -10.61445  -0.92758
 Alpha  occ. eigenvalues --   -0.85073  -0.69934  -0.63776  -0.54544  -0.53925
 Alpha  occ. eigenvalues --   -0.46802  -0.45423  -0.40869  -0.38010  -0.27895
 Alpha virt. eigenvalues --    0.01882   0.07013   0.07386   0.08003   0.09581
 Alpha virt. eigenvalues --    0.11631   0.12424   0.14621   0.15794   0.16251
 Alpha virt. eigenvalues --    0.18850   0.20329   0.21701   0.22709   0.23755

 Mulliken charges:
               1
     1  C   -0.172793
     2  C   -0.038566
     3  C   -0.025307
     4  C   -0.172490
     5  H    0.085258
     6  H    0.066483
     7  H    0.055136
     8  H    0.052363
     9  H    0.062827
    10  H    0.087090
 Sum of Mulliken charges =   0.00000

 Dipole moment (field-independent basis, Debye):
    X=             -0.0250    Y=             -0.0056    Z=             -0.0051  Tot=              0.0261
 Quadrupole moment (field-independent basis, Debye-Ang):
   XX=            -23.3654   YY=            -23.1298   ZZ=            -29.2865
   XY=              0.0875   XZ=              0.0301   YZ=              0.0605

 1\1\GINC-NODE30\SP\RB2PLYPD3-FC\def2QZVP\C4H6\BOITTIER\26-Aug-2020\0\\
 #p B2PLYPD3/Def2QZVP\\butadiene\\0,1\C,0,-3.846017,0.229311,-0.003356\
 C,0,-2.727577,-0.509985,0.063359\C,0,-1.374592,0.06034,0.024132\C,0,-0
 .257737,-0.642681,0.01805\H,0,-4.809156,-0.222023,0.057493\H,0,-3.8337
 03,1.306383,-0.067838\H,0,-2.822317,-1.600102,0.08401\H,0,-1.30803,1.1
 59226,0.047351\H,0,-0.303633,-1.732279,-0.017622\H,0,0.733334,-0.17757
 1,0.026511\\Version=ES64L-G09RevD.01\State=1-A\HF=-155.7001673\MP2=-15
 5.9257923\RMSD=5.895e-09\PG=C01 [X(C4H6)]\\@

 Normal termination of Gaussian 09 at Wed Aug 26 21:55:03 2020.
