 Gaussian 09, Revision D.01,
 Gaussian 09:  ES64L-G09RevD.01 24-Apr-2013

 --------------------
 #p B2PLYPD3/Def2QZVP
 --------------------

 ---------
 butadiene
 ---------
 Symbolic Z-matrix:
 Charge =  0 Multiplicity = 1

                         Standard orientation:
 ---------------------------------------------------------------------
 Center     Atomic      Atomic             Coordinates (Angstroms)
 Number     Number       Type             X           Y           Z
 ---------------------------------------------------------------------
      1          6           0        1.854198    0.107827    0.038543
      2          6           0        0.622175   -0.409990    0.002790
      3          6           0       -0.625525    0.421295   -0.053667
      4          6           0       -1.847381   -0.127193    0.001219
      5          1           0        2.761249   -0.569855   -0.069188
      6          1           0        2.046142    1.172901    0.196899
      7          1           0        0.353005   -1.425329   -0.269937
      8          1           0       -0.502272    1.515532   -0.169023
      9          1           0       -2.023750   -1.222770    0.277039
     10          1           0       -2.655175    0.577885    0.100899
 ---------------------------------------------------------------------

 SCF Done:  E(RB2PLYPD3) =  -155.685261717     A.U. after   11 cycles
 E2(B2PLYPD3) =    -0.2272482944D+00 E(B2PLYPD3) =    -0.15591251001128D+03

 The electronic state is 1-A.
 Alpha  occ. eigenvalues --  -10.63168 -10.62983 -10.62549 -10.62056  -0.92282
 Alpha  occ. eigenvalues --   -0.84629  -0.69339  -0.63335  -0.54027  -0.52794
 Alpha  occ. eigenvalues --   -0.46945  -0.45464  -0.39963  -0.37270  -0.28077
 Alpha virt. eigenvalues --    0.01696   0.07024   0.07228   0.07786   0.08797
 Alpha virt. eigenvalues --    0.11588   0.12195   0.14666   0.15100   0.15872
 Alpha virt. eigenvalues --    0.18743   0.19703   0.21036   0.22772   0.23739

 Mulliken charges:
               1
     1  C   -0.178259
     2  C   -0.038153
     3  C   -0.043135
     4  C   -0.170055
     5  H    0.080925
     6  H    0.075940
     7  H    0.070331
     8  H    0.057030
     9  H    0.064293
    10  H    0.081083
 Sum of Mulliken charges =   0.00000

 Dipole moment (field-independent basis, Debye):
    X=              0.0685    Y=              0.1181    Z=              0.0567  Tot=              0.1478
 Quadrupole moment (field-independent basis, Debye-Ang):
   XX=            -24.0948   YY=            -23.1449   ZZ=            -29.3017
   XY=              0.3615   XZ=             -0.7232   YZ=              0.1635

 1\1\GINC-NODE34\SP\RB2PLYPD3-FC\def2QZVP\C4H6\BOITTIER\26-Aug-2020\0\\
 #p B2PLYPD3/Def2QZVP\\butadiene\\0,1\C,0,-3.856591,0.224292,-0.011325\
 C,0,-2.737422,-0.505284,0.038411\C,0,-1.360149,0.089314,0.061811\C,0,-
 0.257353,-0.671636,0.022064\H,0,-4.869614,-0.275076,0.122901\H,0,-3.85
 5465,1.300575,-0.206042\H,0,-2.65256,-1.542721,0.345445\H,0,-1.283617,
 1.19112,0.139399\H,0,-0.283398,-1.78972,-0.216016\H,0,0.663034,-0.1272
 02,-0.104745\\Version=ES64L-G09RevD.01\State=1-A\HF=-155.6852617\MP2=-
 155.91251\RMSD=3.423e-09\PG=C01 [X(C4H6)]\\@

 Normal termination of Gaussian 09 at Wed Aug 26 11:29:16 2020.
