 Gaussian 09, Revision D.01,
 Gaussian 09:  ES64L-G09RevD.01 24-Apr-2013

 --------------------
 #p B2PLYPD3/Def2QZVP
 --------------------

 ---------
 butadiene
 ---------
 Symbolic Z-matrix:
 Charge =  0 Multiplicity = 1

                         Standard orientation:
 ---------------------------------------------------------------------
 Center     Atomic      Atomic             Coordinates (Angstroms)
 Number     Number       Type             X           Y           Z
 ---------------------------------------------------------------------
      1          6           0        1.852950    0.094279    0.026192
      2          6           0        0.600798   -0.385836   -0.023812
      3          6           0       -0.611434    0.411092   -0.031483
      4          6           0       -1.844234   -0.117574    0.014136
      5          1           0        2.726611   -0.525213   -0.005498
      6          1           0        2.035844    1.162497    0.015126
      7          1           0        0.481135   -1.455695    0.022500
      8          1           0       -0.470890    1.492295   -0.012212
      9          1           0       -2.020772   -1.195962   -0.007339
     10          1           0       -2.740408    0.510313    0.077230
 ---------------------------------------------------------------------

 SCF Done:  E(RB2PLYPD3) =  -155.699964180     A.U. after   11 cycles
 E2(B2PLYPD3) =    -0.2260809956D+00 E(B2PLYPD3) =    -0.15592604517603D+03

 The electronic state is 1-A.
 Alpha  occ. eigenvalues --  -10.62856 -10.62513 -10.62053 -10.61493  -0.92860
 Alpha  occ. eigenvalues --   -0.84720  -0.70302  -0.64098  -0.54663  -0.53738
 Alpha  occ. eigenvalues --   -0.46912  -0.45310  -0.41144  -0.38058  -0.27582
 Alpha virt. eigenvalues --    0.01468   0.06987   0.07435   0.08051   0.09575
 Alpha virt. eigenvalues --    0.11620   0.12467   0.14645   0.15841   0.16219
 Alpha virt. eigenvalues --    0.18888   0.20262   0.21791   0.22849   0.23581

 Mulliken charges:
               1
     1  C   -0.175689
     2  C   -0.027098
     3  C   -0.035778
     4  C   -0.171646
     5  H    0.086902
     6  H    0.059581
     7  H    0.055016
     8  H    0.056762
     9  H    0.067815
    10  H    0.084134
 Sum of Mulliken charges =   0.00000

 Dipole moment (field-independent basis, Debye):
    X=             -0.0281    Y=             -0.0098    Z=              0.0392  Tot=              0.0492
 Quadrupole moment (field-independent basis, Debye-Ang):
   XX=            -23.2759   YY=            -23.2044   ZZ=            -29.3309
   XY=              0.1729   XZ=             -0.1997   YZ=              0.0393

 1\1\GINC-NODE37\SP\RB2PLYPD3-FC\def2QZVP\C4H6\BOITTIER\26-Aug-2020\0\\
 #p B2PLYPD3/Def2QZVP\\butadiene\\0,1\C,0,-3.858213,0.211246,-0.006625\
 C,0,-2.712996,-0.485312,0.058016\C,0,-1.376856,0.079623,0.04261\C,0,-0
 .259905,-0.66396,0.013097\H,0,-4.829136,-0.239203,0.043013\H,0,-3.8453
 27,1.294793,-0.027184\H,0,-2.788545,-1.560087,0.043368\H,0,-1.320123,1
 .167409,-0.008639\H,0,-0.280716,-1.755411,0.06648\H,0,0.734519,-0.2102
 35,-0.068171\\Version=ES64L-G09RevD.01\State=1-A\HF=-155.6999642\MP2=-
 155.9260452\RMSD=4.113e-09\PG=C01 [X(C4H6)]\\@

 Normal termination of Gaussian 09 at Wed Aug 26 14:31:41 2020.
