 Gaussian 09, Revision D.01,
 Gaussian 09:  ES64L-G09RevD.01 24-Apr-2013

 --------------------
 #p B2PLYPD3/Def2QZVP
 --------------------

 ---------
 butadiene
 ---------
 Symbolic Z-matrix:
 Charge =  0 Multiplicity = 1

                         Standard orientation:
 ---------------------------------------------------------------------
 Center     Atomic      Atomic             Coordinates (Angstroms)
 Number     Number       Type             X           Y           Z
 ---------------------------------------------------------------------
      1          6           0       -1.834921   -0.142044    0.023323
      2          6           0       -0.586467    0.427559   -0.045466
      3          6           0        0.614941   -0.376476   -0.112671
      4          6           0        1.823997    0.087115    0.061897
      5          1           0       -2.799942    0.433529    0.298858
      6          1           0       -1.950469   -1.164488    0.105976
      7          1           0       -0.522204    1.557379   -0.164222
      8          1           0        0.504968   -1.521480   -0.124212
      9          1           0        1.881875    1.220005    0.041480
     10          1           0        2.780469   -0.501868    0.279630
 ---------------------------------------------------------------------

 SCF Done:  E(RB2PLYPD3) =  -155.674997976     A.U. after   12 cycles
 E2(B2PLYPD3) =    -0.2281800102D+00 E(B2PLYPD3) =    -0.15590317798640D+03

 The electronic state is 1-A.
 Alpha  occ. eigenvalues --  -10.64130 -10.62998 -10.62414 -10.62324  -0.93092
 Alpha  occ. eigenvalues --   -0.84533  -0.69416  -0.63009  -0.54232  -0.53003
 Alpha  occ. eigenvalues --   -0.46294  -0.44052  -0.40991  -0.37894  -0.27596
 Alpha virt. eigenvalues --    0.01386   0.06911   0.06987   0.07588   0.09180
 Alpha virt. eigenvalues --    0.11418   0.12607   0.13980   0.15490   0.16371
 Alpha virt. eigenvalues --    0.18569   0.19825   0.21287   0.23093   0.23325

 Mulliken charges:
               1
     1  C   -0.169305
     2  C   -0.039611
     3  C   -0.020558
     4  C   -0.158498
     5  H    0.072013
     6  H    0.069633
     7  H    0.059486
     8  H    0.045290
     9  H    0.049874
    10  H    0.091678
 Sum of Mulliken charges =   0.00000

 Dipole moment (field-independent basis, Debye):
    X=              0.0831    Y=             -0.0687    Z=              0.2917  Tot=              0.3110
 Quadrupole moment (field-independent basis, Debye-Ang):
   XX=            -23.6769   YY=            -23.4500   ZZ=            -29.3463
   XY=             -0.1164   XZ=             -0.1199   YZ=             -0.2299

 1\1\GINC-NODE14\SP\RB2PLYPD3-FC\def2QZVP\C4H6\BOITTIER\26-Aug-2020\0\\
 #p B2PLYPD3/Def2QZVP\\butadiene\\0,1\C,0,-3.836859,0.240695,-0.019856\
 C,0,-2.705724,-0.532654,0.081535\C,0,-1.382788,0.053197,0.113017\C,0,-
 0.27332,-0.621088,-0.034048\H,0,-4.88845,-0.171738,-0.269909\H,0,-3.77
 3824,1.262325,-0.15355\H,0,-2.837698,-1.64922,0.256433\H,0,-1.292532,1
 .199071,0.067339\H,0,-0.412618,-1.744432,0.042762\H,0,0.76965,-0.21839
 ,-0.277349\\Version=ES64L-G09RevD.01\State=1-A\HF=-155.674998\MP2=-155
 .903178\RMSD=4.111e-09\PG=C01 [X(C4H6)]\\@

 Normal termination of Gaussian 09 at Wed Aug 26 13:32:24 2020.
