 Gaussian 09, Revision D.01,
 Gaussian 09:  ES64L-G09RevD.01 24-Apr-2013

 --------------------
 #p B2PLYPD3/Def2QZVP
 --------------------

 ---------
 butadiene
 ---------
 Symbolic Z-matrix:
 Charge =  0 Multiplicity = 1

                         Standard orientation:
 ---------------------------------------------------------------------
 Center     Atomic      Atomic             Coordinates (Angstroms)
 Number     Number       Type             X           Y           Z
 ---------------------------------------------------------------------
      1          6           0       -1.805363   -0.121520   -0.009308
      2          6           0       -0.601057    0.415814    0.008372
      3          6           0        0.588082   -0.394565    0.031450
      4          6           0        1.825638    0.101948   -0.029331
      5          1           0       -2.678664    0.510314    0.020374
      6          1           0       -1.992509   -1.187891   -0.055595
      7          1           0       -0.549030    1.519313    0.027331
      8          1           0        0.411656   -1.482689   -0.027278
      9          1           0        2.028369    1.162438   -0.046497
     10          1           0        2.736377   -0.531553    0.074564
 ---------------------------------------------------------------------

 SCF Done:  E(RB2PLYPD3) =  -155.697420552     A.U. after   11 cycles
 E2(B2PLYPD3) =    -0.2258158215D+00 E(B2PLYPD3) =    -0.15592323637352D+03

 The electronic state is 1-A.
 Alpha  occ. eigenvalues --  -10.62680 -10.62303 -10.61737 -10.61134  -0.93372
 Alpha  occ. eigenvalues --   -0.84942  -0.69904  -0.63853  -0.54621  -0.53868
 Alpha  occ. eigenvalues --   -0.46348  -0.45146  -0.41126  -0.38378  -0.27696
 Alpha virt. eigenvalues --    0.01878   0.07029   0.07276   0.07943   0.09578
 Alpha virt. eigenvalues --    0.11681   0.12432   0.14770   0.15645   0.16317
 Alpha virt. eigenvalues --    0.18735   0.20113   0.21958   0.22766   0.23749

 Mulliken charges:
               1
     1  C   -0.173831
     2  C   -0.021919
     3  C   -0.034141
     4  C   -0.170635
     5  H    0.079751
     6  H    0.064114
     7  H    0.054075
     8  H    0.058153
     9  H    0.065724
    10  H    0.078710
 Sum of Mulliken charges =   0.00000

 Dipole moment (field-independent basis, Debye):
    X=             -0.0732    Y=              0.0299    Z=              0.0203  Tot=              0.0816
 Quadrupole moment (field-independent basis, Debye-Ang):
   XX=            -23.6005   YY=            -23.0645   ZZ=            -29.2317
   XY=              0.2596   XZ=              0.1448   YZ=              0.0568

 1\1\GINC-NODE23\SP\RB2PLYPD3-FC\def2QZVP\C4H6\BOITTIER\26-Aug-2020\0\\
 #p B2PLYPD3/Def2QZVP\\butadiene\\0,1\C,0,-3.805784,0.233669,0.030332\C
 ,0,-2.719528,-0.514275,0.025552\C,0,-1.402798,0.065247,-0.015359\C,0,-
 0.276131,-0.646858,0.057389\H,0,-4.779638,-0.229051,0.014596\H,0,-3.79
 5454,1.317057,0.052196\H,0,-2.869379,-1.608935,0.031784\H,0,-1.377921,
 1.168346,0.018452\H,0,-0.269835,-1.725874,0.098836\H,0,0.734355,-0.192
 325,-0.060435\\Version=ES64L-G09RevD.01\State=1-A\HF=-155.6974206\MP2=
 -155.9232364\RMSD=4.441e-09\PG=C01 [X(C4H6)]\\@

 Normal termination of Gaussian 09 at Wed Aug 26 10:03:11 2020.
