 Gaussian 09, Revision D.01,
 Gaussian 09:  ES64L-G09RevD.01 24-Apr-2013

 --------------------
 #p B2PLYPD3/Def2QZVP
 --------------------

 ---------
 butadiene
 ---------
 Symbolic Z-matrix:
 Charge =  0 Multiplicity = 1

                         Standard orientation:
 ---------------------------------------------------------------------
 Center     Atomic      Atomic             Coordinates (Angstroms)
 Number     Number       Type             X           Y           Z
 ---------------------------------------------------------------------
      1          6           0       -1.820723   -0.139747    0.008578
      2          6           0       -0.601674    0.446770   -0.020188
      3          6           0        0.586467   -0.381405   -0.041022
      4          6           0        1.845250    0.081478    0.026641
      5          1           0       -2.675015    0.533609    0.109002
      6          1           0       -2.013038   -1.219984    0.077966
      7          1           0       -0.466558    1.498219   -0.089436
      8          1           0        0.422302   -1.425540   -0.070913
      9          1           0        2.026545    1.146465    0.057307
     10          1           0        2.649849   -0.575350    0.072015
 ---------------------------------------------------------------------

 SCF Done:  E(RB2PLYPD3) =  -155.696048460     A.U. after   11 cycles
 E2(B2PLYPD3) =    -0.2260621366D+00 E(B2PLYPD3) =    -0.15592211059687D+03

 The electronic state is 1-A.
 Alpha  occ. eigenvalues --  -10.62611 -10.62120 -10.61981 -10.60893  -0.93021
 Alpha  occ. eigenvalues --   -0.84596  -0.70307  -0.64708  -0.54619  -0.53914
 Alpha  occ. eigenvalues --   -0.47233  -0.45304  -0.41655  -0.37896  -0.27306
 Alpha virt. eigenvalues --    0.01554   0.07029   0.07424   0.08188   0.09331
 Alpha virt. eigenvalues --    0.11776   0.12343   0.14898   0.15739   0.16131
 Alpha virt. eigenvalues --    0.18653   0.20419   0.21696   0.23089   0.23904

 Mulliken charges:
               1
     1  C   -0.174269
     2  C   -0.043994
     3  C   -0.023339
     4  C   -0.186942
     5  H    0.076748
     6  H    0.074964
     7  H    0.067167
     8  H    0.057297
     9  H    0.063144
    10  H    0.089224
 Sum of Mulliken charges =   0.00000

 Dipole moment (field-independent basis, Debye):
    X=             -0.0493    Y=             -0.0102    Z=              0.1039  Tot=              0.1154
 Quadrupole moment (field-independent basis, Debye-Ang):
   XX=            -23.9465   YY=            -22.7993   ZZ=            -29.2718
   XY=              0.2732   XZ=             -0.1255   YZ=             -0.0592

 1\1\GINC-NODE17\SP\RB2PLYPD3-FC\def2QZVP\C4H6\BOITTIER\26-Aug-2020\0\\
 #p B2PLYPD3/Def2QZVP\\butadiene\\0,1\C,0,-3.815867,0.260142,0.003032\C
 ,0,-2.726687,-0.540917,0.056904\C,0,-1.405459,0.052638,0.050978\C,0,-0
 .25467,-0.637912,0.004081\H,0,-4.780628,-0.246234,-0.075243\H,0,-3.804
 705,1.354037,-0.106424\H,0,-2.788714,-1.595936,0.164995\H,0,-1.372952,
 1.109485,0.04214\H,0,-0.274215,-1.718442,0.01296\H,0,0.657635,-0.14387
 1,-0.062888\\Version=ES64L-G09RevD.01\State=1-A\HF=-155.6960485\MP2=-1
 55.9221106\RMSD=7.098e-09\PG=C01 [X(C4H6)]\\@

 Normal termination of Gaussian 09 at Wed Aug 26 09:21:51 2020.
