 Gaussian 09, Revision D.01,
 Gaussian 09:  ES64L-G09RevD.01 24-Apr-2013

 --------------------
 #p B2PLYPD3/Def2QZVP
 --------------------

 ---------
 butadiene
 ---------
 Symbolic Z-matrix:
 Charge =  0 Multiplicity = 1

                         Standard orientation:
 ---------------------------------------------------------------------
 Center     Atomic      Atomic             Coordinates (Angstroms)
 Number     Number       Type             X           Y           Z
 ---------------------------------------------------------------------
      1          6           0        1.838887   -0.099148   -0.021069
      2          6           0        0.604328    0.383314    0.024724
      3          6           0       -0.601853   -0.417474    0.010694
      4          6           0       -1.839358    0.120614   -0.009542
      5          1           0        2.692741    0.559582   -0.038223
      6          1           0        2.040332   -1.161324    0.040789
      7          1           0        0.464457    1.466710    0.021702
      8          1           0       -0.462579   -1.476636   -0.017987
      9          1           0       -1.988913    1.200127   -0.025304
     10          1           0       -2.758060   -0.512299   -0.009825
 ---------------------------------------------------------------------

 SCF Done:  E(RB2PLYPD3) =  -155.699640604     A.U. after   11 cycles
 E2(B2PLYPD3) =    -0.2259802799D+00 E(B2PLYPD3) =    -0.15592562088442D+03

 The electronic state is 1-A.
 Alpha  occ. eigenvalues --  -10.62613 -10.62362 -10.62245 -10.61311  -0.93042
 Alpha  occ. eigenvalues --   -0.84733  -0.70066  -0.64181  -0.54393  -0.53859
 Alpha  occ. eigenvalues --   -0.46705  -0.45457  -0.41121  -0.38167  -0.27605
 Alpha virt. eigenvalues --    0.01614   0.06966   0.07417   0.08026   0.09586
 Alpha virt. eigenvalues --    0.11682   0.12385   0.14700   0.15885   0.16064
 Alpha virt. eigenvalues --    0.18780   0.20508   0.21548   0.22770   0.23794

 Mulliken charges:
               1
     1  C   -0.177383
     2  C   -0.021728
     3  C   -0.038317
     4  C   -0.173445
     5  H    0.084569
     6  H    0.064826
     7  H    0.051081
     8  H    0.060051
     9  H    0.067634
    10  H    0.082712
 Sum of Mulliken charges =   0.00000

 Dipole moment (field-independent basis, Debye):
    X=              0.0024    Y=             -0.0044    Z=              0.0023  Tot=              0.0055
 Quadrupole moment (field-independent basis, Debye-Ang):
   XX=            -23.5050   YY=            -23.1074   ZZ=            -29.3162
   XY=             -0.1863   XZ=              0.0682   YZ=             -0.0630

 1\1\GINC-NODE08\SP\RB2PLYPD3-FC\def2QZVP\C4H6\BOITTIER\26-Aug-2020\0\\
 #p B2PLYPD3/Def2QZVP\\butadiene\\0,1\C,0,-3.842928,0.213521,-0.001263\
 C,0,-2.715875,-0.483073,0.057988\C,0,-1.384778,0.085634,0.025089\C,0,-
 0.265123,-0.667832,0.019736\H,0,-4.801923,-0.28005,-0.002738\H,0,-3.84
 8663,1.295822,0.033611\H,0,-2.774331,-1.573627,0.0824\H,0,-1.330231,1.
 151462,-0.030405\H,0,-0.313396,-1.756638,0.031324\H,0,0.752918,-0.2118
 13,0.004499\\Version=ES64L-G09RevD.01\State=1-A\HF=-155.6996406\MP2=-1
 55.9256209\RMSD=6.134e-09\PG=C01 [X(C4H6)]\\@

 Normal termination of Gaussian 09 at Wed Aug 26 21:54:58 2020.
