 Gaussian 09, Revision D.01,
 Gaussian 09:  ES64L-G09RevD.01 24-Apr-2013

 --------------------
 #p B2PLYPD3/Def2QZVP
 --------------------

 ---------
 butadiene
 ---------
 Symbolic Z-matrix:
 Charge =  0 Multiplicity = 1

                         Standard orientation:
 ---------------------------------------------------------------------
 Center     Atomic      Atomic             Coordinates (Angstroms)
 Number     Number       Type             X           Y           Z
 ---------------------------------------------------------------------
      1          6           0       -1.836909   -0.116485    0.026578
      2          6           0       -0.598356    0.417846   -0.033426
      3          6           0        0.603426   -0.394790   -0.014488
      4          6           0        1.842630    0.095643    0.020521
      5          1           0       -2.734523    0.509333   -0.014895
      6          1           0       -1.961263   -1.199909    0.054931
      7          1           0       -0.472918    1.497947   -0.026302
      8          1           0        0.398755   -1.472755   -0.053892
      9          1           0        1.995213    1.180556    0.066481
     10          1           0        2.709994   -0.528455   -0.021436
 ---------------------------------------------------------------------

 SCF Done:  E(RB2PLYPD3) =  -155.699588049     A.U. after   11 cycles
 E2(B2PLYPD3) =    -0.2262909118D+00 E(B2PLYPD3) =    -0.15592587896046D+03

 The electronic state is 1-A.
 Alpha  occ. eigenvalues --  -10.62730 -10.62622 -10.62008 -10.61552  -0.92940
 Alpha  occ. eigenvalues --   -0.84637  -0.70085  -0.63930  -0.54594  -0.53566
 Alpha  occ. eigenvalues --   -0.46671  -0.45529  -0.41173  -0.38063  -0.27552
 Alpha virt. eigenvalues --    0.01567   0.07028   0.07294   0.08080   0.09503
 Alpha virt. eigenvalues --    0.11690   0.12430   0.14623   0.15799   0.16079
 Alpha virt. eigenvalues --    0.18762   0.20436   0.21509   0.22917   0.23689

 Mulliken charges:
               1
     1  C   -0.177238
     2  C   -0.029943
     3  C   -0.025289
     4  C   -0.177401
     5  H    0.086735
     6  H    0.064309
     7  H    0.054455
     8  H    0.050285
     9  H    0.063780
    10  H    0.090307
 Sum of Mulliken charges =   0.00000

 Dipole moment (field-independent basis, Debye):
    X=             -0.0090    Y=              0.0093    Z=             -0.0283  Tot=              0.0311
 Quadrupole moment (field-independent basis, Debye-Ang):
   XX=            -23.5238   YY=            -23.1375   ZZ=            -29.3594
   XY=              0.1432   XZ=             -0.0200   YZ=              0.0584

 1\1\GINC-NODE15\SP\RB2PLYPD3-FC\def2QZVP\C4H6\BOITTIER\26-Aug-2020\0\\
 #p B2PLYPD3/Def2QZVP\\butadiene\\0,1\C,0,-3.83818,0.234071,-0.007824\C
 ,0,-2.717688,-0.515503,0.068081\C,0,-1.387909,0.063536,0.03045\C,0,-0.
 259048,-0.645437,0.010248\H,0,-4.834755,-0.216253,0.048086\H,0,-3.7629
 25,1.320917,-0.064183\H,0,-2.791374,-1.600188,0.088892\H,0,-1.392421,1
 .161398,0.041822\H,0,-0.307036,-1.740795,-0.007592\H,0,0.707715,-0.189
 155,0.037731\\Version=ES64L-G09RevD.01\State=1-A\HF=-155.699588\MP2=-1
 55.925879\RMSD=6.015e-09\PG=C01 [X(C4H6)]\\@

 Normal termination of Gaussian 09 at Wed Aug 26 21:41:11 2020.
