 Gaussian 09, Revision D.01,
 Gaussian 09:  ES64L-G09RevD.01 24-Apr-2013

 --------------------
 #p B2PLYPD3/Def2QZVP
 --------------------

 ---------
 butadiene
 ---------
 Symbolic Z-matrix:
 Charge =  0 Multiplicity = 1

                         Standard orientation:
 ---------------------------------------------------------------------
 Center     Atomic      Atomic             Coordinates (Angstroms)
 Number     Number       Type             X           Y           Z
 ---------------------------------------------------------------------
      1          6           0        1.821560    0.084266    0.042375
      2          6           0        0.574889   -0.375023   -0.034778
      3          6           0       -0.598919    0.429364   -0.052019
      4          6           0       -1.815239   -0.119187    0.027067
      5          1           0        2.708165   -0.590535    0.027969
      6          1           0        2.084335    1.136525   -0.005595
      7          1           0        0.427735   -1.436885   -0.036718
      8          1           0       -0.387240    1.492713    0.009628
      9          1           0       -1.971168   -1.197096    0.025468
     10          1           0       -2.755570    0.478757    0.083377
 ---------------------------------------------------------------------

 SCF Done:  E(RB2PLYPD3) =  -155.696258468     A.U. after   11 cycles
 E2(B2PLYPD3) =    -0.2261693388D+00 E(B2PLYPD3) =    -0.15592242780685D+03

 The electronic state is 1-A.
 Alpha  occ. eigenvalues --  -10.62507 -10.62198 -10.61966 -10.61648  -0.93626
 Alpha  occ. eigenvalues --   -0.84578  -0.70219  -0.64362  -0.54668  -0.53576
 Alpha  occ. eigenvalues --   -0.46830  -0.45021  -0.40885  -0.38614  -0.27521
 Alpha virt. eigenvalues --    0.01552   0.06962   0.07339   0.08049   0.09622
 Alpha virt. eigenvalues --    0.11699   0.12445   0.14794   0.15719   0.16133
 Alpha virt. eigenvalues --    0.18735   0.20278   0.21936   0.22587   0.23774

 Mulliken charges:
               1
     1  C   -0.178126
     2  C   -0.017026
     3  C   -0.034027
     4  C   -0.168624
     5  H    0.076485
     6  H    0.060276
     7  H    0.054278
     8  H    0.059833
     9  H    0.067380
    10  H    0.079552
 Sum of Mulliken charges =   0.00000

 Dipole moment (field-independent basis, Debye):
    X=             -0.0582    Y=             -0.0141    Z=              0.0241  Tot=              0.0645
 Quadrupole moment (field-independent basis, Debye-Ang):
   XX=            -23.4772   YY=            -23.2390   ZZ=            -29.2565
   XY=              0.4680   XZ=             -0.2808   YZ=              0.0508

 1\1\GINC-NODE25\SP\RB2PLYPD3-FC\def2QZVP\C4H6\BOITTIER\26-Aug-2020\0\\
 #p B2PLYPD3/Def2QZVP\\butadiene\\0,1\C,0,-3.828086,0.208139,-0.021627\
 C,0,-2.689793,-0.475376,0.068832\C,0,-1.385428,0.093613,0.062192\C,0,-
 0.294642,-0.676324,-0.000885\H,0,-4.825808,-0.286835,0.012785\H,0,-3.8
 87724,1.292,-0.004635\H,0,-2.745229,-1.545439,0.102028\H,0,-1.393421,1
 .175567,-0.030719\H,0,-0.344485,-1.763803,0.032441\H,0,0.741131,-0.268
 131,-0.074927\\Version=ES64L-G09RevD.01\State=1-A\HF=-155.6962585\MP2=
 -155.9224278\RMSD=5.847e-09\PG=C01 [X(C4H6)]\\@

 Normal termination of Gaussian 09 at Wed Aug 26 09:55:20 2020.
