 Gaussian 09, Revision D.01,
 Gaussian 09:  ES64L-G09RevD.01 24-Apr-2013

 --------------------
 #p B2PLYPD3/Def2QZVP
 --------------------

 ---------
 butadiene
 ---------
 Symbolic Z-matrix:
 Charge =  0 Multiplicity = 1

                         Standard orientation:
 ---------------------------------------------------------------------
 Center     Atomic      Atomic             Coordinates (Angstroms)
 Number     Number       Type             X           Y           Z
 ---------------------------------------------------------------------
      1          6           0       -1.828080   -0.118834    0.005821
      2          6           0       -0.603468    0.409708   -0.019123
      3          6           0        0.596470   -0.380536   -0.018138
      4          6           0        1.827573    0.090193    0.022158
      5          1           0       -2.707960    0.517053    0.054748
      6          1           0       -1.981773   -1.205442    0.000222
      7          1           0       -0.462512    1.488637   -0.009522
      8          1           0        0.473452   -1.444876    0.027343
      9          1           0        2.019250    1.164539    0.008565
     10          1           0        2.704571   -0.523098   -0.025665
 ---------------------------------------------------------------------

 SCF Done:  E(RB2PLYPD3) =  -155.700379695     A.U. after   11 cycles
 E2(B2PLYPD3) =    -0.2253700600D+00 E(B2PLYPD3) =    -0.15592574975480D+03

 The electronic state is 1-A.
 Alpha  occ. eigenvalues --  -10.62434 -10.61895 -10.61776 -10.61141  -0.93427
 Alpha  occ. eigenvalues --   -0.85088  -0.70245  -0.64120  -0.54894  -0.53922
 Alpha  occ. eigenvalues --   -0.46942  -0.45239  -0.41044  -0.38462  -0.27766
 Alpha virt. eigenvalues --    0.01800   0.07023   0.07399   0.08076   0.09806
 Alpha virt. eigenvalues --    0.11702   0.12465   0.14738   0.15772   0.16254
 Alpha virt. eigenvalues --    0.18772   0.20207   0.21898   0.22769   0.23832

 Mulliken charges:
               1
     1  C   -0.174621
     2  C   -0.033163
     3  C   -0.020816
     4  C   -0.172861
     5  H    0.085943
     6  H    0.067233
     7  H    0.054451
     8  H    0.052873
     9  H    0.056086
    10  H    0.084875
 Sum of Mulliken charges =   0.00000

 Dipole moment (field-independent basis, Debye):
    X=             -0.0068    Y=             -0.0054    Z=              0.0216  Tot=              0.0232
 Quadrupole moment (field-independent basis, Debye-Ang):
   XX=            -23.4194   YY=            -23.1776   ZZ=            -29.1738
   XY=              0.1105   XZ=             -0.2187   YZ=              0.0162

 1\1\GINC-NODE29\SP\RB2PLYPD3-FC\def2QZVP\C4H6\BOITTIER\26-Aug-2020\0\\
 #p B2PLYPD3/Def2QZVP\\butadiene\\0,1\C,0,-3.826925,0.234377,0.007756\C
 ,0,-2.719083,-0.507423,0.053297\C,0,-1.395236,0.050538,0.032195\C,0,-0
 .270617,-0.637646,0.010769\H,0,-4.808053,-0.231748,-0.024658\H,0,-3.78
 002,1.330443,-0.020675\H,0,-2.777122,-1.593746,0.077445\H,0,-1.322337,
 1.11755,-0.046496\H,0,-0.277899,-1.727988,0.058139\H,0,0.703557,-0.193
 237,0.042766\\Version=ES64L-G09RevD.01\State=1-A\HF=-155.7003797\MP2=-
 155.9257498\RMSD=5.328e-09\PG=C01 [X(C4H6)]\\@

 Normal termination of Gaussian 09 at Wed Aug 26 09:13:23 2020.
