 Gaussian 09, Revision D.01,
 Gaussian 09:  ES64L-G09RevD.01 24-Apr-2013

 --------------------
 #p B2PLYPD3/Def2QZVP
 --------------------

 ---------
 butadiene
 ---------
 Symbolic Z-matrix:
 Charge =  0 Multiplicity = 1

                         Standard orientation:
 ---------------------------------------------------------------------
 Center     Atomic      Atomic             Coordinates (Angstroms)
 Number     Number       Type             X           Y           Z
 ---------------------------------------------------------------------
      1          6           0        1.833325   -0.101998    0.009496
      2          6           0        0.598046    0.393796   -0.007276
      3          6           0       -0.607214   -0.409268   -0.009438
      4          6           0       -1.834073    0.112547    0.006300
      5          1           0        2.690862    0.526471    0.012000
      6          1           0        1.992306   -1.187580    0.034138
      7          1           0        0.463128    1.469687   -0.078963
      8          1           0       -0.448448   -1.465266   -0.029402
      9          1           0       -1.928752    1.187647    0.080950
     10          1           0       -2.709595   -0.501425   -0.013214
 ---------------------------------------------------------------------

 SCF Done:  E(RB2PLYPD3) =  -155.700838029     A.U. after   11 cycles
 E2(B2PLYPD3) =    -0.2254271527D+00 E(B2PLYPD3) =    -0.15592626518196D+03

 The electronic state is 1-A.
 Alpha  occ. eigenvalues --  -10.62307 -10.62190 -10.61358 -10.61354  -0.93219
 Alpha  occ. eigenvalues --   -0.85037  -0.70250  -0.64216  -0.54888  -0.53949
 Alpha  occ. eigenvalues --   -0.46866  -0.45671  -0.41286  -0.38194  -0.27695
 Alpha virt. eigenvalues --    0.01809   0.07065   0.07407   0.08147   0.09634
 Alpha virt. eigenvalues --    0.11739   0.12498   0.14692   0.15782   0.16172
 Alpha virt. eigenvalues --    0.18711   0.20411   0.21620   0.22959   0.24037

 Mulliken charges:
               1
     1  C   -0.180235
     2  C   -0.024156
     3  C   -0.030128
     4  C   -0.177658
     5  H    0.088976
     6  H    0.061583
     7  H    0.050732
     8  H    0.054902
     9  H    0.065943
    10  H    0.090041
 Sum of Mulliken charges =   0.00000

 Dipole moment (field-independent basis, Debye):
    X=             -0.0012    Y=             -0.0111    Z=             -0.0029  Tot=              0.0115
 Quadrupole moment (field-independent basis, Debye-Ang):
   XX=            -23.5260   YY=            -23.1171   ZZ=            -29.1972
   XY=             -0.0113   XZ=             -0.0402   YZ=              0.0177

 1\1\GINC-NODE06\SP\RB2PLYPD3-FC\def2QZVP\C4H6\BOITTIER\26-Aug-2020\0\\
 #p B2PLYPD3/Def2QZVP\\butadiene\\0,1\C,0,-3.837911,0.217155,0.027087\C
 ,0,-2.712869,-0.494384,0.027502\C,0,-1.382146,0.076765,0.004442\C,0,-0
 .269993,-0.657881,0.038097\H,0,-4.795048,-0.245311,0.04613\H,0,-3.7976
 41,1.313828,0.019601\H,0,-2.775199,-1.578547,-0.012373\H,0,-1.347163,1
 .143016,-0.046764\H,0,-0.371289,-1.72971,0.144386\H,0,0.702153,-0.2134
 18,0.002514\\Version=ES64L-G09RevD.01\State=1-A\HF=-155.700838\MP2=-15
 5.9262652\RMSD=4.366e-09\PG=C01 [X(C4H6)]\\@

 Normal termination of Gaussian 09 at Wed Aug 26 16:22:18 2020.
