 Gaussian 09, Revision D.01,
 Gaussian 09:  ES64L-G09RevD.01 24-Apr-2013

 --------------------
 #p B2PLYPD3/Def2QZVP
 --------------------

 ---------
 butadiene
 ---------
 Symbolic Z-matrix:
 Charge =  0 Multiplicity = 1

                         Standard orientation:
 ---------------------------------------------------------------------
 Center     Atomic      Atomic             Coordinates (Angstroms)
 Number     Number       Type             X           Y           Z
 ---------------------------------------------------------------------
      1          6           0        1.818846   -0.122671    0.096299
      2          6           0        0.573951    0.447734   -0.117938
      3          6           0       -0.593924   -0.371772   -0.059985
      4          6           0       -1.821798    0.063665    0.053434
      5          1           0        2.701744    0.488809   -0.031242
      6          1           0        1.978562   -1.251076    0.144537
      7          1           0        0.332063    1.531489   -0.027784
      8          1           0       -0.331792   -1.417056   -0.174191
      9          1           0       -1.932192    1.134138    0.218857
     10          1           0       -2.610838   -0.588039    0.038964
 ---------------------------------------------------------------------

 SCF Done:  E(RB2PLYPD3) =  -155.681712896     A.U. after   12 cycles
 E2(B2PLYPD3) =    -0.2273859546D+00 E(B2PLYPD3) =    -0.15590909885015D+03

 The electronic state is 1-A.
 Alpha  occ. eigenvalues --  -10.63386 -10.63124 -10.61467 -10.60448  -0.93552
 Alpha  occ. eigenvalues --   -0.84445  -0.70638  -0.63714  -0.55286  -0.52906
 Alpha  occ. eigenvalues --   -0.46916  -0.45453  -0.41045  -0.38074  -0.27345
 Alpha virt. eigenvalues --    0.00946   0.07014   0.07151   0.08223   0.09457
 Alpha virt. eigenvalues --    0.11824   0.12330   0.14777   0.15347   0.16277
 Alpha virt. eigenvalues --    0.18719   0.19390   0.21890   0.22418   0.24028

 Mulliken charges:
               1
     1  C   -0.170756
     2  C   -0.046074
     3  C    0.004993
     4  C   -0.192861
     5  H    0.084611
     6  H    0.064164
     7  H    0.055158
     8  H    0.044758
     9  H    0.060321
    10  H    0.095687
 Sum of Mulliken charges =   0.00000

 Dipole moment (field-independent basis, Debye):
    X=              0.0184    Y=             -0.0517    Z=              0.0388  Tot=              0.0672
 Quadrupole moment (field-independent basis, Debye-Ang):
   XX=            -23.8853   YY=            -23.2040   ZZ=            -29.2480
   XY=             -0.3581   XZ=             -0.2488   YZ=              0.1927

 1\1\GINC-NODE16\SP\RB2PLYPD3-FC\def2QZVP\C4H6\BOITTIER\26-Aug-2020\0\\
 #p B2PLYPD3/Def2QZVP\\butadiene\\0,1\C,0,-3.814273,0.263006,0.110817\C
 ,0,-2.70421,-0.54518,-0.077914\C,0,-1.399387,0.033699,-0.043061\C,0,-0
 .279088,-0.627455,0.090917\H,0,-4.799329,-0.169637,0.000511\H,0,-3.751
 887,1.40194,0.119258\H,0,-2.677008,-1.651462,0.05078\H,0,-1.453967,1.1
 05355,-0.194553\H,0,-0.378132,-1.692585,0.293779\H,0,0.621377,-0.14211
 4,0.057481\\Version=ES64L-G09RevD.01\State=1-A\HF=-155.6817129\MP2=-15
 5.9090989\RMSD=6.452e-09\PG=C01 [X(C4H6)]\\@

 Normal termination of Gaussian 09 at Wed Aug 26 11:44:28 2020.
