 Gaussian 09, Revision D.01,
 Gaussian 09:  ES64L-G09RevD.01 24-Apr-2013

 --------------------
 #p B2PLYPD3/Def2QZVP
 --------------------

 ---------
 butadiene
 ---------
 Symbolic Z-matrix:
 Charge =  0 Multiplicity = 1

                         Standard orientation:
 ---------------------------------------------------------------------
 Center     Atomic      Atomic             Coordinates (Angstroms)
 Number     Number       Type             X           Y           Z
 ---------------------------------------------------------------------
      1          6           0        1.811576   -0.130653    0.031540
      2          6           0        0.613419    0.437018   -0.027865
      3          6           0       -0.588298   -0.393302   -0.052169
      4          6           0       -1.834594    0.104872    0.005393
      5          1           0        2.703464    0.491724   -0.002437
      6          1           0        1.916559   -1.229679    0.119925
      7          1           0        0.490882    1.504189   -0.049679
      8          1           0       -0.422910   -1.428211   -0.065947
      9          1           0       -2.015593    1.122268    0.145726
     10          1           0       -2.685021   -0.567902    0.111017
 ---------------------------------------------------------------------

 SCF Done:  E(RB2PLYPD3) =  -155.697021962     A.U. after   11 cycles
 E2(B2PLYPD3) =    -0.2255722131D+00 E(B2PLYPD3) =    -0.15592259417519D+03

 The electronic state is 1-A.
 Alpha  occ. eigenvalues --  -10.62283 -10.62155 -10.61699 -10.61037  -0.93140
 Alpha  occ. eigenvalues --   -0.84849  -0.69892  -0.64801  -0.54554  -0.53882
 Alpha  occ. eigenvalues --   -0.46577  -0.46043  -0.41342  -0.38033  -0.27601
 Alpha virt. eigenvalues --    0.01890   0.07007   0.07443   0.08134   0.09301
 Alpha virt. eigenvalues --    0.11835   0.12458   0.14823   0.15898   0.16033
 Alpha virt. eigenvalues --    0.18671   0.20330   0.21594   0.23074   0.24009

 Mulliken charges:
               1
     1  C   -0.173863
     2  C   -0.035391
     3  C   -0.032594
     4  C   -0.177398
     5  H    0.083523
     6  H    0.066094
     7  H    0.061445
     8  H    0.062458
     9  H    0.068189
    10  H    0.077538
 Sum of Mulliken charges =   0.00000

 Dipole moment (field-independent basis, Debye):
    X=              0.0804    Y=              0.0211    Z=              0.1899  Tot=              0.2073
 Quadrupole moment (field-independent basis, Debye-Ang):
   XX=            -23.9585   YY=            -22.8884   ZZ=            -29.1856
   XY=             -0.1547   XZ=             -0.4485   YZ=             -0.0450

 1\1\GINC-NODE39\SP\RB2PLYPD3-FC\def2QZVP\C4H6\BOITTIER\26-Aug-2020\0\\
 #p B2PLYPD3/Def2QZVP\\butadiene\\0,1\C,0,-3.809442,0.24312,0.047911\C,
 0,-2.733493,-0.532829,0.007963\C,0,-1.401507,0.066016,-0.028695\C,0,-0
 .2658,-0.647559,0.046972\H,0,-4.799057,-0.208574,0.023257\H,0,-3.71424
 3,1.344796,0.110684\H,0,-2.805755,-1.604796,0.011114\H,0,-1.377176,1.1
 13167,-0.066927\H,0,-0.27177,-1.677351,0.21141\H,0,0.692052,-0.137148,
 0.141881\\Version=ES64L-G09RevD.01\State=1-A\HF=-155.697022\MP2=-155.9
 225942\RMSD=5.637e-09\PG=C01 [X(C4H6)]\\@

 Normal termination of Gaussian 09 at Wed Aug 26 08:40:42 2020.
