 Gaussian 09, Revision D.01,
 Gaussian 09:  ES64L-G09RevD.01 24-Apr-2013

 --------------------
 #p B2PLYPD3/Def2QZVP
 --------------------

 ---------
 butadiene
 ---------
 Symbolic Z-matrix:
 Charge =  0 Multiplicity = 1

                         Standard orientation:
 ---------------------------------------------------------------------
 Center     Atomic      Atomic             Coordinates (Angstroms)
 Number     Number       Type             X           Y           Z
 ---------------------------------------------------------------------
      1          6           0        1.831898   -0.129824   -0.003349
      2          6           0        0.601946    0.421013   -0.004363
      3          6           0       -0.613876   -0.382449   -0.041464
      4          6           0       -1.841433    0.088971    0.026071
      5          1           0        2.755038    0.450555    0.018116
      6          1           0        1.897350   -1.213221    0.170481
      7          1           0        0.551612    1.527090   -0.092543
      8          1           0       -0.412560   -1.397284   -0.048987
      9          1           0       -1.969232    1.193174    0.126992
     10          1           0       -2.693419   -0.546575   -0.035433
 ---------------------------------------------------------------------

 SCF Done:  E(RB2PLYPD3) =  -155.694404418     A.U. after   11 cycles
 E2(B2PLYPD3) =    -0.2259135838D+00 E(B2PLYPD3) =    -0.15592031800162D+03

 The electronic state is 1-A.
 Alpha  occ. eigenvalues --  -10.62903 -10.61912 -10.61808 -10.61447  -0.93172
 Alpha  occ. eigenvalues --   -0.84983  -0.69907  -0.64165  -0.54862  -0.53662
 Alpha  occ. eigenvalues --   -0.46882  -0.45086  -0.41172  -0.38129  -0.27801
 Alpha virt. eigenvalues --    0.01749   0.07052   0.07411   0.08039   0.09467
 Alpha virt. eigenvalues --    0.11701   0.12432   0.14522   0.15691   0.16340
 Alpha virt. eigenvalues --    0.18716   0.19842   0.21603   0.22974   0.23854

 Mulliken charges:
               1
     1  C   -0.176852
     2  C   -0.027160
     3  C   -0.033891
     4  C   -0.171673
     5  H    0.085550
     6  H    0.057618
     7  H    0.051219
     8  H    0.059907
     9  H    0.063738
    10  H    0.091545
 Sum of Mulliken charges =   0.00000

 Dipole moment (field-independent basis, Debye):
    X=              0.0034    Y=             -0.0239    Z=              0.0966  Tot=              0.0996
 Quadrupole moment (field-independent basis, Debye-Ang):
   XX=            -23.5382   YY=            -23.2337   ZZ=            -29.2155
   XY=              0.1989   XZ=              0.1908   YZ=             -0.0940

 1\1\GINC-NODE32\SP\RB2PLYPD3-FC\def2QZVP\C4H6\BOITTIER\26-Aug-2020\0\\
 #p B2PLYPD3/Def2QZVP\\butadiene\\0,1\C,0,-3.834592,0.23678,0.020841\C,
 0,-2.721641,-0.523127,0.030127\C,0,-1.382867,0.051477,-0.021517\C,0,-0
 .257997,-0.628618,0.05485\H,0,-4.845852,-0.170429,0.052805\H,0,-3.7066
 06,1.317603,0.174753\H,0,-2.868257,-1.622042,-0.037736\H,0,-1.401301,1
 .085619,-0.04769\H,0,-0.327456,-1.735989,0.176033\H,0,0.69288,-0.15524
 4,-0.01817\\Version=ES64L-G09RevD.01\State=1-A\HF=-155.6944044\MP2=-15
 5.920318\RMSD=6.147e-09\PG=C01 [X(C4H6)]\\@

 Normal termination of Gaussian 09 at Wed Aug 26 09:20:33 2020.
