 Gaussian 09, Revision D.01,
 Gaussian 09:  ES64L-G09RevD.01 24-Apr-2013

 --------------------
 #p B2PLYPD3/Def2QZVP
 --------------------

 ---------
 butadiene
 ---------
 Symbolic Z-matrix:
 Charge =  0 Multiplicity = 1

                         Standard orientation:
 ---------------------------------------------------------------------
 Center     Atomic      Atomic             Coordinates (Angstroms)
 Number     Number       Type             X           Y           Z
 ---------------------------------------------------------------------
      1          6           0       -1.812818   -0.075681    0.055053
      2          6           0       -0.560473    0.368919   -0.079086
      3          6           0        0.603453   -0.467329   -0.057251
      4          6           0        1.801498    0.133064    0.035848
      5          1           0       -2.549491    0.589445   -0.119979
      6          1           0       -2.171364   -1.100207    0.382162
      7          1           0       -0.464550    1.491532   -0.114634
      8          1           0        0.386720   -1.489221   -0.226888
      9          1           0        1.893068    1.210083    0.297489
     10          1           0        2.715661   -0.455474    0.054466
 ---------------------------------------------------------------------

 SCF Done:  E(RB2PLYPD3) =  -155.681277383     A.U. after   12 cycles
 E2(B2PLYPD3) =    -0.2266805291D+00 E(B2PLYPD3) =    -0.15590795791187D+03

 The electronic state is 1-A.
 Alpha  occ. eigenvalues --  -10.62450 -10.62355 -10.62115 -10.60791  -0.93378
 Alpha  occ. eigenvalues --   -0.84691  -0.70493  -0.63720  -0.54862  -0.53439
 Alpha  occ. eigenvalues --   -0.47190  -0.44785  -0.41418  -0.37764  -0.27195
 Alpha virt. eigenvalues --    0.01362   0.07047   0.07352   0.07956   0.09261
 Alpha virt. eigenvalues --    0.11535   0.12304   0.15194   0.15290   0.16485
 Alpha virt. eigenvalues --    0.18747   0.19434   0.21729   0.21906   0.24121

 Mulliken charges:
               1
     1  C   -0.191456
     2  C   -0.019456
     3  C   -0.049417
     4  C   -0.166003
     5  H    0.083491
     6  H    0.064421
     7  H    0.051547
     8  H    0.077466
     9  H    0.070455
    10  H    0.078952
 Sum of Mulliken charges =   0.00000

 Dipole moment (field-independent basis, Debye):
    X=              0.0203    Y=             -0.0107    Z=              0.1645  Tot=              0.1661
 Quadrupole moment (field-independent basis, Debye-Ang):
   XX=            -23.9726   YY=            -23.1180   ZZ=            -28.9963
   XY=              0.3341   XZ=              0.1615   YZ=              0.0312

 1\1\GINC-NODE03\SP\RB2PLYPD3-FC\def2QZVP\C4H6\BOITTIER\26-Aug-2020\0\\
 #p B2PLYPD3/Def2QZVP\\butadiene\\0,1\C,0,-3.821938,0.201952,-0.038178\
 C,0,-2.677697,-0.472001,0.105104\C,0,-1.375226,0.125474,0.071884\C,0,-
 0.314431,-0.694597,-0.009653\H,0,-4.67208,-0.306947,0.146203\H,0,-3.97
 8157,1.270822,-0.382158\H,0,-2.798436,-1.591499,0.158686\H,0,-1.392054
 ,1.172531,0.224863\H,0,-0.431135,-1.773257,-0.253954\H,0,0.695476,-0.2
 92346,-0.036125\\Version=ES64L-G09RevD.01\State=1-A\HF=-155.6812774\MP
 2=-155.9079579\RMSD=5.399e-09\PG=C01 [X(C4H6)]\\@

 Normal termination of Gaussian 09 at Wed Aug 26 14:18:55 2020.
