 Gaussian 09, Revision D.01,
 Gaussian 09:  ES64L-G09RevD.01 24-Apr-2013

 --------------------
 #p B2PLYPD3/Def2QZVP
 --------------------

 ---------
 butadiene
 ---------
 Symbolic Z-matrix:
 Charge =  0 Multiplicity = 1

                         Standard orientation:
 ---------------------------------------------------------------------
 Center     Atomic      Atomic             Coordinates (Angstroms)
 Number     Number       Type             X           Y           Z
 ---------------------------------------------------------------------
      1          6           0       -1.846569    0.080760   -0.015023
      2          6           0       -0.625609   -0.343103    0.010876
      3          6           0        0.610364    0.457264   -0.051928
      4          6           0        1.848543   -0.164300    0.019115
      5          1           0       -2.653125   -0.622109    0.121943
      6          1           0       -2.092485    1.152904    0.117758
      7          1           0       -0.582934   -1.447927   -0.126657
      8          1           0        0.568242    1.543921   -0.031314
      9          1           0        1.975376   -1.256078    0.038995
     10          1           0        2.864554    0.445566    0.101031
 ---------------------------------------------------------------------

 SCF Done:  E(RB2PLYPD3) =  -155.680728507     A.U. after   12 cycles
 E2(B2PLYPD3) =    -0.2274236618D+00 E(B2PLYPD3) =    -0.15590815216847D+03

 The electronic state is 1-A.
 Alpha  occ. eigenvalues --  -10.63997 -10.63828 -10.62394 -10.60884  -0.92699
 Alpha  occ. eigenvalues --   -0.84668  -0.69149  -0.63464  -0.54307  -0.53283
 Alpha  occ. eigenvalues --   -0.46475  -0.44072  -0.40670  -0.37945  -0.27863
 Alpha virt. eigenvalues --    0.01453   0.06834   0.07395   0.07596   0.09273
 Alpha virt. eigenvalues --    0.11422   0.12237   0.14318   0.15370   0.16563
 Alpha virt. eigenvalues --    0.18742   0.19440   0.21846   0.22172   0.24103

 Mulliken charges:
               1
     1  C   -0.160345
     2  C   -0.013954
     3  C   -0.060534
     4  C   -0.165002
     5  H    0.077063
     6  H    0.053905
     7  H    0.051534
     8  H    0.070332
     9  H    0.074487
    10  H    0.072513
 Sum of Mulliken charges =   0.00000

 Dipole moment (field-independent basis, Debye):
    X=              0.0539    Y=             -0.0354    Z=              0.1789  Tot=              0.1902
 Quadrupole moment (field-independent basis, Debye-Ang):
   XX=            -23.7104   YY=            -23.0983   ZZ=            -29.4566
   XY=              0.0466   XZ=             -0.1121   YZ=              0.1815

 1\1\GINC-NODE26\SP\RB2PLYPD3-FC\def2QZVP\C4H6\BOITTIER\26-Aug-2020\0\\
 #p B2PLYPD3/Def2QZVP\\butadiene\\0,1\C,0,-3.857176,0.177052,0.01137\C,
 0,-2.726423,-0.448482,0.045706\C,0,-1.372144,0.127831,-0.031465\C,0,-0
 .258049,-0.694575,0.051701\H,0,-4.771494,-0.375153,0.161062\H,0,-3.916
 101,1.277704,0.124029\H,0,-2.873346,-1.546718,-0.071184\H,0,-1.228099,
 1.205918,-0.031134\H,0,-0.31939,-1.791423,0.09199\H,0,0.847376,-0.2657
 12,0.12268\\Version=ES64L-G09RevD.01\State=1-A\HF=-155.6807285\MP2=-15
 5.9081522\RMSD=3.961e-09\PG=C01 [X(C4H6)]\\@

 Normal termination of Gaussian 09 at Wed Aug 26 12:20:19 2020.
