 Gaussian 09, Revision D.01,
 Gaussian 09:  ES64L-G09RevD.01 24-Apr-2013

 --------------------
 #p B2PLYPD3/Def2QZVP
 --------------------

 ---------
 butadiene
 ---------
 Symbolic Z-matrix:
 Charge =  0 Multiplicity = 1

                         Standard orientation:
 ---------------------------------------------------------------------
 Center     Atomic      Atomic             Coordinates (Angstroms)
 Number     Number       Type             X           Y           Z
 ---------------------------------------------------------------------
      1          6           0        1.818161   -0.113337   -0.062609
      2          6           0        0.597929    0.403264   -0.016931
      3          6           0       -0.608562   -0.400700    0.049211
      4          6           0       -1.829472    0.087829   -0.029869
      5          1           0        2.727923    0.434132    0.116565
      6          1           0        1.829466   -1.189089   -0.015930
      7          1           0        0.527952    1.552099    0.251333
      8          1           0       -0.338944   -1.406696    0.127155
      9          1           0       -1.874794    1.193840   -0.122527
     10          1           0       -2.739941   -0.446625    0.004593
 ---------------------------------------------------------------------

 SCF Done:  E(RB2PLYPD3) =  -155.683995654     A.U. after   11 cycles
 E2(B2PLYPD3) =    -0.2261583067D+00 E(B2PLYPD3) =    -0.15591015396027D+03

 The electronic state is 1-A.
 Alpha  occ. eigenvalues --  -10.63099 -10.62070 -10.61536 -10.61206  -0.93610
 Alpha  occ. eigenvalues --   -0.85353  -0.70284  -0.63487  -0.55599  -0.53381
 Alpha  occ. eigenvalues --   -0.47864  -0.44478  -0.40770  -0.37789  -0.28147
 Alpha virt. eigenvalues --    0.01809   0.07064   0.07258   0.07949   0.09454
 Alpha virt. eigenvalues --    0.11727   0.12762   0.14351   0.15358   0.16401
 Alpha virt. eigenvalues --    0.18699   0.19577   0.21758   0.23293   0.23847

 Mulliken charges:
               1
     1  C   -0.176361
     2  C   -0.007308
     3  C   -0.039601
     4  C   -0.159013
     5  H    0.088609
     6  H    0.049634
     7  H    0.040329
     8  H    0.050540
     9  H    0.059678
    10  H    0.093492
 Sum of Mulliken charges =   0.00000

 Dipole moment (field-independent basis, Debye):
    X=             -0.0439    Y=             -0.0908    Z=              0.3558  Tot=              0.3698
 Quadrupole moment (field-independent basis, Debye-Ang):
   XX=            -23.2748   YY=            -23.6862   ZZ=            -29.0730
   XY=              0.1217   XZ=              0.6964   YZ=              0.0935

 1\1\GINC-NODE31\SP\RB2PLYPD3-FC\def2QZVP\C4H6\BOITTIER\26-Aug-2020\0\\
 #p B2PLYPD3/Def2QZVP\\butadiene\\0,1\C,0,-3.824123,0.218276,-0.027372\
 C,0,-2.715832,-0.50676,0.035418\C,0,-1.384082,0.069475,0.062773\C,0,-0
 .271516,-0.633203,-0.000275\H,0,-4.815187,-0.149094,0.178353\H,0,-3.64
 1857,1.279562,-0.026255\H,0,-2.849887,-1.637512,0.351827\H,0,-1.468076
 ,1.109871,0.099082\H,0,-0.426268,-1.732223,-0.046179\H,0,0.720349,-0.2
 69999,0.007991\\Version=ES64L-G09RevD.01\State=1-A\HF=-155.6839957\MP2
 =-155.910154\RMSD=5.844e-09\PG=C01 [X(C4H6)]\\@

 Normal termination of Gaussian 09 at Wed Aug 26 13:44:22 2020.
