 Gaussian 09, Revision D.01,
 Gaussian 09:  ES64L-G09RevD.01 24-Apr-2013

 --------------------
 #p B2PLYPD3/Def2QZVP
 --------------------

 ---------
 butadiene
 ---------
 Symbolic Z-matrix:
 Charge =  0 Multiplicity = 1

                         Standard orientation:
 ---------------------------------------------------------------------
 Center     Atomic      Atomic             Coordinates (Angstroms)
 Number     Number       Type             X           Y           Z
 ---------------------------------------------------------------------
      1          6           0        1.840313    0.096730    0.086409
      2          6           0        0.586667   -0.393905   -0.071750
      3          6           0       -0.627740    0.434762   -0.077193
      4          6           0       -1.814733   -0.112111    0.024534
      5          1           0        2.630441   -0.517751    0.020544
      6          1           0        2.191662    1.121241   -0.033817
      7          1           0        0.467203   -1.493742    0.040811
      8          1           0       -0.518312    1.582500   -0.048030
      9          1           0       -1.851132   -1.261699   -0.047753
     10          1           0       -2.826905    0.416592    0.296243
 ---------------------------------------------------------------------

 SCF Done:  E(RB2PLYPD3) =  -155.673271036     A.U. after   12 cycles
 E2(B2PLYPD3) =    -0.2274504374D+00 E(B2PLYPD3) =    -0.15590072147310D+03

 The electronic state is 1-A.
 Alpha  occ. eigenvalues --  -10.63641 -10.63285 -10.62976 -10.60847  -0.92815
 Alpha  occ. eigenvalues --   -0.84913  -0.69801  -0.62959  -0.54414  -0.53050
 Alpha  occ. eigenvalues --   -0.46592  -0.44217  -0.40457  -0.38108  -0.27834
 Alpha virt. eigenvalues --    0.01614   0.06894   0.07102   0.07801   0.08947
 Alpha virt. eigenvalues --    0.11372   0.12558   0.14537   0.15564   0.16449
 Alpha virt. eigenvalues --    0.18478   0.18953   0.22568   0.22989   0.24088

 Mulliken charges:
               1
     1  C   -0.162817
     2  C   -0.043684
     3  C   -0.028395
     4  C   -0.151805
     5  H    0.076415
     6  H    0.057323
     7  H    0.059787
     8  H    0.057728
     9  H    0.051083
    10  H    0.084366
 Sum of Mulliken charges =   0.00000

 Dipole moment (field-independent basis, Debye):
    X=             -0.0204    Y=             -0.0007    Z=              0.0882  Tot=              0.0905
 Quadrupole moment (field-independent basis, Debye-Ang):
   XX=            -23.3794   YY=            -23.3622   ZZ=            -29.3433
   XY=              0.1765   XZ=             -0.8402   YZ=              0.0400

 1\1\GINC-NODE39\SP\RB2PLYPD3-FC\def2QZVP\C4H6\BOITTIER\26-Aug-2020\0\\
 #p B2PLYPD3/Def2QZVP\\butadiene\\0,1\C,0,-3.847883,0.208631,-0.059159\
 C,0,-2.702169,-0.497275,0.103327\C,0,-1.358055,0.098152,0.085286\C,0,-
 0.290287,-0.656209,-0.010534\H,0,-4.735412,-0.251452,0.02357\H,0,-4.00
 7349,1.281975,0.040966\H,0,-2.784306,-1.602618,0.013588\H,0,-1.258613,
 1.245945,0.032269\H,0,-0.461517,-1.791756,0.085989\H,0,0.798362,-0.324
 736,-0.298309\\Version=ES64L-G09RevD.01\State=1-A\HF=-155.673271\MP2=-
 155.9007215\RMSD=4.902e-09\PG=C01 [X(C4H6)]\\@

 Normal termination of Gaussian 09 at Wed Aug 26 14:49:10 2020.
