 Gaussian 09, Revision D.01,
 Gaussian 09:  ES64L-G09RevD.01 24-Apr-2013

 --------------------
 #p B2PLYPD3/Def2QZVP
 --------------------

 ---------
 butadiene
 ---------
 Symbolic Z-matrix:
 Charge =  0 Multiplicity = 1

                         Standard orientation:
 ---------------------------------------------------------------------
 Center     Atomic      Atomic             Coordinates (Angstroms)
 Number     Number       Type             X           Y           Z
 ---------------------------------------------------------------------
      1          6           0       -1.847427    0.117910    0.019536
      2          6           0       -0.617423   -0.415804   -0.026035
      3          6           0        0.613666    0.387149   -0.018997
      4          6           0        1.843101   -0.104661    0.027089
      5          1           0       -2.750259   -0.487020    0.080247
      6          1           0       -1.981873    1.217599   -0.019902
      7          1           0       -0.474628   -1.506407   -0.056932
      8          1           0        0.507600    1.482996   -0.036090
      9          1           0        2.039110   -1.149484   -0.000638
     10          1           0        2.708553    0.534752    0.023754
 ---------------------------------------------------------------------

 SCF Done:  E(RB2PLYPD3) =  -155.699512427     A.U. after   11 cycles
 E2(B2PLYPD3) =    -0.2258050449D+00 E(B2PLYPD3) =    -0.15592531747219D+03

 The electronic state is 1-A.
 Alpha  occ. eigenvalues --  -10.63065 -10.62649 -10.62082 -10.61048  -0.92692
 Alpha  occ. eigenvalues --   -0.84977  -0.69935  -0.63763  -0.54570  -0.53771
 Alpha  occ. eigenvalues --   -0.46856  -0.45344  -0.40896  -0.37924  -0.27857
 Alpha virt. eigenvalues --    0.01832   0.06992   0.07353   0.08010   0.09542
 Alpha virt. eigenvalues --    0.11611   0.12440   0.14590   0.15894   0.16157
 Alpha virt. eigenvalues --    0.18826   0.20450   0.21614   0.22771   0.23760

 Mulliken charges:
               1
     1  C   -0.170001
     2  C   -0.040892
     3  C   -0.022038
     4  C   -0.174458
     5  H    0.088039
     6  H    0.064947
     7  H    0.055568
     8  H    0.050662
     9  H    0.064143
    10  H    0.084031
 Sum of Mulliken charges =   0.00000

 Dipole moment (field-independent basis, Debye):
    X=              0.0035    Y=             -0.0199    Z=             -0.0418  Tot=              0.0465
 Quadrupole moment (field-independent basis, Debye-Ang):
   XX=            -23.3354   YY=            -23.1549   ZZ=            -29.3203
   XY=             -0.1299   XZ=             -0.1423   YZ=             -0.0345

 1\1\GINC-NODE36\SP\RB2PLYPD3-FC\def2QZVP\C4H6\BOITTIER\26-Aug-2020\0\\
 #p B2PLYPD3/Def2QZVP\\butadiene\\0,1\C,0,-3.847972,0.230299,0.039079\C
 ,0,-2.732221,-0.514076,0.010072\C,0,-1.378313,0.057811,-0.005501\C,0,-
 0.255288,-0.642586,0.055882\H,0,-4.843429,-0.203007,0.116814\H,0,-3.78
 5603,1.334795,-0.032654\H,0,-2.785076,-1.613151,0.01124\H,0,-1.288595,
 1.154144,-0.054765\H,0,-0.247646,-1.705966,0.058917\H,0,0.709747,-0.16
 707,0.03446\\Version=ES64L-G09RevD.01\State=1-A\HF=-155.6995124\MP2=-1
 55.9253175\RMSD=5.510e-09\PG=C01 [X(C4H6)]\\@

 Normal termination of Gaussian 09 at Wed Aug 26 21:18:07 2020.
