 Gaussian 09, Revision D.01,
 Gaussian 09:  ES64L-G09RevD.01 24-Apr-2013

 --------------------
 #p B2PLYPD3/Def2QZVP
 --------------------

 ---------
 butadiene
 ---------
 Symbolic Z-matrix:
 Charge =  0 Multiplicity = 1

                         Standard orientation:
 ---------------------------------------------------------------------
 Center     Atomic      Atomic             Coordinates (Angstroms)
 Number     Number       Type             X           Y           Z
 ---------------------------------------------------------------------
      1          6           0       -1.879131    0.098257    0.075466
      2          6           0       -0.626984   -0.379382   -0.085090
      3          6           0        0.619625    0.449942   -0.039387
      4          6           0        1.845977   -0.129192    0.039655
      5          1           0       -2.687590   -0.626571   -0.117354
      6          1           0       -2.191720    1.078026    0.152403
      7          1           0       -0.417677   -1.407132   -0.020834
      8          1           0        0.581955    1.574480   -0.112170
      9          1           0        2.029814   -1.248527    0.153636
     10          1           0        2.928300    0.391973    0.000452
 ---------------------------------------------------------------------

 SCF Done:  E(RB2PLYPD3) =  -155.674143906     A.U. after   12 cycles
 E2(B2PLYPD3) =    -0.2280574228D+00 E(B2PLYPD3) =    -0.15590220132913D+03

 The electronic state is 1-A.
 Alpha  occ. eigenvalues --  -10.64029 -10.63875 -10.63214 -10.61616  -0.92007
 Alpha  occ. eigenvalues --   -0.84221  -0.69632  -0.64050  -0.53671  -0.53490
 Alpha  occ. eigenvalues --   -0.46730  -0.44762  -0.40144  -0.37132  -0.27742
 Alpha virt. eigenvalues --    0.01181   0.06723   0.07332   0.07785   0.08900
 Alpha virt. eigenvalues --    0.11260   0.12362   0.14277   0.15531   0.16426
 Alpha virt. eigenvalues --    0.19117   0.19646   0.21992   0.22170   0.23125

 Mulliken charges:
               1
     1  C   -0.164252
     2  C   -0.045097
     3  C   -0.045137
     4  C   -0.158818
     5  H    0.072689
     6  H    0.076224
     7  H    0.078314
     8  H    0.064237
     9  H    0.052244
    10  H    0.069596
 Sum of Mulliken charges =   0.00000

 Dipole moment (field-independent basis, Debye):
    X=              0.0223    Y=             -0.0033    Z=             -0.0254  Tot=              0.0339
 Quadrupole moment (field-independent basis, Debye-Ang):
   XX=            -23.2699   YY=            -23.3155   ZZ=            -29.5698
   XY=             -0.6950   XZ=              0.1981   YZ=             -0.0383

 1\1\GINC-NODE34\SP\RB2PLYPD3-FC\def2QZVP\C4H6\BOITTIER\26-Aug-2020\0\\
 #p B2PLYPD3/Def2QZVP\\butadiene\\0,1\C,0,-3.88026,0.21252,0.089748\C,0
 ,-2.732829,-0.485405,-0.044758\C,0,-1.359208,0.112011,-0.032103\C,0,-0
 .253999,-0.670386,0.077225\H,0,-4.804835,-0.366116,-0.073051\H,0,-4.01
 4638,1.234537,0.121385\H,0,-2.707941,-1.53002,0.066454\H,0,-1.198108,1
 .22111,-0.155594\H,0,-0.270124,-1.798322,0.242147\H,0,0.903137,-0.3507
 84,0.018367\\Version=ES64L-G09RevD.01\State=1-A\HF=-155.6741439\MP2=-1
 55.9022013\RMSD=4.037e-09\PG=C01 [X(C4H6)]\\@

 Normal termination of Gaussian 09 at Wed Aug 26 13:29:05 2020.
