 Gaussian 09, Revision D.01,
 Gaussian 09:  ES64L-G09RevD.01 24-Apr-2013

 --------------------
 #p B2PLYPD3/Def2QZVP
 --------------------

 ---------
 butadiene
 ---------
 Symbolic Z-matrix:
 Charge =  0 Multiplicity = 1

                         Standard orientation:
 ---------------------------------------------------------------------
 Center     Atomic      Atomic             Coordinates (Angstroms)
 Number     Number       Type             X           Y           Z
 ---------------------------------------------------------------------
      1          6           0        1.847053   -0.118530   -0.009963
      2          6           0        0.610614    0.420824    0.001179
      3          6           0       -0.610219   -0.398285   -0.005868
      4          6           0       -1.855221    0.103652    0.006999
      5          1           0        2.738073    0.482751    0.021067
      6          1           0        1.990311   -1.183782   -0.011256
      7          1           0        0.498815    1.493309    0.040958
      8          1           0       -0.452139   -1.458527    0.053246
      9          1           0       -2.040437    1.180746   -0.039052
     10          1           0       -2.687985   -0.560470   -0.019046
 ---------------------------------------------------------------------

 SCF Done:  E(RB2PLYPD3) =  -155.700209327     A.U. after   11 cycles
 E2(B2PLYPD3) =    -0.2259510164D+00 E(B2PLYPD3) =    -0.15592616034318D+03

 The electronic state is 1-A.
 Alpha  occ. eigenvalues --  -10.62810 -10.62646 -10.61589 -10.61561  -0.92576
 Alpha  occ. eigenvalues --   -0.84724  -0.70174  -0.64306  -0.54522  -0.53887
 Alpha  occ. eigenvalues --   -0.46620  -0.45922  -0.41371  -0.37731  -0.27581
 Alpha virt. eigenvalues --    0.01619   0.07026   0.07450   0.08133   0.09339
 Alpha virt. eigenvalues --    0.11666   0.12437   0.14675   0.15859   0.16145
 Alpha virt. eigenvalues --    0.18842   0.20433   0.21593   0.23069   0.23790

 Mulliken charges:
               1
     1  C   -0.175572
     2  C   -0.034979
     3  C   -0.035295
     4  C   -0.177804
     5  H    0.085318
     6  H    0.064965
     7  H    0.058655
     8  H    0.058855
     9  H    0.068558
    10  H    0.087299
 Sum of Mulliken charges =   0.00000

 Dipole moment (field-independent basis, Debye):
    X=              0.0300    Y=             -0.0103    Z=              0.0357  Tot=              0.0478
 Quadrupole moment (field-independent basis, Debye-Ang):
   XX=            -23.4883   YY=            -23.0133   ZZ=            -29.3491
   XY=             -0.1707   XZ=              0.1816   YZ=             -0.0263

 1\1\GINC-NODE30\SP\RB2PLYPD3-FC\def2QZVP\C4H6\BOITTIER\26-Aug-2020\0\\
 #p B2PLYPD3/Def2QZVP\\butadiene\\0,1\C,0,-3.848649,0.233802,0.012217\C
 ,0,-2.729112,-0.518375,0.038181\C,0,-1.381089,0.067659,0.009541\C,0,-0
 .246401,-0.649215,0.036229\H,0,-4.833002,-0.196628,0.059089\H,0,-3.798
 311,1.307049,-0.017674\H,0,-2.811522,-1.592067,0.106728\H,0,-1.345958,
 1.140238,0.040165\H,0,-0.257804,-1.742894,0.019123\H,0,0.691949,-0.146
 392,-0.007362\\Version=ES64L-G09RevD.01\State=1-A\HF=-155.7002093\MP2=
 -155.9261603\RMSD=4.223e-09\PG=C01 [X(C4H6)]\\@

 Normal termination of Gaussian 09 at Wed Aug 26 09:20:40 2020.
