 Gaussian 09, Revision D.01,
 Gaussian 09:  ES64L-G09RevD.01 24-Apr-2013

 --------------------
 #p B2PLYPD3/Def2QZVP
 --------------------

 ---------
 butadiene
 ---------
 Symbolic Z-matrix:
 Charge =  0 Multiplicity = 1

                         Standard orientation:
 ---------------------------------------------------------------------
 Center     Atomic      Atomic             Coordinates (Angstroms)
 Number     Number       Type             X           Y           Z
 ---------------------------------------------------------------------
      1          6           0       -1.851996    0.087251    0.024855
      2          6           0       -0.603378   -0.387200   -0.032428
      3          6           0        0.594315    0.418794   -0.016782
      4          6           0        1.848978   -0.111108    0.038318
      5          1           0       -2.686770   -0.553387    0.107711
      6          1           0       -2.090382    1.158533   -0.034268
      7          1           0       -0.423898   -1.400949   -0.105956
      8          1           0        0.504399    1.505291   -0.047209
      9          1           0        1.962395   -1.196747   -0.001883
     10          1           0        2.806738    0.440837   -0.002172
 ---------------------------------------------------------------------

 SCF Done:  E(RB2PLYPD3) =  -155.694493296     A.U. after   11 cycles
 E2(B2PLYPD3) =    -0.2263799013D+00 E(B2PLYPD3) =    -0.15592087319729D+03

 The electronic state is 1-A.
 Alpha  occ. eigenvalues --  -10.62996 -10.62321 -10.62129 -10.61555  -0.93002
 Alpha  occ. eigenvalues --   -0.84478  -0.70546  -0.64623  -0.54939  -0.53553
 Alpha  occ. eigenvalues --   -0.47029  -0.45269  -0.41572  -0.37835  -0.27351
 Alpha virt. eigenvalues --    0.01214   0.06992   0.07476   0.08136   0.09484
 Alpha virt. eigenvalues --    0.11550   0.12573   0.14567   0.15851   0.16429
 Alpha virt. eigenvalues --    0.18878   0.20295   0.21775   0.22768   0.23602

 Mulliken charges:
               1
     1  C   -0.173490
     2  C   -0.037508
     3  C   -0.030537
     4  C   -0.171991
     5  H    0.085483
     6  H    0.066832
     7  H    0.065167
     8  H    0.056804
     9  H    0.054917
    10  H    0.084324
 Sum of Mulliken charges =   0.00000

 Dipole moment (field-independent basis, Debye):
    X=             -0.0206    Y=             -0.0236    Z=             -0.1151  Tot=              0.1192
 Quadrupole moment (field-independent basis, Debye-Ang):
   XX=            -23.1389   YY=            -23.3081   ZZ=            -29.3173
   XY=             -0.1866   XZ=             -0.2563   YZ=             -0.0514

 1\1\GINC-NODE14\SP\RB2PLYPD3-FC\def2QZVP\C4H6\BOITTIER\26-Aug-2020\0\\
 #p B2PLYPD3/Def2QZVP\\butadiene\\0,1\C,0,-3.855374,0.210032,0.044696\C
 ,0,-2.715076,-0.486712,0.003455\C,0,-1.390008,0.086355,-0.007914\C,0,-
 0.253233,-0.662266,0.065028\H,0,-4.792793,-0.263783,0.148977\H,0,-3.89
 3986,1.304306,-0.050394\H,0,-2.72465,-1.518051,-0.035968\H,0,-1.279702
 ,1.169333,-0.074826\H,0,-0.340709,-1.751039,0.061325\H,0,0.789114,-0.2
 9672,0.006076\\Version=ES64L-G09RevD.01\State=1-A\HF=-155.6944933\MP2=
 -155.9208732\RMSD=6.284e-09\PG=C01 [X(C4H6)]\\@

 Normal termination of Gaussian 09 at Wed Aug 26 22:18:06 2020.
