 Gaussian 09, Revision D.01,
 Gaussian 09:  ES64L-G09RevD.01 24-Apr-2013

 --------------------
 #p B2PLYPD3/Def2QZVP
 --------------------

 ---------
 butadiene
 ---------
 Symbolic Z-matrix:
 Charge =  0 Multiplicity = 1

                         Standard orientation:
 ---------------------------------------------------------------------
 Center     Atomic      Atomic             Coordinates (Angstroms)
 Number     Number       Type             X           Y           Z
 ---------------------------------------------------------------------
      1          6           0        1.835172    0.101431    0.014498
      2          6           0        0.591033   -0.403881   -0.028278
      3          6           0       -0.598670    0.416993   -0.033339
      4          6           0       -1.829495   -0.118809    0.027348
      5          1           0        2.684595   -0.532531    0.032036
      6          1           0        2.001722    1.183481    0.042944
      7          1           0        0.441170   -1.476555    0.033015
      8          1           0       -0.455087    1.476790   -0.009216
      9          1           0       -1.999508   -1.166205   -0.025443
     10          1           0       -2.661135    0.540619    0.045286
 ---------------------------------------------------------------------

 SCF Done:  E(RB2PLYPD3) =  -155.699464952     A.U. after   11 cycles
 E2(B2PLYPD3) =    -0.2257984985D+00 E(B2PLYPD3) =    -0.15592526345037D+03

 The electronic state is 1-A.
 Alpha  occ. eigenvalues --  -10.62432 -10.62331 -10.61423 -10.61152  -0.93073
 Alpha  occ. eigenvalues --   -0.84759  -0.70435  -0.64393  -0.54606  -0.54183
 Alpha  occ. eigenvalues --   -0.46617  -0.45911  -0.41642  -0.38044  -0.27377
 Alpha virt. eigenvalues --    0.01609   0.07072   0.07412   0.08175   0.09416
 Alpha virt. eigenvalues --    0.11783   0.12433   0.14868   0.15833   0.16108
 Alpha virt. eigenvalues --    0.18706   0.20397   0.21670   0.23263   0.23984

 Mulliken charges:
               1
     1  C   -0.181467
     2  C   -0.028165
     3  C   -0.032062
     4  C   -0.180395
     5  H    0.087736
     6  H    0.063727
     7  H    0.054994
     8  H    0.058931
     9  H    0.072979
    10  H    0.083722
 Sum of Mulliken charges =   0.00000

 Dipole moment (field-independent basis, Debye):
    X=             -0.0203    Y=             -0.0021    Z=              0.0615  Tot=              0.0648
 Quadrupole moment (field-independent basis, Debye-Ang):
   XX=            -23.7246   YY=            -22.9105   ZZ=            -29.2579
   XY=              0.2036   XZ=              0.1289   YZ=              0.0438

 1\1\GINC-NODE07\SP\RB2PLYPD3-FC\def2QZVP\C4H6\BOITTIER\26-Aug-2020\0\\
 #p B2PLYPD3/Def2QZVP\\butadiene\\0,1\C,0,-3.837398,0.223006,-0.000696\
 C,0,-2.707651,-0.501488,0.061205\C,0,-1.386984,0.08573,0.044893\C,0,-0
 .276216,-0.669413,0.004266\H,0,-4.789191,-0.243712,-0.00151\H,0,-3.801
 659,1.315835,-0.062556\H,0,-2.758298,-1.584763,0.033033\H,0,-1.332763,
 1.152596,-0.0119\H,0,-0.302098,-1.728096,0.089417\H,0,0.662701,-0.1754
 8,-0.031207\\Version=ES64L-G09RevD.01\State=1-A\HF=-155.699465\MP2=-15
 5.9252635\RMSD=5.602e-09\PG=C01 [X(C4H6)]\\@

 Normal termination of Gaussian 09 at Wed Aug 26 21:34:47 2020.
