 Gaussian 09, Revision D.01,
 Gaussian 09:  ES64L-G09RevD.01 24-Apr-2013

 --------------------
 #p B2PLYPD3/Def2QZVP
 --------------------

 ---------
 butadiene
 ---------
 Symbolic Z-matrix:
 Charge =  0 Multiplicity = 1

                         Standard orientation:
 ---------------------------------------------------------------------
 Center     Atomic      Atomic             Coordinates (Angstroms)
 Number     Number       Type             X           Y           Z
 ---------------------------------------------------------------------
      1          6           0       -1.789391   -0.141582    0.094658
      2          6           0       -0.575937    0.438430   -0.094108
      3          6           0        0.577420   -0.381426   -0.051544
      4          6           0        1.826103    0.094833    0.051364
      5          1           0       -2.729447    0.394871   -0.044951
      6          1           0       -1.955460   -1.159328    0.128303
      7          1           0       -0.620099    1.604954   -0.176282
      8          1           0        0.385473   -1.446439   -0.138791
      9          1           0        1.974134    1.128947    0.328919
     10          1           0        2.716227   -0.584544   -0.099425
 ---------------------------------------------------------------------

 SCF Done:  E(RB2PLYPD3) =  -155.681011605     A.U. after   12 cycles
 E2(B2PLYPD3) =    -0.2275696530D+00 E(B2PLYPD3) =    -0.15590858125846D+03

 The electronic state is 1-A.
 Alpha  occ. eigenvalues --  -10.63517 -10.62444 -10.61926 -10.61235  -0.93461
 Alpha  occ. eigenvalues --   -0.84381  -0.70261  -0.63829  -0.54507  -0.53604
 Alpha  occ. eigenvalues --   -0.45608  -0.45326  -0.41775  -0.37852  -0.27057
 Alpha virt. eigenvalues --    0.01008   0.07069   0.07153   0.07737   0.09365
 Alpha virt. eigenvalues --    0.11701   0.12360   0.14776   0.15802   0.16221
 Alpha virt. eigenvalues --    0.18684   0.20098   0.21014   0.22855   0.23738

 Mulliken charges:
               1
     1  C   -0.161763
     2  C   -0.033692
     3  C   -0.027451
     4  C   -0.188406
     5  H    0.067554
     6  H    0.059925
     7  H    0.058959
     8  H    0.064676
     9  H    0.076661
    10  H    0.083538
 Sum of Mulliken charges =   0.00000

 Dipole moment (field-independent basis, Debye):
    X=             -0.1245    Y=             -0.0717    Z=             -0.0912  Tot=              0.1702
 Quadrupole moment (field-independent basis, Debye-Ang):
   XX=            -23.8505   YY=            -23.1370   ZZ=            -29.2245
   XY=              0.1789   XZ=              0.2805   YZ=              0.2679

 1\1\GINC-NODE22\SP\RB2PLYPD3-FC\def2QZVP\C4H6\BOITTIER\26-Aug-2020\0\\
 #p B2PLYPD3/Def2QZVP\\butadiene\\0,1\C,0,-3.791061,0.247013,-0.068925\
 C,0,-2.701422,-0.538393,0.131925\C,0,-1.419062,0.057914,0.067288\C,0,-
 0.277793,-0.638803,-0.026052\H,0,-4.811781,-0.10695,0.085411\H,0,-3.77
 0478,1.276914,-0.127234\H,0,-2.955381,-1.675363,0.242758\H,0,-1.414638
 ,1.141849,0.12872\H,0,-0.320984,-1.68894,-0.278417\H,0,0.721454,-0.128
 366,0.106502\\Version=ES64L-G09RevD.01\State=1-A\HF=-155.6810116\MP2=-
 155.9085813\RMSD=5.497e-09\PG=C01 [X(C4H6)]\\@

 Normal termination of Gaussian 09 at Wed Aug 26 15:45:02 2020.
