 Gaussian 09, Revision D.01,
 Gaussian 09:  ES64L-G09RevD.01 24-Apr-2013

 --------------------
 #p B2PLYPD3/Def2QZVP
 --------------------

 ---------
 butadiene
 ---------
 Symbolic Z-matrix:
 Charge =  0 Multiplicity = 1

                         Standard orientation:
 ---------------------------------------------------------------------
 Center     Atomic      Atomic             Coordinates (Angstroms)
 Number     Number       Type             X           Y           Z
 ---------------------------------------------------------------------
      1          6           0        1.848033    0.113001   -0.007938
      2          6           0        0.609598   -0.410330    0.013482
      3          6           0       -0.616390    0.393210    0.005643
      4          6           0       -1.844996   -0.110770   -0.008290
      5          1           0        2.754102   -0.501060   -0.041346
      6          1           0        2.004430    1.193977   -0.051112
      7          1           0        0.492849   -1.476559    0.090043
      8          1           0       -0.469058    1.481689    0.067801
      9          1           0       -2.053695   -1.167943   -0.080388
     10          1           0       -2.706095    0.559224   -0.002385
 ---------------------------------------------------------------------

 SCF Done:  E(RB2PLYPD3) =  -155.700130753     A.U. after   11 cycles
 E2(B2PLYPD3) =    -0.2258980026D+00 E(B2PLYPD3) =    -0.15592602875534D+03

 The electronic state is 1-A.
 Alpha  occ. eigenvalues --  -10.62750 -10.62685 -10.61944 -10.61530  -0.92723
 Alpha  occ. eigenvalues --   -0.84830  -0.69937  -0.63991  -0.54380  -0.53807
 Alpha  occ. eigenvalues --   -0.46774  -0.45479  -0.40920  -0.37915  -0.27787
 Alpha virt. eigenvalues --    0.01745   0.06980   0.07413   0.08004   0.09494
 Alpha virt. eigenvalues --    0.11627   0.12383   0.14657   0.15837   0.16061
 Alpha virt. eigenvalues --    0.18845   0.20461   0.21574   0.22765   0.23625

 Mulliken charges:
               1
     1  C   -0.172759
     2  C   -0.037534
     3  C   -0.029729
     4  C   -0.175057
     5  H    0.084771
     6  H    0.062927
     7  H    0.059805
     8  H    0.054630
     9  H    0.069720
    10  H    0.083225
 Sum of Mulliken charges =   0.00000

 Dipole moment (field-independent basis, Debye):
    X=             -0.0030    Y=             -0.0191    Z=             -0.0104  Tot=              0.0220
 Quadrupole moment (field-independent basis, Debye-Ang):
   XX=            -23.4207   YY=            -23.1242   ZZ=            -29.3254
   XY=              0.2093   XZ=             -0.0421   YZ=              0.0358

 1\1\GINC-NODE30\SP\RB2PLYPD3-FC\def2QZVP\C4H6\BOITTIER\26-Aug-2020\0\\
 #p B2PLYPD3/Def2QZVP\\butadiene\\0,1\C,0,-3.850405,0.227824,0.026263\C
 ,0,-2.725379,-0.508627,0.022695\C,0,-1.375619,0.062962,0.007919\C,0,-0
 .256671,-0.651633,0.039083\H,0,-4.851401,-0.213293,0.076982\H,0,-3.811
 149,1.320157,0.036237\H,0,-2.801146,-1.580388,-0.02116\H,0,-1.326519,1
 .157869,-0.087605\H,0,-0.239763,-1.726408,0.143682\H,0,0.71017,-0.1466
 47,0.014081\\Version=ES64L-G09RevD.01\State=1-A\HF=-155.7001308\MP2=-1
 55.9260288\RMSD=4.792e-09\PG=C01 [X(C4H6)]\\@

 Normal termination of Gaussian 09 at Wed Aug 26 18:38:54 2020.
