 Gaussian 09, Revision D.01,
 Gaussian 09:  ES64L-G09RevD.01 24-Apr-2013

 --------------------
 #p B2PLYPD3/Def2QZVP
 --------------------

 ---------
 butadiene
 ---------
 Symbolic Z-matrix:
 Charge =  0 Multiplicity = 1

                         Standard orientation:
 ---------------------------------------------------------------------
 Center     Atomic      Atomic             Coordinates (Angstroms)
 Number     Number       Type             X           Y           Z
 ---------------------------------------------------------------------
      1          6           0       -1.831937    0.098395   -0.003793
      2          6           0       -0.598112   -0.390486   -0.014355
      3          6           0        0.605174    0.414692   -0.009571
      4          6           0        1.829214   -0.122752    0.009128
      5          1           0       -2.725842   -0.515783    0.095795
      6          1           0       -2.024574    1.163154    0.000791
      7          1           0       -0.467963   -1.463033   -0.011840
      8          1           0        0.503386    1.481329   -0.007399
      9          1           0        1.989940   -1.176866   -0.014067
     10          1           0        2.699023    0.512105    0.048265
 ---------------------------------------------------------------------

 SCF Done:  E(RB2PLYPD3) =  -155.701008383     A.U. after   11 cycles
 E2(B2PLYPD3) =    -0.2253549058D+00 E(B2PLYPD3) =    -0.15592636328893D+03

 The electronic state is 1-A.
 Alpha  occ. eigenvalues --  -10.62369 -10.62277 -10.61360 -10.61297  -0.93180
 Alpha  occ. eigenvalues --   -0.84999  -0.70197  -0.64444  -0.54712  -0.54148
 Alpha  occ. eigenvalues --   -0.46687  -0.45612  -0.41283  -0.38222  -0.27666
 Alpha virt. eigenvalues --    0.01808   0.07014   0.07488   0.08074   0.09621
 Alpha virt. eigenvalues --    0.11694   0.12512   0.14768   0.15918   0.16208
 Alpha virt. eigenvalues --    0.18809   0.20513   0.21771   0.22867   0.23781

 Mulliken charges:
               1
     1  C   -0.171818
     2  C   -0.028476
     3  C   -0.033882
     4  C   -0.176291
     5  H    0.081843
     6  H    0.060560
     7  H    0.056135
     8  H    0.059613
     9  H    0.069199
    10  H    0.083117
 Sum of Mulliken charges =   0.00000

 Dipole moment (field-independent basis, Debye):
    X=              0.0259    Y=              0.0100    Z=              0.0840  Tot=              0.0885
 Quadrupole moment (field-independent basis, Debye-Ang):
   XX=            -23.4562   YY=            -23.0800   ZZ=            -29.1910
   XY=             -0.1775   XZ=             -0.1849   YZ=             -0.0071

 1\1\GINC-NODE15\SP\RB2PLYPD3-FC\def2QZVP\C4H6\BOITTIER\26-Aug-2020\0\\
 #p B2PLYPD3/Def2QZVP\\butadiene\\0,1\C,0,-3.836839,0.212574,0.019663\C
 ,0,-2.711557,-0.491102,0.024015\C,0,-1.382721,0.083418,0.005248\C,0,-0
 .275678,-0.665379,0.040289\H,0,-4.826383,-0.226961,0.137177\H,0,-3.834
 152,1.294285,-0.007452\H,0,-2.777075,-1.568982,0.058438\H,0,-1.290351,
 1.150505,-0.024305\H,0,-0.307925,-1.731409,0.048475\H,0,0.694599,-0.19
 7101,0.060816\\Version=ES64L-G09RevD.01\State=1-A\HF=-155.7010084\MP2=
 -155.9263633\RMSD=5.091e-09\PG=C01 [X(C4H6)]\\@

 Normal termination of Gaussian 09 at Wed Aug 26 18:48:37 2020.
