 Gaussian 09, Revision D.01,
 Gaussian 09:  ES64L-G09RevD.01 24-Apr-2013

 --------------------
 #p B2PLYPD3/Def2QZVP
 --------------------

 ---------
 butadiene
 ---------
 Symbolic Z-matrix:
 Charge =  0 Multiplicity = 1

                         Standard orientation:
 ---------------------------------------------------------------------
 Center     Atomic      Atomic             Coordinates (Angstroms)
 Number     Number       Type             X           Y           Z
 ---------------------------------------------------------------------
      1          6           0       -1.861699    0.104581   -0.029250
      2          6           0       -0.609382   -0.384997    0.037014
      3          6           0        0.605911    0.421385    0.032878
      4          6           0        1.837171   -0.120047   -0.047056
      5          1           0       -2.675089   -0.596294   -0.043840
      6          1           0       -2.091493    1.139616   -0.053887
      7          1           0       -0.416038   -1.482643    0.027473
      8          1           0        0.554112    1.515443    0.120103
      9          1           0        2.058937   -1.185484    0.068096
     10          1           0        2.737570    0.483828   -0.079459
 ---------------------------------------------------------------------

 SCF Done:  E(RB2PLYPD3) =  -155.696162331     A.U. after   11 cycles
 E2(B2PLYPD3) =    -0.2264943206D+00 E(B2PLYPD3) =    -0.15592265665176D+03

 The electronic state is 1-A.
 Alpha  occ. eigenvalues --  -10.63163 -10.63009 -10.61867 -10.61432  -0.92567
 Alpha  occ. eigenvalues --   -0.84664  -0.70340  -0.63755  -0.54382  -0.53946
 Alpha  occ. eigenvalues --   -0.46421  -0.45648  -0.41162  -0.37715  -0.27492
 Alpha virt. eigenvalues --    0.01415   0.06988   0.07380   0.07969   0.09364
 Alpha virt. eigenvalues --    0.11548   0.12417   0.14747   0.15773   0.16310
 Alpha virt. eigenvalues --    0.18845   0.20342   0.21675   0.22937   0.23527

 Mulliken charges:
               1
     1  C   -0.178788
     2  C   -0.031750
     3  C   -0.034753
     4  C   -0.170304
     5  H    0.086179
     6  H    0.075846
     7  H    0.054661
     8  H    0.058550
     9  H    0.062866
    10  H    0.077493
 Sum of Mulliken charges =   0.00000

 Dipole moment (field-independent basis, Debye):
    X=              0.0524    Y=              0.0270    Z=              0.0901  Tot=              0.1077
 Quadrupole moment (field-independent basis, Debye-Ang):
   XX=            -23.3997   YY=            -23.0898   ZZ=            -29.3780
   XY=             -0.3353   XZ=              0.2301   YZ=             -0.0426

 1\1\GINC-NODE03\SP\RB2PLYPD3-FC\def2QZVP\C4H6\BOITTIER\26-Aug-2020\0\\
 #p B2PLYPD3/Def2QZVP\\butadiene\\0,1\C,0,-3.861533,0.221261,-0.013441\
 C,0,-2.718358,-0.484702,0.071061\C,0,-1.377255,0.088176,0.049596\C,0,-
 0.264333,-0.668994,-0.010707\H,0,-4.788299,-0.32109,-0.012018\H,0,-3.9
 00342,1.279706,-0.067275\H,0,-2.726761,-1.599053,0.092301\H,0,-1.23020
 4,1.175546,0.10666\H,0,-0.238817,-1.753377,0.134408\H,0,0.730408,-0.23
 9038,-0.056113\\Version=ES64L-G09RevD.01\State=1-A\HF=-155.6961623\MP2
 =-155.9226567\RMSD=4.226e-09\PG=C01 [X(C4H6)]\\@

 Normal termination of Gaussian 09 at Wed Aug 26 22:17:51 2020.
