 Gaussian 09, Revision D.01,
 Gaussian 09:  ES64L-G09RevD.01 24-Apr-2013

 --------------------
 #p B2PLYPD3/Def2QZVP
 --------------------

 ---------
 butadiene
 ---------
 Symbolic Z-matrix:
 Charge =  0 Multiplicity = 1

                         Standard orientation:
 ---------------------------------------------------------------------
 Center     Atomic      Atomic             Coordinates (Angstroms)
 Number     Number       Type             X           Y           Z
 ---------------------------------------------------------------------
      1          6           0       -1.837017    0.102665   -0.027577
      2          6           0       -0.606347   -0.387668    0.024723
      3          6           0        0.608039    0.408202    0.000961
      4          6           0        1.832055   -0.119479   -0.015798
      5          1           0       -2.723119   -0.542808    0.027838
      6          1           0       -1.950318    1.193619   -0.044086
      7          1           0       -0.453281   -1.475247    0.064833
      8          1           0        0.467901    1.480388    0.099716
      9          1           0        1.970513   -1.180461   -0.058088
     10          1           0        2.707922    0.502190    0.015938
 ---------------------------------------------------------------------

 SCF Done:  E(RB2PLYPD3) =  -155.700105535     A.U. after   11 cycles
 E2(B2PLYPD3) =    -0.2256451931D+00 E(B2PLYPD3) =    -0.15592575072814D+03

 The electronic state is 1-A.
 Alpha  occ. eigenvalues --  -10.62480 -10.62372 -10.61655 -10.61346  -0.93143
 Alpha  occ. eigenvalues --   -0.85058  -0.70004  -0.63881  -0.54525  -0.53931
 Alpha  occ. eigenvalues --   -0.46862  -0.45520  -0.40964  -0.38166  -0.27837
 Alpha virt. eigenvalues --    0.01851   0.07039   0.07348   0.08037   0.09663
 Alpha virt. eigenvalues --    0.11727   0.12429   0.14664   0.15690   0.16136
 Alpha virt. eigenvalues --    0.18708   0.20241   0.21622   0.22873   0.23941

 Mulliken charges:
               1
     1  C   -0.175618
     2  C   -0.024460
     3  C   -0.028497
     4  C   -0.178693
     5  H    0.089785
     6  H    0.061687
     7  H    0.047514
     8  H    0.053175
     9  H    0.068011
    10  H    0.087097
 Sum of Mulliken charges =   0.00000

 Dipole moment (field-independent basis, Debye):
    X=              0.0465    Y=             -0.0140    Z=              0.1117  Tot=              0.1218
 Quadrupole moment (field-independent basis, Debye-Ang):
   XX=            -23.5485   YY=            -23.1534   ZZ=            -29.2382
   XY=             -0.0338   XZ=             -0.0376   YZ=              0.0694

 1\1\GINC-NODE22\SP\RB2PLYPD3-FC\def2QZVP\C4H6\BOITTIER\26-Aug-2020\0\\
 #p B2PLYPD3/Def2QZVP\\butadiene\\0,1\C,0,-3.840978,0.213671,-0.005123\
 C,0,-2.717721,-0.48755,0.060389\C,0,-1.380632,0.077451,0.019477\C,0,-0
 .270802,-0.660936,0.016822\H,0,-4.828085,-0.261387,0.064324\H,0,-3.757
 351,1.306602,-0.047531\H,0,-2.761552,-1.583722,0.126366\H,0,-1.326432,
 1.159427,0.092708\H,0,-0.324488,-1.730267,-0.000226\H,0,0.70223,-0.205
 415,0.035051\\Version=ES64L-G09RevD.01\State=1-A\HF=-155.7001055\MP2=-
 155.9257507\RMSD=5.908e-09\PG=C01 [X(C4H6)]\\@

 Normal termination of Gaussian 09 at Wed Aug 26 11:16:13 2020.
