 Gaussian 09, Revision D.01,
 Gaussian 09:  ES64L-G09RevD.01 24-Apr-2013

 --------------------
 #p B2PLYPD3/Def2QZVP
 --------------------

 ---------
 butadiene
 ---------
 Symbolic Z-matrix:
 Charge =  0 Multiplicity = 1

                         Standard orientation:
 ---------------------------------------------------------------------
 Center     Atomic      Atomic             Coordinates (Angstroms)
 Number     Number       Type             X           Y           Z
 ---------------------------------------------------------------------
      1          6           0       -1.858162    0.122230   -0.017738
      2          6           0       -0.612877   -0.421389    0.012884
      3          6           0        0.597976    0.373692   -0.002597
      4          6           0        1.851931   -0.093942   -0.012598
      5          1           0       -2.765404   -0.485935    0.035065
      6          1           0       -1.974535    1.188027    0.000743
      7          1           0       -0.454217   -1.460336    0.074708
      8          1           0        0.476364    1.445366   -0.016350
      9          1           0        2.100343   -1.137565   -0.104656
     10          1           0        2.744240    0.566900    0.130781
 ---------------------------------------------------------------------

 SCF Done:  E(RB2PLYPD3) =  -155.696355441     A.U. after   11 cycles
 E2(B2PLYPD3) =    -0.2263608829D+00 E(B2PLYPD3) =    -0.15592271632437D+03

 The electronic state is 1-A.
 Alpha  occ. eigenvalues --  -10.62701 -10.62491 -10.62099 -10.61912  -0.92868
 Alpha  occ. eigenvalues --   -0.84519  -0.70408  -0.64588  -0.54561  -0.53609
 Alpha  occ. eigenvalues --   -0.46769  -0.45785  -0.41242  -0.37856  -0.27408
 Alpha virt. eigenvalues --    0.01197   0.06910   0.07545   0.08071   0.09508
 Alpha virt. eigenvalues --    0.11627   0.12469   0.14663   0.15742   0.16243
 Alpha virt. eigenvalues --    0.18935   0.20281   0.21809   0.22490   0.23720

 Mulliken charges:
               1
     1  C   -0.172943
     2  C   -0.045457
     3  C   -0.022265
     4  C   -0.177687
     5  H    0.086013
     6  H    0.069380
     7  H    0.063793
     8  H    0.055797
     9  H    0.063956
    10  H    0.079414
 Sum of Mulliken charges =   0.00000

 Dipole moment (field-independent basis, Debye):
    X=             -0.0241    Y=             -0.0269    Z=              0.1125  Tot=              0.1182
 Quadrupole moment (field-independent basis, Debye-Ang):
   XX=            -23.2995   YY=            -23.2559   ZZ=            -29.3253
   XY=             -0.2654   XZ=              0.0165   YZ=              0.0869

 1\1\GINC-NODE30\SP\RB2PLYPD3-FC\def2QZVP\C4H6\BOITTIER\26-Aug-2020\0\\
 #p B2PLYPD3/Def2QZVP\\butadiene\\0,1\C,0,-3.85491,0.241245,0.003221\C,
 0,-2.727944,-0.517,0.05018\C,0,-1.393647,0.046066,0.016029\C,0,-0.2445
 77,-0.640085,0.02041\H,0,-4.856763,-0.191801,0.070323\H,0,-3.777181,1.
 310672,-0.006342\H,0,-2.758997,-1.565562,0.139391\H,0,-1.320109,1.1213
 78,-0.025919\H,0,-0.188655,-1.713428,-0.043931\H,0,0.752675,-0.14745,0
 .14802\\Version=ES64L-G09RevD.01\State=1-A\HF=-155.6963554\MP2=-155.92
 27163\RMSD=6.076e-09\PG=C01 [X(C4H6)]\\@

 Normal termination of Gaussian 09 at Wed Aug 26 11:08:54 2020.
