 Gaussian 09, Revision D.01,
 Gaussian 09:  ES64L-G09RevD.01 24-Apr-2013

 --------------------
 #p B2PLYPD3/Def2QZVP
 --------------------

 ---------
 butadiene
 ---------
 Symbolic Z-matrix:
 Charge =  0 Multiplicity = 1

                         Standard orientation:
 ---------------------------------------------------------------------
 Center     Atomic      Atomic             Coordinates (Angstroms)
 Number     Number       Type             X           Y           Z
 ---------------------------------------------------------------------
      1          6           0       -1.831736    0.104495    0.012569
      2          6           0       -0.589735   -0.394720   -0.016360
      3          6           0        0.601465    0.421551   -0.009667
      4          6           0        1.829587   -0.117904   -0.000052
      5          1           0       -2.698305   -0.561904   -0.010533
      6          1           0       -2.035121    1.157896    0.046830
      7          1           0       -0.473232   -1.483919   -0.036353
      8          1           0        0.450746    1.505029   -0.008273
      9          1           0        1.978410   -1.189305    0.099822
     10          1           0        2.720020    0.491670   -0.010432
 ---------------------------------------------------------------------

 SCF Done:  E(RB2PLYPD3) =  -155.700220677     A.U. after   11 cycles
 E2(B2PLYPD3) =    -0.2260682278D+00 E(B2PLYPD3) =    -0.15592628890451D+03

 The electronic state is 1-A.
 Alpha  occ. eigenvalues --  -10.62727 -10.62522 -10.61640 -10.61471  -0.93044
 Alpha  occ. eigenvalues --   -0.84676  -0.70118  -0.64037  -0.54465  -0.53932
 Alpha  occ. eigenvalues --   -0.46354  -0.45596  -0.41359  -0.38159  -0.27465
 Alpha virt. eigenvalues --    0.01638   0.07018   0.07337   0.08026   0.09484
 Alpha virt. eigenvalues --    0.11696   0.12421   0.14780   0.15941   0.16078
 Alpha virt. eigenvalues --    0.18718   0.20565   0.21625   0.22769   0.23818

 Mulliken charges:
               1
     1  C   -0.179977
     2  C   -0.023046
     3  C   -0.035126
     4  C   -0.173569
     5  H    0.082101
     6  H    0.066609
     7  H    0.054174
     8  H    0.057368
     9  H    0.067323
    10  H    0.084143
 Sum of Mulliken charges =   0.00000

 Dipole moment (field-independent basis, Debye):
    X=              0.0207    Y=              0.0133    Z=              0.0615  Tot=              0.0662
 Quadrupole moment (field-independent basis, Debye-Ang):
   XX=            -23.6049   YY=            -23.0184   ZZ=            -29.3136
   XY=             -0.2239   XZ=              0.1174   YZ=             -0.0365

 1\1\GINC-NODE27\SP\RB2PLYPD3-FC\def2QZVP\C4H6\BOITTIER\26-Aug-2020\0\\
 #p B2PLYPD3/Def2QZVP\\butadiene\\0,1\C,0,-3.835413,0.221278,0.030166\C
 ,0,-2.705479,-0.496895,0.020465\C,0,-1.385291,0.088052,0.004958\C,0,-0
 .276234,-0.665922,0.035005\H,0,-4.809118,-0.276156,0.0255\H,0,-3.84301
 9,1.294653,0.030784\H,0,-2.789787,-1.589145,0.034983\H,0,-1.335722,1.1
 80341,-0.028068\H,0,-0.325168,-1.742821,0.168864\H,0,0.710465,-0.22973
 7,0.008056\\Version=ES64L-G09RevD.01\State=1-A\HF=-155.7002207\MP2=-15
 5.9262889\RMSD=4.149e-09\PG=C01 [X(C4H6)]\\@

 Normal termination of Gaussian 09 at Wed Aug 26 19:14:09 2020.
