 Gaussian 09, Revision D.01,
 Gaussian 09:  ES64L-G09RevD.01 24-Apr-2013

 --------------------
 #p B2PLYPD3/Def2QZVP
 --------------------

 ---------
 butadiene
 ---------
 Symbolic Z-matrix:
 Charge =  0 Multiplicity = 1

                         Standard orientation:
 ---------------------------------------------------------------------
 Center     Atomic      Atomic             Coordinates (Angstroms)
 Number     Number       Type             X           Y           Z
 ---------------------------------------------------------------------
      1          6           0        1.827433    0.121901    0.036030
      2          6           0        0.613268   -0.424659   -0.054777
      3          6           0       -0.600292    0.384506   -0.017182
      4          6           0       -1.833613   -0.104920    0.013164
      5          1           0        2.770059   -0.471365   -0.010426
      6          1           0        1.827046    1.274688    0.119823
      7          1           0        0.509091   -1.503596   -0.038544
      8          1           0       -0.434164    1.438865   -0.097034
      9          1           0       -2.006186   -1.141051    0.167674
     10          1           0       -2.706621    0.541491   -0.004905
 ---------------------------------------------------------------------

 SCF Done:  E(RB2PLYPD3) =  -155.693832230     A.U. after   11 cycles
 E2(B2PLYPD3) =    -0.2261798899D+00 E(B2PLYPD3) =    -0.15592001212035D+03

 The electronic state is 1-A.
 Alpha  occ. eigenvalues --  -10.62665 -10.62457 -10.62283 -10.61159  -0.93119
 Alpha  occ. eigenvalues --   -0.84884  -0.69512  -0.64077  -0.54539  -0.53495
 Alpha  occ. eigenvalues --   -0.46783  -0.44896  -0.41120  -0.38105  -0.27807
 Alpha virt. eigenvalues --    0.01859   0.06963   0.07334   0.07980   0.09445
 Alpha virt. eigenvalues --    0.11692   0.12447   0.14437   0.15588   0.16206
 Alpha virt. eigenvalues --    0.18553   0.20011   0.21468   0.22712   0.24109

 Mulliken charges:
               1
     1  C   -0.167468
     2  C   -0.035105
     3  C   -0.025601
     4  C   -0.179088
     5  H    0.091770
     6  H    0.053159
     7  H    0.055368
     8  H    0.055656
     9  H    0.068538
    10  H    0.082770
 Sum of Mulliken charges =   0.00000

 Dipole moment (field-independent basis, Debye):
    X=              0.0004    Y=             -0.0684    Z=              0.0790  Tot=              0.1045
 Quadrupole moment (field-independent basis, Debye-Ang):
   XX=            -23.6484   YY=            -23.1988   ZZ=            -29.2815
   XY=             -0.1923   XZ=             -0.1157   YZ=             -0.1437

 1\1\GINC-NODE05\SP\RB2PLYPD3-FC\def2QZVP\C4H6\BOITTIER\26-Aug-2020\0\\
 #p B2PLYPD3/Def2QZVP\\butadiene\\0,1\C,0,-3.828161,0.228513,-0.016776\
 C,0,-2.729075,-0.521412,0.087101\C,0,-1.391991,0.059941,0.03119\C,0,-0
 .264427,-0.639912,0.01263\H,0,-4.860453,-0.187969,0.043085\H,0,-3.6248
 08,1.360935,-0.127264\H,0,-2.816854,-1.601893,0.095915\H,0,-1.369287,1
 .128618,0.086526\H,0,-0.277852,-1.693496,-0.117764\H,0,0.708951,-0.157
 377,0.01602\\Version=ES64L-G09RevD.01\State=1-A\HF=-155.6938322\MP2=-1
 55.9200121\RMSD=6.700e-09\PG=C01 [X(C4H6)]\\@

 Normal termination of Gaussian 09 at Wed Aug 26 11:38:10 2020.
