 Gaussian 09, Revision D.01,
 Gaussian 09:  ES64L-G09RevD.01 24-Apr-2013

 --------------------
 #p B2PLYPD3/Def2QZVP
 --------------------

 ---------
 butadiene
 ---------
 Symbolic Z-matrix:
 Charge =  0 Multiplicity = 1

                         Standard orientation:
 ---------------------------------------------------------------------
 Center     Atomic      Atomic             Coordinates (Angstroms)
 Number     Number       Type             X           Y           Z
 ---------------------------------------------------------------------
      1          6           0       -1.833236   -0.116392    0.000780
      2          6           0       -0.606319    0.395856   -0.019211
      3          6           0        0.611099   -0.400279   -0.017348
      4          6           0        1.836292    0.110374    0.016944
      5          1           0       -2.668135    0.553987    0.047962
      6          1           0       -2.040087   -1.172028    0.072011
      7          1           0       -0.489770    1.469356   -0.039538
      8          1           0        0.505316   -1.469373   -0.014600
      9          1           0        1.956185    1.186578    0.065954
     10          1           0        2.689469   -0.505870   -0.018781
 ---------------------------------------------------------------------

 SCF Done:  E(RB2PLYPD3) =  -155.700881592     A.U. after   11 cycles
 E2(B2PLYPD3) =    -0.2250718565D+00 E(B2PLYPD3) =    -0.15592595344827D+03

 The electronic state is 1-A.
 Alpha  occ. eigenvalues --  -10.62348 -10.62125 -10.61212 -10.61012  -0.93123
 Alpha  occ. eigenvalues --   -0.85266  -0.70235  -0.64214  -0.54897  -0.54213
 Alpha  occ. eigenvalues --   -0.46811  -0.45711  -0.41276  -0.38163  -0.27793
 Alpha virt. eigenvalues --    0.01916   0.07037   0.07483   0.08112   0.09697
 Alpha virt. eigenvalues --    0.11743   0.12426   0.14831   0.15850   0.16218
 Alpha virt. eigenvalues --    0.18778   0.20391   0.21706   0.22788   0.24099

 Mulliken charges:
               1
     1  C   -0.175332
     2  C   -0.032259
     3  C   -0.028127
     4  C   -0.177673
     5  H    0.082194
     6  H    0.069467
     7  H    0.054807
     8  H    0.054222
     9  H    0.062855
    10  H    0.089846
 Sum of Mulliken charges =   0.00000

 Dipole moment (field-independent basis, Debye):
    X=              0.0019    Y=             -0.0188    Z=              0.0829  Tot=              0.0850
 Quadrupole moment (field-independent basis, Debye-Ang):
   XX=            -23.5868   YY=            -22.9966   ZZ=            -29.1545
   XY=              0.0392   XZ=             -0.2214   YZ=              0.0061

 1\1\GINC-NODE22\SP\RB2PLYPD3-FC\def2QZVP\C4H6\BOITTIER\26-Aug-2020\0\\
 #p B2PLYPD3/Def2QZVP\\butadiene\\0,1\C,0,-3.836141,0.225798,0.012245\C
 ,0,-2.720418,-0.496507,0.05176\C,0,-1.380378,0.068982,0.030434\C,0,-0.
 266169,-0.65307,0.015636\H,0,-4.777445,-0.285799,-0.017863\H,0,-3.8512
 41,1.298793,-0.091111\H,0,-2.797455,-1.572466,0.104451\H,0,-1.293502,1
 .139211,-0.004518\H,0,-0.34053,-1.734361,-0.000886\H,0,0.683427,-0.198
 32,0.035969\\Version=ES64L-G09RevD.01\State=1-A\HF=-155.7008816\MP2=-1
 55.9259534\RMSD=2.910e-09\PG=C01 [X(C4H6)]\\@

 Normal termination of Gaussian 09 at Wed Aug 26 18:39:44 2020.
