 Gaussian 09, Revision D.01,
 Gaussian 09:  ES64L-G09RevD.01 24-Apr-2013

 --------------------
 #p B2PLYPD3/Def2QZVP
 --------------------

 ---------
 butadiene
 ---------
 Symbolic Z-matrix:
 Charge =  0 Multiplicity = 1

                         Standard orientation:
 ---------------------------------------------------------------------
 Center     Atomic      Atomic             Coordinates (Angstroms)
 Number     Number       Type             X           Y           Z
 ---------------------------------------------------------------------
      1          6           0        1.839593   -0.156321    0.096106
      2          6           0        0.601423    0.469079   -0.109231
      3          6           0       -0.581292   -0.357877   -0.055951
      4          6           0       -1.852542    0.058714    0.052977
      5          1           0        2.711048    0.502920   -0.042016
      6          1           0        1.864140   -1.216418    0.148946
      7          1           0        0.425407    1.508114   -0.050637
      8          1           0       -0.303677   -1.448165   -0.197299
      9          1           0       -1.985910    1.087286    0.233470
     10          1           0       -2.754100   -0.515307    0.004132
 ---------------------------------------------------------------------

 SCF Done:  E(RB2PLYPD3) =  -155.681156904     A.U. after   12 cycles
 E2(B2PLYPD3) =    -0.2282946459D+00 E(B2PLYPD3) =    -0.15590945155035D+03

 The electronic state is 1-A.
 Alpha  occ. eigenvalues --  -10.63219 -10.62915 -10.62833 -10.61163  -0.92799
 Alpha  occ. eigenvalues --   -0.84085  -0.70700  -0.64445  -0.54584  -0.53391
 Alpha  occ. eigenvalues --   -0.47387  -0.45485  -0.41128  -0.37472  -0.26996
 Alpha virt. eigenvalues --    0.00498   0.07039   0.07388   0.08031   0.09188
 Alpha virt. eigenvalues --    0.11703   0.12499   0.14774   0.15440   0.16142
 Alpha virt. eigenvalues --    0.18945   0.19687   0.21838   0.22356   0.23374

 Mulliken charges:
               1
     1  C   -0.173510
     2  C   -0.053746
     3  C   -0.004769
     4  C   -0.187906
     5  H    0.087635
     6  H    0.077961
     7  H    0.067011
     8  H    0.038533
     9  H    0.057066
    10  H    0.091726
 Sum of Mulliken charges =   0.00000

 Dipole moment (field-independent basis, Debye):
    X=              0.0211    Y=              0.0779    Z=             -0.0064  Tot=              0.0810
 Quadrupole moment (field-independent basis, Debye-Ang):
   XX=            -23.6727   YY=            -23.2828   ZZ=            -29.3993
   XY=             -0.2643   XZ=             -0.2288   YZ=              0.1747

 1\1\GINC-NODE34\SP\RB2PLYPD3-FC\def2QZVP\C4H6\BOITTIER\26-Aug-2020\0\\
 #p B2PLYPD3/Def2QZVP\\butadiene\\0,1\C,0,-3.829049,0.282954,0.107589\C
 ,0,-2.728356,-0.56706,-0.072147\C,0,-1.412858,0.027786,-0.038494\C,0,-
 0.240719,-0.61344,0.089602\H,0,-4.80767,-0.207464,-0.014483\H,0,-3.656
 714,1.33038,0.127563\H,0,-2.747854,-1.618371,0.019366\H,0,-1.48377,1.1
 45668,-0.214812\H,0,-0.30009,-1.642764,0.302419\H,0,0.751545,-0.218144
 ,0.027579\\Version=ES64L-G09RevD.01\State=1-A\HF=-155.6811569\MP2=-155
 .9094516\RMSD=6.274e-09\PG=C01 [X(C4H6)]\\@

 Normal termination of Gaussian 09 at Wed Aug 26 13:57:08 2020.
