 Gaussian 09, Revision D.01,
 Gaussian 09:  ES64L-G09RevD.01 24-Apr-2013

 --------------------
 #p B2PLYPD3/Def2QZVP
 --------------------

 ---------
 butadiene
 ---------
 Symbolic Z-matrix:
 Charge =  0 Multiplicity = 1

                         Standard orientation:
 ---------------------------------------------------------------------
 Center     Atomic      Atomic             Coordinates (Angstroms)
 Number     Number       Type             X           Y           Z
 ---------------------------------------------------------------------
      1          6           0       -1.820901    0.069978    0.076000
      2          6           0       -0.557131   -0.367927   -0.103976
      3          6           0        0.582822    0.435987   -0.045254
      4          6           0        1.793556   -0.120978    0.041027
      5          1           0       -2.721387   -0.603234   -0.045235
      6          1           0       -2.120415    1.081255    0.137371
      7          1           0       -0.280877   -1.345565   -0.017859
      8          1           0        0.471129    1.535636   -0.077971
      9          1           0        1.922749   -1.190762    0.171415
     10          1           0        2.738723    0.420305    0.025496
 ---------------------------------------------------------------------

 SCF Done:  E(RB2PLYPD3) =  -155.684364413     A.U. after   11 cycles
 E2(B2PLYPD3) =    -0.2266706974D+00 E(B2PLYPD3) =    -0.15591103511069D+03

 The electronic state is 1-A.
 Alpha  occ. eigenvalues --  -10.62256 -10.61997 -10.61716 -10.61599  -0.94272
 Alpha  occ. eigenvalues --   -0.84325  -0.71016  -0.64977  -0.55233  -0.53502
 Alpha  occ. eigenvalues --   -0.46873  -0.45097  -0.41544  -0.38474  -0.27132
 Alpha virt. eigenvalues --    0.00955   0.06987   0.07448   0.08115   0.09547
 Alpha virt. eigenvalues --    0.11723   0.12591   0.14962   0.15560   0.16366
 Alpha virt. eigenvalues --    0.18949   0.19723   0.22086   0.22904   0.23346

 Mulliken charges:
               1
     1  C   -0.171037
     2  C   -0.039876
     3  C   -0.010330
     4  C   -0.179218
     5  H    0.070070
     6  H    0.066802
     7  H    0.071073
     8  H    0.054534
     9  H    0.057168
    10  H    0.080814
 Sum of Mulliken charges =   0.00000

 Dipole moment (field-independent basis, Debye):
    X=              0.1094    Y=              0.0497    Z=              0.0690  Tot=              0.1386
 Quadrupole moment (field-independent basis, Debye-Ang):
   XX=            -23.3271   YY=            -23.4292   ZZ=            -29.1213
   XY=             -0.6418   XZ=              0.1769   YZ=             -0.0885

 1\1\GINC-NODE39\SP\RB2PLYPD3-FC\def2QZVP\C4H6\BOITTIER\26-Aug-2020\0\\
 #p B2PLYPD3/Def2QZVP\\butadiene\\0,1\C,0,-3.82483,0.208544,0.094242\C,
 0,-2.670843,-0.4741,-0.05931\C,0,-1.396539,0.095878,-0.03713\C,0,-0.31
 5913,-0.679891,0.081028\H,0,-4.83931,-0.282835,0.00388\H,0,-3.922627,1
 .260446,0.103837\H,0,-2.588412,-1.481192,0.076631\H,0,-1.293573,1.1933
 29,-0.125302\H,0,-0.395306,-1.746599,0.26531\H,0,0.716001,-0.333243,0.
 04156\\Version=ES64L-G09RevD.01\State=1-A\HF=-155.6843644\MP2=-155.911
 0351\RMSD=8.785e-09\PG=C01 [X(C4H6)]\\@

 Normal termination of Gaussian 09 at Wed Aug 26 15:15:27 2020.
