 Gaussian 09, Revision D.01,
 Gaussian 09:  ES64L-G09RevD.01 24-Apr-2013

 --------------------
 #p B2PLYPD3/Def2QZVP
 --------------------

 ---------
 butadiene
 ---------
 Symbolic Z-matrix:
 Charge =  0 Multiplicity = 1

                         Standard orientation:
 ---------------------------------------------------------------------
 Center     Atomic      Atomic             Coordinates (Angstroms)
 Number     Number       Type             X           Y           Z
 ---------------------------------------------------------------------
      1          6           0       -1.856726    0.098410    0.038951
      2          6           0       -0.602914   -0.371910   -0.032494
      3          6           0        0.604897    0.422823   -0.041823
      4          6           0        1.832599   -0.131326    0.021919
      5          1           0       -2.669243   -0.600651   -0.023827
      6          1           0       -2.109419    1.115891    0.014021
      7          1           0       -0.409921   -1.471756    0.043225
      8          1           0        0.559135    1.526737   -0.026062
      9          1           0        2.042662   -1.179487   -0.038410
     10          1           0        2.719652    0.501279    0.111737
 ---------------------------------------------------------------------

 SCF Done:  E(RB2PLYPD3) =  -155.695913228     A.U. after   11 cycles
 E2(B2PLYPD3) =    -0.2263432754D+00 E(B2PLYPD3) =    -0.15592225650380D+03

 The electronic state is 1-A.
 Alpha  occ. eigenvalues --  -10.63005 -10.62929 -10.61785 -10.61140  -0.92799
 Alpha  occ. eigenvalues --   -0.84773  -0.70558  -0.63806  -0.54363  -0.54228
 Alpha  occ. eigenvalues --   -0.46260  -0.45793  -0.41112  -0.38030  -0.27457
 Alpha virt. eigenvalues --    0.01355   0.06983   0.07410   0.07952   0.09499
 Alpha virt. eigenvalues --    0.11603   0.12447   0.14906   0.15679   0.16289
 Alpha virt. eigenvalues --    0.18830   0.20005   0.21892   0.23081   0.23573

 Mulliken charges:
               1
     1  C   -0.176999
     2  C   -0.029467
     3  C   -0.031347
     4  C   -0.174321
     5  H    0.082984
     6  H    0.072278
     7  H    0.053356
     8  H    0.055884
     9  H    0.069398
    10  H    0.078234
 Sum of Mulliken charges =   0.00000

 Dipole moment (field-independent basis, Debye):
    X=              0.0781    Y=              0.0213    Z=              0.0078  Tot=              0.0813
 Quadrupole moment (field-independent basis, Debye-Ang):
   XX=            -23.4498   YY=            -23.0685   ZZ=            -29.3259
   XY=             -0.3803   XZ=              0.2769   YZ=              0.0700

 1\1\GINC-NODE40\SP\RB2PLYPD3-FC\def2QZVP\C4H6\BOITTIER\26-Aug-2020\0\\
 #p B2PLYPD3/Def2QZVP\\butadiene\\0,1\C,0,-3.85824,0.217239,0.055475\C,
 0,-2.710489,-0.474318,0.002878\C,0,-1.378721,0.087879,-0.025797\C,0,-0
 .271594,-0.677268,0.059151\H,0,-4.784051,-0.324682,0.010681\H,0,-3.922
 493,1.262433,-0.000947\H,0,-2.719778,-1.588131,0.112316\H,0,-1.223738,
 1.18179,-0.043368\H,0,-0.254973,-1.747476,0.031115\H,0,0.71553,-0.2133
 56,0.133247\\Version=ES64L-G09RevD.01\State=1-A\HF=-155.6959132\MP2=-1
 55.9222565\RMSD=5.313e-09\PG=C01 [X(C4H6)]\\@

 Normal termination of Gaussian 09 at Wed Aug 26 10:14:15 2020.
