 Gaussian 09, Revision D.01,
 Gaussian 09:  ES64L-G09RevD.01 24-Apr-2013

 --------------------
 #p B2PLYPD3/Def2QZVP
 --------------------

 ---------
 butadiene
 ---------
 Symbolic Z-matrix:
 Charge =  0 Multiplicity = 1

                         Standard orientation:
 ---------------------------------------------------------------------
 Center     Atomic      Atomic             Coordinates (Angstroms)
 Number     Number       Type             X           Y           Z
 ---------------------------------------------------------------------
      1          6           0        1.827083   -0.139478   -0.058253
      2          6           0        0.638110    0.399978    0.026495
      3          6           0       -0.600786   -0.310233    0.118962
      4          6           0       -1.876520    0.080790   -0.090596
      5          1           0        2.675412    0.505059   -0.182868
      6          1           0        1.923371   -1.292435    0.028548
      7          1           0        0.619918    1.528790    0.176896
      8          1           0       -0.396322   -1.365576    0.106879
      9          1           0       -2.109609    1.113164    0.047025
     10          1           0       -2.640099   -0.675343   -0.156127
 ---------------------------------------------------------------------

 SCF Done:  E(RB2PLYPD3) =  -155.682436765     A.U. after   12 cycles
 E2(B2PLYPD3) =    -0.2267411804D+00 E(B2PLYPD3) =    -0.15590917794526D+03

 The electronic state is 1-A.
 Alpha  occ. eigenvalues --  -10.62558 -10.62379 -10.62107 -10.61712  -0.93443
 Alpha  occ. eigenvalues --   -0.85337  -0.70722  -0.62801  -0.54617  -0.53769
 Alpha  occ. eigenvalues --   -0.47134  -0.45268  -0.40984  -0.37502  -0.27863
 Alpha virt. eigenvalues --    0.01245   0.06957   0.07239   0.07882   0.09867
 Alpha virt. eigenvalues --    0.11630   0.12135   0.14659   0.15329   0.16376
 Alpha virt. eigenvalues --    0.18451   0.19411   0.21123   0.23134   0.24269

 Mulliken charges:
               1
     1  C   -0.176245
     2  C   -0.011432
     3  C   -0.037079
     4  C   -0.174904
     5  H    0.094080
     6  H    0.060775
     7  H    0.038670
     8  H    0.042839
     9  H    0.075542
    10  H    0.087753
 Sum of Mulliken charges =   0.00000

 Dipole moment (field-independent basis, Debye):
    X=              0.1061    Y=              0.0109    Z=              0.1165  Tot=              0.1580
 Quadrupole moment (field-independent basis, Debye-Ang):
   XX=            -23.6117   YY=            -23.3855   ZZ=            -29.1700
   XY=              0.2497   XZ=             -0.0084   YZ=              0.1824

 1\1\GINC-NODE09\SP\RB2PLYPD3-FC\def2QZVP\C4H6\BOITTIER\26-Aug-2020\0\\
 #p B2PLYPD3/Def2QZVP\\butadiene\\0,1\C,0,-3.827342,0.241968,-0.044088\
 C,0,-2.750464,-0.491326,0.076181\C,0,-1.405502,-0.005062,0.125551\C,0,
 -0.220042,-0.626049,-0.057122\H,0,-4.776599,-0.250274,-0.129109\H,0,-3
 .71938,1.397072,-0.030185\H,0,-2.928802,-1.594248,0.297375\H,0,-1.4220
 85,1.066953,0.046754\H,0,-0.170047,-1.672705,0.145559\H,0,0.663495,-0.
 021131,-0.169017\\Version=ES64L-G09RevD.01\State=1-A\HF=-155.6824368\M
 P2=-155.9091779\RMSD=2.743e-09\PG=C01 [X(C4H6)]\\@

 Normal termination of Gaussian 09 at Wed Aug 26 13:19:27 2020.
