 Gaussian 09, Revision D.01,
 Gaussian 09:  ES64L-G09RevD.01 24-Apr-2013

 --------------------
 #p B2PLYPD3/Def2QZVP
 --------------------

 ---------
 butadiene
 ---------
 Symbolic Z-matrix:
 Charge =  0 Multiplicity = 1

                         Standard orientation:
 ---------------------------------------------------------------------
 Center     Atomic      Atomic             Coordinates (Angstroms)
 Number     Number       Type             X           Y           Z
 ---------------------------------------------------------------------
      1          6           0       -1.840844    0.115315   -0.010854
      2          6           0       -0.618002   -0.410606    0.011946
      3          6           0        0.599423    0.367604    0.036000
      4          6           0        1.844045   -0.091847   -0.025772
      5          1           0       -2.725270   -0.490880   -0.060259
      6          1           0       -2.008662    1.183340    0.056343
      7          1           0       -0.446020   -1.461997   -0.031315
      8          1           0        0.499961    1.476690   -0.065054
      9          1           0        2.103525   -1.182648    0.068616
     10          1           0        2.668732    0.592700   -0.036252
 ---------------------------------------------------------------------

 SCF Done:  E(RB2PLYPD3) =  -155.697317099     A.U. after   11 cycles
 E2(B2PLYPD3) =    -0.2257515902D+00 E(B2PLYPD3) =    -0.15592306868955D+03

 The electronic state is 1-A.
 Alpha  occ. eigenvalues --  -10.62569 -10.62382 -10.61719 -10.61582  -0.93126
 Alpha  occ. eigenvalues --   -0.85078  -0.70481  -0.63586  -0.54914  -0.53673
 Alpha  occ. eigenvalues --   -0.47181  -0.45164  -0.40575  -0.38311  -0.27853
 Alpha virt. eigenvalues --    0.01636   0.07016   0.07375   0.08028   0.09714
 Alpha virt. eigenvalues --    0.11605   0.12355   0.14804   0.15667   0.16195
 Alpha virt. eigenvalues --    0.18859   0.19992   0.21822   0.22670   0.23952

 Mulliken charges:
               1
     1  C   -0.168561
     2  C   -0.038366
     3  C   -0.020079
     4  C   -0.175912
     5  H    0.085687
     6  H    0.068368
     7  H    0.058794
     8  H    0.045784
     9  H    0.059276
    10  H    0.085009
 Sum of Mulliken charges =   0.00000

 Dipole moment (field-independent basis, Debye):
    X=             -0.0483    Y=             -0.0020    Z=             -0.0174  Tot=              0.0514
 Quadrupole moment (field-independent basis, Debye-Ang):
   XX=            -23.3208   YY=            -23.2445   ZZ=            -29.2285
   XY=             -0.1875   XZ=              0.0772   YZ=             -0.0561

 1\1\GINC-NODE01\SP\RB2PLYPD3-FC\def2QZVP\C4H6\BOITTIER\26-Aug-2020\0\\
 #p B2PLYPD3/Def2QZVP\\butadiene\\0,1\C,0,-3.838981,0.234748,0.00313\C,
 0,-2.73226,-0.503881,0.048435\C,0,-1.393399,0.039958,0.047114\C,0,-0.2
 53506,-0.640417,0.005522\H,0,-4.819195,-0.201639,-0.02632\H,0,-3.80924
 5,1.317206,0.030641\H,0,-2.754775,-1.569877,0.044244\H,0,-1.289663,1.1
 44161,-0.094839\H,0,-0.196598,-1.756039,0.140563\H,0,0.68199,-0.118352
 ,-0.027906\\Version=ES64L-G09RevD.01\State=1-A\HF=-155.6973171\MP2=-15
 5.9230687\RMSD=5.672e-09\PG=C01 [X(C4H6)]\\@

 Normal termination of Gaussian 09 at Wed Aug 26 08:57:30 2020.
