 Gaussian 09, Revision D.01,
 Gaussian 09:  ES64L-G09RevD.01 24-Apr-2013

 --------------------
 #p B2PLYPD3/Def2QZVP
 --------------------

 ---------
 butadiene
 ---------
 Symbolic Z-matrix:
 Charge =  0 Multiplicity = 1

                         Standard orientation:
 ---------------------------------------------------------------------
 Center     Atomic      Atomic             Coordinates (Angstroms)
 Number     Number       Type             X           Y           Z
 ---------------------------------------------------------------------
      1          6           0        1.840810    0.107739    0.014149
      2          6           0        0.615778   -0.385857   -0.032466
      3          6           0       -0.614187    0.412456   -0.077272
      4          6           0       -1.831626   -0.120818    0.034777
      5          1           0        2.675324   -0.544143    0.107978
      6          1           0        1.947404    1.183573    0.125547
      7          1           0        0.510079   -1.485816   -0.059794
      8          1           0       -0.457251    1.517443    0.008463
      9          1           0       -1.923960   -1.219200    0.085820
     10          1           0       -2.816248    0.467023    0.096859
 ---------------------------------------------------------------------

 SCF Done:  E(RB2PLYPD3) =  -155.693292532     A.U. after   11 cycles
 E2(B2PLYPD3) =    -0.2263491717D+00 E(B2PLYPD3) =    -0.15591964170389D+03

 The electronic state is 1-A.
 Alpha  occ. eigenvalues --  -10.63161 -10.62639 -10.62565 -10.61057  -0.92929
 Alpha  occ. eigenvalues --   -0.85057  -0.69394  -0.63414  -0.54589  -0.53285
 Alpha  occ. eigenvalues --   -0.46852  -0.44784  -0.40608  -0.38180  -0.28013
 Alpha virt. eigenvalues --    0.01894   0.06967   0.07204   0.07905   0.09464
 Alpha virt. eigenvalues --    0.11639   0.12432   0.14392   0.15524   0.16348
 Alpha virt. eigenvalues --    0.18713   0.19807   0.21679   0.22574   0.24019

 Mulliken charges:
               1
     1  C   -0.176115
     2  C   -0.019163
     3  C   -0.034505
     4  C   -0.162823
     5  H    0.089270
     6  H    0.061219
     7  H    0.044988
     8  H    0.051310
     9  H    0.062111
    10  H    0.083708
 Sum of Mulliken charges =   0.00000

 Dipole moment (field-independent basis, Debye):
    X=             -0.0473    Y=             -0.0465    Z=              0.2642  Tot=              0.2724
 Quadrupole moment (field-independent basis, Debye-Ang):
   XX=            -23.5754   YY=            -23.2558   ZZ=            -29.3236
   XY=             -0.0850   XZ=              0.0527   YZ=              0.1320

 1\1\GINC-NODE40\SP\RB2PLYPD3-FC\def2QZVP\C4H6\BOITTIER\26-Aug-2020\0\\
 #p B2PLYPD3/Def2QZVP\\butadiene\\0,1\C,0,-3.845093,0.210088,-0.004174\
 C,0,-2.724778,-0.487631,0.063621\C,0,-1.374211,0.084894,0.081213\C,0,-
 0.268987,-0.656456,-0.008075\H,0,-4.780943,-0.289195,-0.075363\H,0,-3.
 762833,1.283103,-0.156039\H,0,-2.812495,-1.587361,0.132378\H,0,-1.3363
 22,1.196336,-0.046212\H,0,-0.369929,-1.755224,-0.017723\H,0,0.802815,-
 0.252194,-0.089954\\Version=ES64L-G09RevD.01\State=1-A\HF=-155.6932925
 \MP2=-155.9196417\RMSD=4.739e-09\PG=C01 [X(C4H6)]\\@

 Normal termination of Gaussian 09 at Wed Aug 26 08:49:03 2020.
