 Gaussian 09, Revision D.01,
 Gaussian 09:  ES64L-G09RevD.01 24-Apr-2013

 --------------------
 #p B2PLYPD3/Def2QZVP
 --------------------

 ---------
 butadiene
 ---------
 Symbolic Z-matrix:
 Charge =  0 Multiplicity = 1

                         Standard orientation:
 ---------------------------------------------------------------------
 Center     Atomic      Atomic             Coordinates (Angstroms)
 Number     Number       Type             X           Y           Z
 ---------------------------------------------------------------------
      1          6           0        1.845576   -0.114466   -0.011238
      2          6           0        0.609030    0.392176    0.010383
      3          6           0       -0.605510   -0.410821    0.020576
      4          6           0       -1.842405    0.116123   -0.019712
      5          1           0        2.656698    0.589117   -0.026558
      6          1           0        2.052562   -1.144231    0.004120
      7          1           0        0.454344    1.448532   -0.017441
      8          1           0       -0.488057   -1.479235    0.029587
      9          1           0       -1.979683    1.204104    0.073806
     10          1           0       -2.736008   -0.516353   -0.063569
 ---------------------------------------------------------------------

 SCF Done:  E(RB2PLYPD3) =  -155.699158719     A.U. after   11 cycles
 E2(B2PLYPD3) =    -0.2257749351D+00 E(B2PLYPD3) =    -0.15592493365407D+03

 The electronic state is 1-A.
 Alpha  occ. eigenvalues --  -10.62493 -10.62323 -10.61977 -10.61096  -0.92912
 Alpha  occ. eigenvalues --   -0.84839  -0.70182  -0.64411  -0.54341  -0.54172
 Alpha  occ. eigenvalues --   -0.46634  -0.45953  -0.41305  -0.37949  -0.27562
 Alpha virt. eigenvalues --    0.01637   0.06976   0.07492   0.08092   0.09513
 Alpha virt. eigenvalues --    0.11748   0.12340   0.14823   0.15844   0.16070
 Alpha virt. eigenvalues --    0.18734   0.20477   0.21475   0.22983   0.24033

 Mulliken charges:
               1
     1  C   -0.181459
     2  C   -0.029294
     3  C   -0.034472
     4  C   -0.177046
     5  H    0.083719
     6  H    0.075104
     7  H    0.057175
     8  H    0.056404
     9  H    0.064492
    10  H    0.085377
 Sum of Mulliken charges =   0.00000

 Dipole moment (field-independent basis, Debye):
    X=              0.0059    Y=             -0.0250    Z=              0.0274  Tot=              0.0375
 Quadrupole moment (field-independent basis, Debye-Ang):
   XX=            -23.6752   YY=            -22.9676   ZZ=            -29.2829
   XY=             -0.1628   XZ=             -0.0385   YZ=              0.0597

 1\1\GINC-NODE13\SP\RB2PLYPD3-FC\def2QZVP\C4H6\BOITTIER\26-Aug-2020\0\\
 #p B2PLYPD3/Def2QZVP\\butadiene\\0,1\C,0,-3.846669,0.227216,0.005738\C
 ,0,-2.721274,-0.49254,0.046197\C,0,-1.382142,0.078937,0.0337\C,0,-0.26
 0268,-0.662796,0.012925\H,0,-4.771104,-0.319206,0.010875\H,0,-3.865116
 ,1.277377,-0.012\H,0,-2.759098,-1.559837,0.052199\H,0,-1.30559,1.15080
 2,0.008596\H,0,-0.32048,-1.754227,0.14117\H,0,0.732316,-0.202983,-0.04
 8921\\Version=ES64L-G09RevD.01\State=1-A\HF=-155.6991587\MP2=-155.9249
 337\RMSD=4.143e-09\PG=C01 [X(C4H6)]\\@

 Normal termination of Gaussian 09 at Wed Aug 26 12:05:33 2020.
