 Gaussian 09, Revision D.01,
 Gaussian 09:  ES64L-G09RevD.01 24-Apr-2013

 --------------------
 #p B2PLYPD3/Def2QZVP
 --------------------

 ---------
 butadiene
 ---------
 Symbolic Z-matrix:
 Charge =  0 Multiplicity = 1

                         Standard orientation:
 ---------------------------------------------------------------------
 Center     Atomic      Atomic             Coordinates (Angstroms)
 Number     Number       Type             X           Y           Z
 ---------------------------------------------------------------------
      1          6           0       -1.844293    0.098806    0.003340
      2          6           0       -0.597393   -0.386431   -0.001392
      3          6           0        0.606196    0.394881   -0.008026
      4          6           0        1.836327   -0.114446   -0.010137
      5          1           0       -2.719028   -0.519384   -0.018269
      6          1           0       -2.025501    1.173131    0.029029
      7          1           0       -0.471327   -1.441678   -0.014086
      8          1           0        0.508382    1.469289    0.020160
      9          1           0        2.015349   -1.169205    0.076078
     10          1           0        2.687097    0.530989    0.004377
 ---------------------------------------------------------------------

 SCF Done:  E(RB2PLYPD3) =  -155.700676709     A.U. after   11 cycles
 E2(B2PLYPD3) =    -0.2253600422D+00 E(B2PLYPD3) =    -0.15592603675162D+03

 The electronic state is 1-A.
 Alpha  occ. eigenvalues --  -10.62240 -10.62147 -10.61515 -10.61212  -0.93297
 Alpha  occ. eigenvalues --   -0.85051  -0.70618  -0.64365  -0.54900  -0.54239
 Alpha  occ. eigenvalues --   -0.46842  -0.45632  -0.41359  -0.38293  -0.27602
 Alpha virt. eigenvalues --    0.01557   0.07009   0.07544   0.08090   0.09822
 Alpha virt. eigenvalues --    0.11683   0.12494   0.14828   0.15894   0.16261
 Alpha virt. eigenvalues --    0.18842   0.20597   0.21692   0.22694   0.23826

 Mulliken charges:
               1
     1  C   -0.175143
     2  C   -0.031620
     3  C   -0.026549
     4  C   -0.175796
     5  H    0.086879
     6  H    0.061565
     7  H    0.056089
     8  H    0.053783
     9  H    0.066483
    10  H    0.084308
 Sum of Mulliken charges =   0.00000

 Dipole moment (field-independent basis, Debye):
    X=              0.0138    Y=             -0.0056    Z=              0.0873  Tot=              0.0886
 Quadrupole moment (field-independent basis, Debye-Ang):
   XX=            -23.3248   YY=            -23.1667   ZZ=            -29.1687
   XY=             -0.0701   XZ=              0.2012   YZ=              0.0017

 1\1\GINC-NODE09\SP\RB2PLYPD3-FC\def2QZVP\C4H6\BOITTIER\26-Aug-2020\0\\
 #p B2PLYPD3/Def2QZVP\\butadiene\\0,1\C,0,-3.848197,0.216367,0.020738\C
 ,0,-2.709544,-0.486142,0.03442\C,0,-1.38458,0.06426,0.009007\C,0,-0.26
 6768,-0.658825,0.025958\H,0,-4.820298,-0.233929,0.014261\H,0,-3.8322,1
 .306034,0.014377\H,0,-2.776302,-1.546706,0.053026\H,0,-1.286542,1.1390
 11,0.005421\H,0,-0.281161,-1.725573,0.143594\H,0,0.686672,-0.177622,0.
 024464\\Version=ES64L-G09RevD.01\State=1-A\HF=-155.7006767\MP2=-155.92
 60368\RMSD=2.728e-09\PG=C01 [X(C4H6)]\\@

 Normal termination of Gaussian 09 at Wed Aug 26 21:50:00 2020.
