 Gaussian 09, Revision D.01,
 Gaussian 09:  ES64L-G09RevD.01 24-Apr-2013

 --------------------
 #p B2PLYPD3/Def2QZVP
 --------------------

 ---------
 butadiene
 ---------
 Symbolic Z-matrix:
 Charge =  0 Multiplicity = 1

                         Standard orientation:
 ---------------------------------------------------------------------
 Center     Atomic      Atomic             Coordinates (Angstroms)
 Number     Number       Type             X           Y           Z
 ---------------------------------------------------------------------
      1          6           0       -1.843646   -0.130170   -0.049858
      2          6           0       -0.609580    0.386579    0.049148
      3          6           0        0.626290   -0.323049    0.001562
      4          6           0        1.845493    0.090744   -0.000181
      5          1           0       -2.804453    0.386897    0.001343
      6          1           0       -1.964282   -1.136933   -0.184892
      7          1           0       -0.610252    1.552045    0.205243
      8          1           0        0.483204   -1.375456    0.311425
      9          1           0        2.170552    1.069754   -0.272888
     10          1           0        2.613885   -0.640927   -0.064258
 ---------------------------------------------------------------------

 SCF Done:  E(RB2PLYPD3) =  -155.678838075     A.U. after   11 cycles
 E2(B2PLYPD3) =    -0.2256866606D+00 E(B2PLYPD3) =    -0.15590452473580D+03

 The electronic state is 1-A.
 Alpha  occ. eigenvalues --  -10.63406 -10.62093 -10.61296 -10.60605  -0.93655
 Alpha  occ. eigenvalues --   -0.85902  -0.71358  -0.63191  -0.55130  -0.54569
 Alpha  occ. eigenvalues --   -0.47744  -0.44713  -0.40459  -0.37510  -0.28389
 Alpha virt. eigenvalues --    0.01402   0.07100   0.07378   0.07796   0.09843
 Alpha virt. eigenvalues --    0.11340   0.12689   0.14857   0.15124   0.16683
 Alpha virt. eigenvalues --    0.18664   0.19397   0.22109   0.22798   0.23397

 Mulliken charges:
               1
     1  C   -0.164721
     2  C   -0.037504
     3  C   -0.028360
     4  C   -0.160451
     5  H    0.085858
     6  H    0.060887
     7  H    0.042520
     8  H    0.057215
     9  H    0.067894
    10  H    0.076663
 Sum of Mulliken charges =   0.00000

 Dipole moment (field-independent basis, Debye):
    X=             -0.0619    Y=             -0.0933    Z=             -0.0329  Tot=              0.1167
 Quadrupole moment (field-independent basis, Debye-Ang):
   XX=            -22.7870   YY=            -23.8613   ZZ=            -28.8028
   XY=              0.1733   XZ=             -0.3982   YZ=             -0.1603

 1\1\GINC-NODE35\SP\RB2PLYPD3-FC\def2QZVP\C4H6\BOITTIER\26-Aug-2020\0\\
 #p B2PLYPD3/Def2QZVP\\butadiene\\0,1\C,0,-3.846386,0.239142,0.057603\C
 ,0,-2.721755,-0.488652,-0.015005\C,0,-1.380815,-0.004607,0.013135\C,0,
 -0.252729,-0.624705,0.037279\H,0,-4.882838,-0.103643,0.020238\H,0,-3.7
 89036,1.255862,0.154293\H,0,-2.926309,-1.641118,-0.127513\H,0,-1.33798
 9,1.044159,-0.336586\H,0,-0.103586,-1.634455,0.348172\H,0,0.631801,-0.
 036665,0.078405\\Version=ES64L-G09RevD.01\State=1-A\HF=-155.6788381\MP
 2=-155.9045247\RMSD=6.681e-09\PG=C01 [X(C4H6)]\\@

 Normal termination of Gaussian 09 at Wed Aug 26 10:22:23 2020.
