 Gaussian 09, Revision D.01,
 Gaussian 09:  ES64L-G09RevD.01 24-Apr-2013

 --------------------
 #p B2PLYPD3/Def2QZVP
 --------------------

 ---------
 butadiene
 ---------
 Symbolic Z-matrix:
 Charge =  0 Multiplicity = 1

                         Standard orientation:
 ---------------------------------------------------------------------
 Center     Atomic      Atomic             Coordinates (Angstroms)
 Number     Number       Type             X           Y           Z
 ---------------------------------------------------------------------
      1          6           0        1.831599    0.107716    0.022624
      2          6           0        0.610346   -0.400256   -0.009261
      3          6           0       -0.604133    0.415850   -0.020450
      4          6           0       -1.831952   -0.113818    0.008539
      5          1           0        2.691920   -0.531648    0.005772
      6          1           0        1.975257    1.182105   -0.009345
      7          1           0        0.468166   -1.485100   -0.039257
      8          1           0       -0.487892    1.514389   -0.036566
      9          1           0       -1.954875   -1.217384    0.001644
     10          1           0       -2.727737    0.480681    0.069038
 ---------------------------------------------------------------------

 SCF Done:  E(RB2PLYPD3) =  -155.700081316     A.U. after   11 cycles
 E2(B2PLYPD3) =    -0.2257433995D+00 E(B2PLYPD3) =    -0.15592582471509D+03

 The electronic state is 1-A.
 Alpha  occ. eigenvalues --  -10.62831 -10.62485 -10.61762 -10.61182  -0.92930
 Alpha  occ. eigenvalues --   -0.84993  -0.69748  -0.63729  -0.54638  -0.53788
 Alpha  occ. eigenvalues --   -0.46679  -0.45258  -0.41107  -0.38092  -0.27815
 Alpha virt. eigenvalues --    0.01986   0.07051   0.07253   0.08054   0.09503
 Alpha virt. eigenvalues --    0.11688   0.12447   0.14552   0.15901   0.16113
 Alpha virt. eigenvalues --    0.18713   0.20477   0.21448   0.22959   0.23897

 Mulliken charges:
               1
     1  C   -0.175442
     2  C   -0.025320
     3  C   -0.032464
     4  C   -0.173309
     5  H    0.087288
     6  H    0.065838
     7  H    0.052577
     8  H    0.052243
     9  H    0.060239
    10  H    0.088350
 Sum of Mulliken charges =   0.00000

 Dipole moment (field-independent basis, Debye):
    X=             -0.0050    Y=              0.0047    Z=             -0.0292  Tot=              0.0300
 Quadrupole moment (field-independent basis, Debye-Ang):
   XX=            -23.5793   YY=            -23.0577   ZZ=            -29.2987
   XY=              0.0169   XZ=             -0.2375   YZ=              0.0324

 1\1\GINC-NODE18\SP\RB2PLYPD3-FC\def2QZVP\C4H6\BOITTIER\26-Aug-2020\0\\
 #p B2PLYPD3/Def2QZVP\\butadiene\\0,1\C,0,-3.834574,0.216938,-0.000653\
 C,0,-2.723668,-0.500137,0.046283\C,0,-1.382803,0.085544,0.033224\C,0,-
 0.269641,-0.65582,0.019957\H,0,-4.795244,-0.257458,0.035183\H,0,-3.783
 652,1.300164,-0.000591\H,0,-2.777584,-1.591571,0.108469\H,0,-1.300673,
 1.187153,0.016723\H,0,-0.345972,-1.762896,0.059609\H,0,0.717667,-0.233
 164,-0.058175\\Version=ES64L-G09RevD.01\State=1-A\HF=-155.7000813\MP2=
 -155.9258247\RMSD=3.674e-09\PG=C01 [X(C4H6)]\\@

 Normal termination of Gaussian 09 at Wed Aug 26 21:05:18 2020.
