 Gaussian 09, Revision D.01,
 Gaussian 09:  ES64L-G09RevD.01 24-Apr-2013

 --------------------
 #p B2PLYPD3/Def2QZVP
 --------------------

 ---------
 butadiene
 ---------
 Symbolic Z-matrix:
 Charge =  0 Multiplicity = 1

                         Standard orientation:
 ---------------------------------------------------------------------
 Center     Atomic      Atomic             Coordinates (Angstroms)
 Number     Number       Type             X           Y           Z
 ---------------------------------------------------------------------
      1          6           0       -1.835605   -0.124271    0.016219
      2          6           0       -0.596556    0.439346   -0.052960
      3          6           0        0.585379   -0.397873   -0.027909
      4          6           0        1.831835    0.092645    0.027252
      5          1           0       -2.762474    0.464242    0.161570
      6          1           0       -1.939882   -1.198450    0.038069
      7          1           0       -0.450552    1.511553   -0.017039
      8          1           0        0.471754   -1.442245   -0.085016
      9          1           0        2.056703    1.128884    0.006058
     10          1           0        2.714139   -0.523072    0.120744
 ---------------------------------------------------------------------

 SCF Done:  E(RB2PLYPD3) =  -155.696426976     A.U. after   11 cycles
 E2(B2PLYPD3) =    -0.2263902322D+00 E(B2PLYPD3) =    -0.15592281720827D+03

 The electronic state is 1-A.
 Alpha  occ. eigenvalues --  -10.63047 -10.62262 -10.62215 -10.61170  -0.92953
 Alpha  occ. eigenvalues --   -0.84367  -0.70208  -0.64903  -0.54500  -0.53892
 Alpha  occ. eigenvalues --   -0.46446  -0.45611  -0.41805  -0.37913  -0.27211
 Alpha virt. eigenvalues --    0.01430   0.07009   0.07482   0.08104   0.09179
 Alpha virt. eigenvalues --    0.11632   0.12648   0.14641   0.15795   0.16363
 Alpha virt. eigenvalues --    0.18773   0.20370   0.21814   0.23040   0.23830

 Mulliken charges:
               1
     1  C   -0.172164
     2  C   -0.040590
     3  C   -0.028372
     4  C   -0.177428
     5  H    0.081922
     6  H    0.066577
     7  H    0.064679
     8  H    0.064435
     9  H    0.062642
    10  H    0.078299
 Sum of Mulliken charges =   0.00000

 Dipole moment (field-independent basis, Debye):
    X=              0.0155    Y=              0.0028    Z=              0.1478  Tot=              0.1487
 Quadrupole moment (field-independent basis, Debye-Ang):
   XX=            -23.5075   YY=            -23.0776   ZZ=            -29.3064
   XY=              0.2865   XZ=             -0.2661   YZ=              0.0707

 1\1\GINC-NODE02\SP\RB2PLYPD3-FC\def2QZVP\C4H6\BOITTIER\26-Aug-2020\0\\
 #p B2PLYPD3/Def2QZVP\\butadiene\\0,1\C,0,-3.831831,0.243427,-0.006016\
 C,0,-2.71699,-0.535575,0.083306\C,0,-1.401659,0.06986,0.039885\C,0,-0.
 266294,-0.642099,0.002943\H,0,-4.851045,-0.169054,-0.13876\H,0,-3.7374
 85,1.317506,-0.05765\H,0,-2.770026,-1.616957,0.077297\H,0,-1.321867,1.
 11854,0.067957\H,0,-0.235138,-1.701011,0.053345\H,0,0.713799,-0.201311
 ,-0.103981\\Version=ES64L-G09RevD.01\State=1-A\HF=-155.696427\MP2=-155
 .9228172\RMSD=6.421e-09\PG=C01 [X(C4H6)]\\@

 Normal termination of Gaussian 09 at Wed Aug 26 09:20:24 2020.
