 Gaussian 09, Revision D.01,
 Gaussian 09:  ES64L-G09RevD.01 24-Apr-2013

 --------------------
 #p B2PLYPD3/Def2QZVP
 --------------------

 ---------
 butadiene
 ---------
 Symbolic Z-matrix:
 Charge =  0 Multiplicity = 1

                         Standard orientation:
 ---------------------------------------------------------------------
 Center     Atomic      Atomic             Coordinates (Angstroms)
 Number     Number       Type             X           Y           Z
 ---------------------------------------------------------------------
      1          6           0        1.835288    0.110239   -0.011118
      2          6           0        0.598992   -0.414470    0.002311
      3          6           0       -0.596857    0.398611    0.017763
      4          6           0       -1.837306   -0.110045   -0.019815
      5          1           0        2.705448   -0.491700    0.017096
      6          1           0        1.968073    1.178932   -0.050728
      7          1           0        0.457528   -1.480395    0.038720
      8          1           0       -0.440409    1.472800    0.067813
      9          1           0       -2.031912   -1.165646    0.007054
     10          1           0       -2.659429    0.579996   -0.014800
 ---------------------------------------------------------------------

 SCF Done:  E(RB2PLYPD3) =  -155.700424145     A.U. after   11 cycles
 E2(B2PLYPD3) =    -0.2257558217D+00 E(B2PLYPD3) =    -0.15592617996677D+03

 The electronic state is 1-A.
 Alpha  occ. eigenvalues --  -10.62477 -10.62369 -10.61363 -10.61287  -0.93046
 Alpha  occ. eigenvalues --   -0.84801  -0.70433  -0.64286  -0.54622  -0.54143
 Alpha  occ. eigenvalues --   -0.46527  -0.46062  -0.41519  -0.38029  -0.27445
 Alpha virt. eigenvalues --    0.01613   0.07048   0.07416   0.08147   0.09522
 Alpha virt. eigenvalues --    0.11754   0.12429   0.14847   0.15909   0.16061
 Alpha virt. eigenvalues --    0.18723   0.20578   0.21590   0.22982   0.23971

 Mulliken charges:
               1
     1  C   -0.179423
     2  C   -0.029051
     3  C   -0.028695
     4  C   -0.182393
     5  H    0.087876
     6  H    0.064372
     7  H    0.055774
     8  H    0.054284
     9  H    0.072312
    10  H    0.084944
 Sum of Mulliken charges =   0.00000

 Dipole moment (field-independent basis, Debye):
    X=              0.0220    Y=             -0.0118    Z=              0.0740  Tot=              0.0780
 Quadrupole moment (field-independent basis, Debye-Ang):
   XX=            -23.6539   YY=            -22.9644   ZZ=            -29.2609
   XY=              0.2065   XZ=             -0.0234   YZ=             -0.0655

 1\1\GINC-NODE03\SP\RB2PLYPD3-FC\def2QZVP\C4H6\BOITTIER\26-Aug-2020\0\\
 #p B2PLYPD3/Def2QZVP\\butadiene\\0,1\C,0,-3.835755,0.231683,0.028781\C
 ,0,-2.716683,-0.511016,0.030549\C,0,-1.392076,0.068317,-0.003831\C,0,-
 0.265814,-0.658078,0.048525\H,0,-4.801622,-0.20099,0.014616\H,0,-3.770
 201,1.307257,0.040967\H,0,-2.773189,-1.585381,0.021506\H,0,-1.349063,1
 .151362,-0.081451\H,0,-0.268155,-1.731801,0.048834\H,0,0.668879,-0.130
 858,0.027157\\Version=ES64L-G09RevD.01\State=1-A\HF=-155.7004241\MP2=-
 155.92618\RMSD=2.554e-09\PG=C01 [X(C4H6)]\\@

 Normal termination of Gaussian 09 at Wed Aug 26 20:50:44 2020.
