 Gaussian 09, Revision D.01,
 Gaussian 09:  ES64L-G09RevD.01 24-Apr-2013

 --------------------
 #p B2PLYPD3/Def2QZVP
 --------------------

 ---------
 butadiene
 ---------
 Symbolic Z-matrix:
 Charge =  0 Multiplicity = 1

                         Standard orientation:
 ---------------------------------------------------------------------
 Center     Atomic      Atomic             Coordinates (Angstroms)
 Number     Number       Type             X           Y           Z
 ---------------------------------------------------------------------
      1          6           0        1.823867    0.146687   -0.046438
      2          6           0        0.622709   -0.449122    0.052582
      3          6           0       -0.603364    0.395813    0.042890
      4          6           0       -1.829286   -0.092493   -0.104392
      5          1           0        2.718268   -0.562728   -0.081737
      6          1           0        1.879669    1.271889   -0.163376
      7          1           0        0.459265   -1.467363    0.326820
      8          1           0       -0.480456    1.515365    0.239713
      9          1           0       -1.888779   -1.225470   -0.175258
     10          1           0       -2.771515    0.462998    0.185988
 ---------------------------------------------------------------------

 SCF Done:  E(RB2PLYPD3) =  -155.678000194     A.U. after   12 cycles
 E2(B2PLYPD3) =    -0.2279571210D+00 E(B2PLYPD3) =    -0.15590595731541D+03

 The electronic state is 1-A.
 Alpha  occ. eigenvalues --  -10.63159 -10.63144 -10.62944 -10.62112  -0.92583
 Alpha  occ. eigenvalues --   -0.84486  -0.68361  -0.63316  -0.53334  -0.52868
 Alpha  occ. eigenvalues --   -0.47166  -0.44266  -0.40360  -0.37073  -0.28094
 Alpha virt. eigenvalues --    0.01725   0.06894   0.07052   0.07610   0.08916
 Alpha virt. eigenvalues --    0.11685   0.12123   0.14167   0.14822   0.16204
 Alpha virt. eigenvalues --    0.18586   0.19131   0.20983   0.22370   0.23996

 Mulliken charges:
               1
     1  C   -0.170445
     2  C   -0.050372
     3  C   -0.027918
     4  C   -0.165652
     5  H    0.083502
     6  H    0.078341
     7  H    0.073399
     8  H    0.051701
     9  H    0.045071
    10  H    0.082372
 Sum of Mulliken charges =   0.00000

 Dipole moment (field-independent basis, Debye):
    X=              0.1499    Y=             -0.0406    Z=              0.3871  Tot=              0.4171
 Quadrupole moment (field-independent basis, Debye-Ang):
   XX=            -24.4233   YY=            -23.1594   ZZ=            -29.3714
   XY=             -0.0668   XZ=             -0.8469   YZ=             -0.0079

 1\1\GINC-NODE26\SP\RB2PLYPD3-FC\def2QZVP\C4H6\BOITTIER\26-Aug-2020\0\\
 #p B2PLYPD3/Def2QZVP\\butadiene\\0,1\C,0,-3.820113,0.247492,0.068139\C
 ,0,-2.741875,-0.550479,-0.022525\C,0,-1.387425,0.067975,-0.038145\C,0,
 -0.263977,-0.62303,0.114808\H,0,-4.823994,-0.294327,0.124056\H,0,-3.67
 8229,1.367518,0.15912\H,0,-2.7605,-1.587434,-0.273747\H,0,-1.315299,1.
 187192,-0.260396\H,0,-0.401967,-1.747201,0.211742\H,0,0.75802,-0.24671
 5,-0.192757\\Version=ES64L-G09RevD.01\State=1-A\HF=-155.6780002\MP2=-1
 55.9059573\RMSD=3.662e-09\PG=C01 [X(C4H6)]\\@

 Normal termination of Gaussian 09 at Wed Aug 26 14:05:28 2020.
