 Gaussian 09, Revision D.01,
 Gaussian 09:  ES64L-G09RevD.01 24-Apr-2013

 --------------------
 #p B2PLYPD3/Def2QZVP
 --------------------

 ---------
 butadiene
 ---------
 Symbolic Z-matrix:
 Charge =  0 Multiplicity = 1

                         Standard orientation:
 ---------------------------------------------------------------------
 Center     Atomic      Atomic             Coordinates (Angstroms)
 Number     Number       Type             X           Y           Z
 ---------------------------------------------------------------------
      1          6           0        1.855162    0.082980   -0.036727
      2          6           0        0.621373   -0.369162    0.024939
      3          6           0       -0.621397    0.420772    0.015261
      4          6           0       -1.838154   -0.135991   -0.031460
      5          1           0        2.690214   -0.561687   -0.005298
      6          1           0        1.964395    1.191194   -0.057188
      7          1           0        0.466343   -1.425770    0.205086
      8          1           0       -0.497604    1.544833    0.105001
      9          1           0       -1.987285   -1.199181   -0.145486
     10          1           0       -2.737962    0.459018    0.065807
 ---------------------------------------------------------------------

 SCF Done:  E(RB2PLYPD3) =  -155.695323435     A.U. after   11 cycles
 E2(B2PLYPD3) =    -0.2257574361D+00 E(B2PLYPD3) =    -0.15592108087065D+03

 The electronic state is 1-A.
 Alpha  occ. eigenvalues --  -10.63369 -10.62190 -10.61750 -10.61248  -0.92785
 Alpha  occ. eigenvalues --   -0.85233  -0.69969  -0.63329  -0.55098  -0.53403
 Alpha  occ. eigenvalues --   -0.47344  -0.45207  -0.40664  -0.37643  -0.28090
 Alpha virt. eigenvalues --    0.01883   0.07081   0.07284   0.07992   0.09603
 Alpha virt. eigenvalues --    0.11647   0.12365   0.14532   0.15529   0.16224
 Alpha virt. eigenvalues --    0.18873   0.20007   0.21413   0.22681   0.23903

 Mulliken charges:
               1
     1  C   -0.180146
     2  C   -0.019765
     3  C   -0.038220
     4  C   -0.174064
     5  H    0.096146
     6  H    0.059622
     7  H    0.051655
     8  H    0.048070
     9  H    0.070037
    10  H    0.086667
 Sum of Mulliken charges =   0.00000

 Dipole moment (field-independent basis, Debye):
    X=             -0.0595    Y=             -0.0640    Z=              0.1699  Tot=              0.1911
 Quadrupole moment (field-independent basis, Debye-Ang):
   XX=            -23.4183   YY=            -23.2687   ZZ=            -29.2232
   XY=              0.0076   XZ=              0.0258   YZ=              0.0663

 1\1\GINC-NODE11\SP\RB2PLYPD3-FC\def2QZVP\C4H6\BOITTIER\26-Aug-2020\0\\
 #p B2PLYPD3/Def2QZVP\\butadiene\\0,1\C,0,-3.861669,0.194901,0.050932\C
 ,0,-2.727065,-0.469353,0.007213\C,0,-1.36457,0.089167,-0.00796\C,0,-0.
 264702,-0.671298,0.060214\H,0,-4.79733,-0.293277,0.040138\H,0,-3.77393
 3,1.305068,0.033011\H,0,-2.761303,-1.542285,-0.136147\H,0,-1.288838,1.
 213716,-0.13659\H,0,-0.30467,-1.739596,0.211067\H,0,0.725416,-0.247785
 ,-0.055779\\Version=ES64L-G09RevD.01\State=1-A\HF=-155.6953234\MP2=-15
 5.9210809\RMSD=7.119e-09\PG=C01 [X(C4H6)]\\@

 Normal termination of Gaussian 09 at Wed Aug 26 11:01:47 2020.
