 Gaussian 09, Revision D.01,
 Gaussian 09:  ES64L-G09RevD.01 24-Apr-2013

 --------------------
 #p B2PLYPD3/Def2QZVP
 --------------------

 ---------
 butadiene
 ---------
 Symbolic Z-matrix:
 Charge =  0 Multiplicity = 1

                         Standard orientation:
 ---------------------------------------------------------------------
 Center     Atomic      Atomic             Coordinates (Angstroms)
 Number     Number       Type             X           Y           Z
 ---------------------------------------------------------------------
      1          6           0        1.819114    0.123832    0.020994
      2          6           0        0.605281   -0.431476    0.002529
      3          6           0       -0.594647    0.380091   -0.033311
      4          6           0       -1.827793   -0.105410    0.020903
      5          1           0        2.713089   -0.474311   -0.085460
      6          1           0        1.943429    1.242169    0.105185
      7          1           0        0.461744   -1.485791   -0.092944
      8          1           0       -0.508338    1.434551   -0.049622
      9          1           0       -2.026019   -1.129057    0.110523
     10          1           0       -2.595638    0.610219   -0.054369
 ---------------------------------------------------------------------

 SCF Done:  E(RB2PLYPD3) =  -155.695868107     A.U. after   11 cycles
 E2(B2PLYPD3) =    -0.2252717873D+00 E(B2PLYPD3) =    -0.15592113989394D+03

 The electronic state is 1-A.
 Alpha  occ. eigenvalues --  -10.62273 -10.61959 -10.61664 -10.60355  -0.93304
 Alpha  occ. eigenvalues --   -0.85158  -0.70020  -0.64566  -0.54643  -0.54362
 Alpha  occ. eigenvalues --   -0.46408  -0.45937  -0.41498  -0.38095  -0.27637
 Alpha virt. eigenvalues --    0.01928   0.07045   0.07472   0.08112   0.09569
 Alpha virt. eigenvalues --    0.11821   0.12295   0.14883   0.15707   0.16208
 Alpha virt. eigenvalues --    0.18667   0.20218   0.21480   0.22730   0.24607

 Mulliken charges:
               1
     1  C   -0.172524
     2  C   -0.043284
     3  C   -0.018613
     4  C   -0.185014
     5  H    0.084734
     6  H    0.064272
     7  H    0.062422
     8  H    0.054312
     9  H    0.070502
    10  H    0.083193
 Sum of Mulliken charges =   0.00000

 Dipole moment (field-independent basis, Debye):
    X=              0.0256    Y=             -0.0127    Z=             -0.0765  Tot=              0.0816
 Quadrupole moment (field-independent basis, Debye-Ang):
   XX=            -23.9192   YY=            -22.8513   ZZ=            -29.1226
   XY=              0.0882   XZ=             -0.1946   YZ=              0.0817

 1\1\GINC-NODE17\SP\RB2PLYPD3-FC\def2QZVP\C4H6\BOITTIER\26-Aug-2020\0\\
 #p B2PLYPD3/Def2QZVP\\butadiene\\0,1\C,0,-3.817736,0.238842,0.00001\C,
 0,-2.724484,-0.526218,0.039785\C,0,-1.397195,0.055176,0.045928\C,0,-0.
 27276,-0.647456,0.01048\H,0,-4.804587,-0.183031,0.128254\H,0,-3.737937
 ,1.357323,-0.125902\H,0,-2.77371,-1.58485,0.174592\H,0,-1.290961,1.107
 688,0.02285\H,0,-0.263808,-1.692668,-0.040793\H,0,0.612471,-0.080578,0
 .05939\\Version=ES64L-G09RevD.01\State=1-A\HF=-155.6958681\MP2=-155.92
 11399\RMSD=4.160e-09\PG=C01 [X(C4H6)]\\@

 Normal termination of Gaussian 09 at Wed Aug 26 10:30:23 2020.
