 Gaussian 09, Revision D.01,
 Gaussian 09:  ES64L-G09RevD.01 24-Apr-2013

 --------------------
 #p B2PLYPD3/Def2QZVP
 --------------------

 ---------
 butadiene
 ---------
 Symbolic Z-matrix:
 Charge =  0 Multiplicity = 1

                         Standard orientation:
 ---------------------------------------------------------------------
 Center     Atomic      Atomic             Coordinates (Angstroms)
 Number     Number       Type             X           Y           Z
 ---------------------------------------------------------------------
      1          6           0        1.871118    0.074810   -0.019066
      2          6           0        0.595882   -0.358085   -0.004018
      3          6           0       -0.639830    0.427362    0.072117
      4          6           0       -1.858607   -0.129505   -0.057381
      5          1           0        2.776821   -0.581748   -0.149108
      6          1           0        2.150135    1.159702    0.077627
      7          1           0        0.512911   -1.419704    0.097873
      8          1           0       -0.397387    1.507326   -0.008238
      9          1           0       -1.970407   -1.188918    0.165500
     10          1           0       -2.883453    0.435849   -0.133567
 ---------------------------------------------------------------------

 SCF Done:  E(RB2PLYPD3) =  -155.680451814     A.U. after   11 cycles
 E2(B2PLYPD3) =    -0.2279658849D+00 E(B2PLYPD3) =    -0.15590841769861D+03

 The electronic state is 1-A.
 Alpha  occ. eigenvalues --  -10.63718 -10.63263 -10.62812 -10.62680  -0.92604
 Alpha  occ. eigenvalues --   -0.84394  -0.69747  -0.63771  -0.54085  -0.52753
 Alpha  occ. eigenvalues --   -0.47191  -0.44307  -0.40548  -0.37519  -0.27706
 Alpha virt. eigenvalues --    0.01032   0.06843   0.07282   0.07868   0.09081
 Alpha virt. eigenvalues --    0.11374   0.12367   0.14244   0.15295   0.16581
 Alpha virt. eigenvalues --    0.18934   0.19337   0.21503   0.22102   0.23994

 Mulliken charges:
               1
     1  C   -0.176985
     2  C   -0.018977
     3  C   -0.044037
     4  C   -0.157410
     5  H    0.083740
     6  H    0.052001
     7  H    0.054911
     8  H    0.059520
     9  H    0.070994
    10  H    0.076244
 Sum of Mulliken charges =   0.00000

 Dipole moment (field-independent basis, Debye):
    X=             -0.0360    Y=             -0.0473    Z=              0.1067  Tot=              0.1221
 Quadrupole moment (field-independent basis, Debye-Ang):
   XX=            -22.9697   YY=            -23.7257   ZZ=            -29.4577
   XY=              0.2984   XZ=             -0.0987   YZ=             -0.2513

 1\1\GINC-NODE30\SP\RB2PLYPD3-FC\def2QZVP\C4H6\BOITTIER\26-Aug-2020\0\\
 #p B2PLYPD3/Def2QZVP\\butadiene\\0,1\C,0,-3.883967,0.191926,0.040773\C
 ,0,-2.706437,-0.461692,0.033256\C,0,-1.350614,0.089439,-0.054531\C,0,-
 0.250424,-0.673823,0.084399\H,0,-4.891963,-0.290428,0.180619\H,0,-3.96
 5211,1.307549,-0.073133\H,0,-2.814391,-1.52254,-0.051873\H,0,-1.39635,
 1.196448,0.008686\H,0,-0.329891,-1.739529,-0.121724\H,0,0.858999,-0.29
 9239,0.152258\\Version=ES64L-G09RevD.01\State=1-A\HF=-155.6804518\MP2=
 -155.9084177\RMSD=8.309e-09\PG=C01 [X(C4H6)]\\@

 Normal termination of Gaussian 09 at Wed Aug 26 15:40:31 2020.
