 Gaussian 09, Revision D.01,
 Gaussian 09:  ES64L-G09RevD.01 24-Apr-2013

 --------------------
 #p B2PLYPD3/Def2QZVP
 --------------------

 ---------
 butadiene
 ---------
 Symbolic Z-matrix:
 Charge =  0 Multiplicity = 1

                         Standard orientation:
 ---------------------------------------------------------------------
 Center     Atomic      Atomic             Coordinates (Angstroms)
 Number     Number       Type             X           Y           Z
 ---------------------------------------------------------------------
      1          6           0       -1.846829    0.098915   -0.020776
      2          6           0       -0.603113   -0.366185    0.026935
      3          6           0        0.618623    0.399026    0.013881
      4          6           0        1.844186   -0.120776   -0.010472
      5          1           0       -2.655960   -0.596586   -0.076532
      6          1           0       -2.088864    1.160891    0.114954
      7          1           0       -0.460890   -1.438665   -0.003450
      8          1           0        0.521265    1.539372   -0.099959
      9          1           0        1.906988   -1.228857    0.001902
     10          1           0        2.700257    0.497971    0.005682
 ---------------------------------------------------------------------

 SCF Done:  E(RB2PLYPD3) =  -155.694753893     A.U. after   11 cycles
 E2(B2PLYPD3) =    -0.2260467118D+00 E(B2PLYPD3) =    -0.15592080060531D+03

 The electronic state is 1-A.
 Alpha  occ. eigenvalues --  -10.62938 -10.62349 -10.61603 -10.61497  -0.93138
 Alpha  occ. eigenvalues --   -0.85239  -0.70364  -0.63061  -0.54934  -0.53762
 Alpha  occ. eigenvalues --   -0.47010  -0.45196  -0.40680  -0.38259  -0.27813
 Alpha virt. eigenvalues --    0.01583   0.07054   0.07241   0.07969   0.09767
 Alpha virt. eigenvalues --    0.11687   0.12322   0.14666   0.15561   0.16218
 Alpha virt. eigenvalues --    0.18718   0.20042   0.21487   0.22715   0.24167

 Mulliken charges:
               1
     1  C   -0.176855
     2  C   -0.027089
     3  C   -0.021403
     4  C   -0.178451
     5  H    0.085482
     6  H    0.071597
     7  H    0.047078
     8  H    0.041349
     9  H    0.061042
    10  H    0.097251
 Sum of Mulliken charges =   0.00000

 Dipole moment (field-independent basis, Debye):
    X=              0.0093    Y=             -0.0156    Z=             -0.0097  Tot=              0.0206
 Quadrupole moment (field-independent basis, Debye-Ang):
   XX=            -23.5191   YY=            -23.2255   ZZ=            -29.2522
   XY=              0.1080   XZ=             -0.0528   YZ=              0.0904

 1\1\GINC-NODE33\SP\RB2PLYPD3-FC\def2QZVP\C4H6\BOITTIER\26-Aug-2020\0\\
 #p B2PLYPD3/Def2QZVP\\butadiene\\0,1\C,0,-3.853658,0.209727,-0.001764\
 C,0,-2.712391,-0.467932,0.059169\C,0,-1.374041,0.067023,0.027544\C,0,-
 0.260634,-0.66306,0.017833\H,0,-4.773836,-0.331853,-0.040322\H,0,-3.90
 2357,1.300947,0.106242\H,0,-2.763397,-1.549022,0.056648\H,0,-1.267335,
 1.203196,-0.115821\H,0,-0.395972,-1.76394,0.058898\H,0,0.691933,-0.206
 351,0.018832\\Version=ES64L-G09RevD.01\State=1-A\HF=-155.6947539\MP2=-
 155.9208006\RMSD=3.769e-09\PG=C01 [X(C4H6)]\\@

 Normal termination of Gaussian 09 at Wed Aug 26 11:05:03 2020.
