 Gaussian 09, Revision D.01,
 Gaussian 09:  ES64L-G09RevD.01 24-Apr-2013

 --------------------
 #p B2PLYPD3/Def2QZVP
 --------------------

 ---------
 butadiene
 ---------
 Symbolic Z-matrix:
 Charge =  0 Multiplicity = 1

                         Standard orientation:
 ---------------------------------------------------------------------
 Center     Atomic      Atomic             Coordinates (Angstroms)
 Number     Number       Type             X           Y           Z
 ---------------------------------------------------------------------
      1          6           0        1.829164    0.115417   -0.003052
      2          6           0        0.605207   -0.410788   -0.018748
      3          6           0       -0.606028    0.392338   -0.004923
      4          6           0       -1.842219   -0.103958    0.009758
      5          1           0        2.724573   -0.500044    0.015174
      6          1           0        1.963371    1.199953    0.092636
      7          1           0        0.501822   -1.471378   -0.002986
      8          1           0       -0.420664    1.455184   -0.036078
      9          1           0       -1.962390   -1.167273    0.058630
     10          1           0       -2.723459    0.525500   -0.025585
 ---------------------------------------------------------------------

 SCF Done:  E(RB2PLYPD3) =  -155.700486253     A.U. after   11 cycles
 E2(B2PLYPD3) =    -0.2255225250D+00 E(B2PLYPD3) =    -0.15592600877821D+03

 The electronic state is 1-A.
 Alpha  occ. eigenvalues --  -10.62366 -10.62215 -10.61656 -10.61374  -0.93159
 Alpha  occ. eigenvalues --   -0.84983  -0.70044  -0.64383  -0.54613  -0.53969
 Alpha  occ. eigenvalues --   -0.46865  -0.45579  -0.41216  -0.38165  -0.27734
 Alpha virt. eigenvalues --    0.01802   0.07017   0.07446   0.08112   0.09591
 Alpha virt. eigenvalues --    0.11724   0.12506   0.14660   0.15843   0.16130
 Alpha virt. eigenvalues --    0.18737   0.20520   0.21501   0.23009   0.23869

 Mulliken charges:
               1
     1  C   -0.173949
     2  C   -0.030010
     3  C   -0.027381
     4  C   -0.179191
     5  H    0.084621
     6  H    0.061354
     7  H    0.055308
     8  H    0.053288
     9  H    0.066366
    10  H    0.089594
 Sum of Mulliken charges =   0.00000

 Dipole moment (field-independent basis, Debye):
    X=              0.0236    Y=             -0.0247    Z=              0.0809  Tot=              0.0878
 Quadrupole moment (field-independent basis, Debye-Ang):
   XX=            -23.4924   YY=            -23.1535   ZZ=            -29.2209
   XY=              0.0311   XZ=              0.2247   YZ=             -0.0311

 1\1\GINC-NODE13\SP\RB2PLYPD3-FC\def2QZVP\C4H6\BOITTIER\26-Aug-2020\0\\
 #p B2PLYPD3/Def2QZVP\\butadiene\\0,1\C,0,-3.832257,0.227468,0.016454\C
 ,0,-2.722534,-0.509093,0.051104\C,0,-1.386893,0.063038,0.019124\C,0,-0
 .259816,-0.647159,0.022618\H,0,-4.823579,-0.217666,0.012267\H,0,-3.769
 872,1.315367,-0.109916\H,0,-2.811118,-1.571044,0.065292\H,0,-1.378528,
 1.142343,0.019973\H,0,-0.332428,-1.71573,0.003844\H,0,0.720105,-0.1852
 38,0.043475\\Version=ES64L-G09RevD.01\State=1-A\HF=-155.7004863\MP2=-1
 55.9260088\RMSD=2.597e-09\PG=C01 [X(C4H6)]\\@

 Normal termination of Gaussian 09 at Wed Aug 26 20:16:44 2020.
