 Gaussian 09, Revision D.01,
 Gaussian 09:  ES64L-G09RevD.01 24-Apr-2013

 --------------------
 #p B2PLYPD3/Def2QZVP
 --------------------

 ---------
 butadiene
 ---------
 Symbolic Z-matrix:
 Charge =  0 Multiplicity = 1

                         Standard orientation:
 ---------------------------------------------------------------------
 Center     Atomic      Atomic             Coordinates (Angstroms)
 Number     Number       Type             X           Y           Z
 ---------------------------------------------------------------------
      1          6           0       -1.837585    0.097164   -0.011795
      2          6           0       -0.611351   -0.385598    0.014771
      3          6           0        0.609131    0.421220    0.008994
      4          6           0        1.839596   -0.122685   -0.021642
      5          1           0       -2.727373   -0.537419   -0.050375
      6          1           0       -2.006252    1.182236    0.019856
      7          1           0       -0.493927   -1.466557    0.058678
      8          1           0        0.514854    1.500230    0.011378
      9          1           0        1.987871   -1.213391   -0.007142
     10          1           0        2.726084    0.474292    0.025640
 ---------------------------------------------------------------------

 SCF Done:  E(RB2PLYPD3) =  -155.699904477     A.U. after   11 cycles
 E2(B2PLYPD3) =    -0.2257129635D+00 E(B2PLYPD3) =    -0.15592561744066D+03

 The electronic state is 1-A.
 Alpha  occ. eigenvalues --  -10.62852 -10.62365 -10.61756 -10.61487  -0.92881
 Alpha  occ. eigenvalues --   -0.84971  -0.69818  -0.63955  -0.54593  -0.53836
 Alpha  occ. eigenvalues --   -0.46768  -0.45167  -0.41090  -0.38054  -0.27816
 Alpha virt. eigenvalues --    0.01863   0.07010   0.07378   0.08018   0.09565
 Alpha virt. eigenvalues --    0.11629   0.12444   0.14531   0.15839   0.16306
 Alpha virt. eigenvalues --    0.18834   0.20318   0.21639   0.22744   0.23789

 Mulliken charges:
               1
     1  C   -0.171781
     2  C   -0.024191
     3  C   -0.041121
     4  C   -0.170861
     5  H    0.085648
     6  H    0.060716
     7  H    0.054285
     8  H    0.058275
     9  H    0.063380
    10  H    0.085650
 Sum of Mulliken charges =   0.00000

 Dipole moment (field-independent basis, Debye):
    X=              0.0170    Y=              0.0040    Z=              0.0718  Tot=              0.0738
 Quadrupole moment (field-independent basis, Debye-Ang):
   XX=            -23.4117   YY=            -23.1196   ZZ=            -29.2974
   XY=             -0.0170   XZ=              0.1608   YZ=              0.0278

 1\1\GINC-NODE40\SP\RB2PLYPD3-FC\def2QZVP\C4H6\BOITTIER\26-Aug-2020\0\\
 #p B2PLYPD3/Def2QZVP\\butadiene\\0,1\C,0,-3.843586,0.205542,0.006152\C
 ,0,-2.722435,-0.486211,0.049896\C,0,-1.37816,0.090738,0.025004\C,0,-0.
 263816,-0.663527,0.013302\H,0,-4.831945,-0.261908,-0.01717\H,0,-3.8169
 49,1.303777,0.006761\H,0,-2.798613,-1.569175,0.124549\H,0,-1.279451,1.
 168984,-0.003254\H,0,-0.311424,-1.762385,0.058925\H,0,0.71464,-0.23224
 ,0.046371\\Version=ES64L-G09RevD.01\State=1-A\HF=-155.6999045\MP2=-155
 .9256174\RMSD=5.682e-09\PG=C01 [X(C4H6)]\\@

 Normal termination of Gaussian 09 at Wed Aug 26 11:48:13 2020.
