 Gaussian 09, Revision D.01,
 Gaussian 09:  ES64L-G09RevD.01 24-Apr-2013

 --------------------
 #p B2PLYPD3/Def2QZVP
 --------------------

 ---------
 butadiene
 ---------
 Symbolic Z-matrix:
 Charge =  0 Multiplicity = 1

                         Standard orientation:
 ---------------------------------------------------------------------
 Center     Atomic      Atomic             Coordinates (Angstroms)
 Number     Number       Type             X           Y           Z
 ---------------------------------------------------------------------
      1          6           0        1.834056   -0.107410    0.004940
      2          6           0        0.597218    0.397812   -0.038347
      3          6           0       -0.601021   -0.419418   -0.012451
      4          6           0       -1.823731    0.118347    0.017177
      5          1           0        2.681607    0.557001    0.082706
      6          1           0        2.023800   -1.145973    0.046815
      7          1           0        0.412268    1.481223    0.024852
      8          1           0       -0.476506   -1.503247   -0.025003
      9          1           0       -1.979940    1.194261    0.003819
     10          1           0       -2.700360   -0.519256    0.038891
 ---------------------------------------------------------------------

 SCF Done:  E(RB2PLYPD3) =  -155.699943757     A.U. after   11 cycles
 E2(B2PLYPD3) =    -0.2258193649D+00 E(B2PLYPD3) =    -0.15592576312225D+03

 The electronic state is 1-A.
 Alpha  occ. eigenvalues --  -10.62625 -10.62484 -10.61555 -10.61188  -0.93048
 Alpha  occ. eigenvalues --   -0.84834  -0.70134  -0.64048  -0.54478  -0.54015
 Alpha  occ. eigenvalues --   -0.46422  -0.45920  -0.41152  -0.38161  -0.27577
 Alpha virt. eigenvalues --    0.01783   0.07034   0.07325   0.08087   0.09454
 Alpha virt. eigenvalues --    0.11757   0.12412   0.14848   0.15723   0.16144
 Alpha virt. eigenvalues --    0.18697   0.20392   0.21731   0.23119   0.23797

 Mulliken charges:
               1
     1  C   -0.179749
     2  C   -0.026029
     3  C   -0.030112
     4  C   -0.177315
     5  H    0.083553
     6  H    0.070515
     7  H    0.053460
     8  H    0.055042
     9  H    0.066586
    10  H    0.084049
 Sum of Mulliken charges =   0.00000

 Dipole moment (field-independent basis, Debye):
    X=             -0.0229    Y=             -0.0279    Z=              0.1218  Tot=              0.1270
 Quadrupole moment (field-independent basis, Debye-Ang):
   XX=            -23.7122   YY=            -22.9700   ZZ=            -29.2723
   XY=             -0.2877   XZ=              0.2736   YZ=              0.0532

 1\1\GINC-NODE15\SP\RB2PLYPD3-FC\def2QZVP\C4H6\BOITTIER\26-Aug-2020\0\\
 #p B2PLYPD3/Def2QZVP\\butadiene\\0,1\C,0,-3.835039,0.225463,0.029812\C
 ,0,-2.711843,-0.498849,0.003473\C,0,-1.384149,0.08556,0.001252\C,0,-0.
 280326,-0.665702,0.048897\H,0,-4.78934,-0.269545,0.130351\H,0,-3.83125
 6,1.28202,0.036339\H,0,-2.727867,-1.595079,0.103487\H,0,-1.308307,1.17
 2829,-0.048173\H,0,-0.323728,-1.751863,0.072149\H,0,0.698298,-0.199031
 ,0.048686\\Version=ES64L-G09RevD.01\State=1-A\HF=-155.6999438\MP2=-155
 .9257631\RMSD=2.936e-09\PG=C01 [X(C4H6)]\\@

 Normal termination of Gaussian 09 at Wed Aug 26 21:41:36 2020.
