 Gaussian 09, Revision D.01,
 Gaussian 09:  ES64L-G09RevD.01 24-Apr-2013

 --------------------
 #p B2PLYPD3/Def2QZVP
 --------------------

 ---------
 butadiene
 ---------
 Symbolic Z-matrix:
 Charge =  0 Multiplicity = 1

                         Standard orientation:
 ---------------------------------------------------------------------
 Center     Atomic      Atomic             Coordinates (Angstroms)
 Number     Number       Type             X           Y           Z
 ---------------------------------------------------------------------
      1          6           0        1.838583    0.103654    0.002274
      2          6           0        0.602681   -0.381658   -0.020296
      3          6           0       -0.610180    0.404776   -0.033801
      4          6           0       -1.841364   -0.119955    0.016668
      5          1           0        2.675084   -0.548557    0.077077
      6          1           0        2.071841    1.163287    0.058140
      7          1           0        0.537561   -1.463614   -0.001164
      8          1           0       -0.500653    1.497593   -0.005999
      9          1           0       -1.987882   -1.203725    0.008433
     10          1           0       -2.734274    0.514116    0.074448
 ---------------------------------------------------------------------

 SCF Done:  E(RB2PLYPD3) =  -155.699739854     A.U. after   11 cycles
 E2(B2PLYPD3) =    -0.2257479246D+00 E(B2PLYPD3) =    -0.15592548777832D+03

 The electronic state is 1-A.
 Alpha  occ. eigenvalues --  -10.62759 -10.62336 -10.61923 -10.61149  -0.93045
 Alpha  occ. eigenvalues --   -0.85028  -0.70158  -0.63860  -0.54539  -0.54156
 Alpha  occ. eigenvalues --   -0.46531  -0.45309  -0.41140  -0.38250  -0.27709
 Alpha virt. eigenvalues --    0.01679   0.06997   0.07433   0.07951   0.09733
 Alpha virt. eigenvalues --    0.11619   0.12395   0.14721   0.15894   0.16231
 Alpha virt. eigenvalues --    0.18826   0.20469   0.21543   0.22521   0.23969

 Mulliken charges:
               1
     1  C   -0.172214
     2  C   -0.025430
     3  C   -0.034845
     4  C   -0.172324
     5  H    0.081768
     6  H    0.062077
     7  H    0.052249
     8  H    0.055752
     9  H    0.067158
    10  H    0.085810
 Sum of Mulliken charges =   0.00000

 Dipole moment (field-independent basis, Debye):
    X=              0.0000    Y=             -0.0062    Z=              0.1559  Tot=              0.1561
 Quadrupole moment (field-independent basis, Debye-Ang):
   XX=            -23.4413   YY=            -23.1037   ZZ=            -29.2607
   XY=              0.0382   XZ=              0.1073   YZ=              0.0553

 1\1\GINC-NODE13\SP\RB2PLYPD3-FC\def2QZVP\C4H6\BOITTIER\26-Aug-2020\0\\
 #p B2PLYPD3/Def2QZVP\\butadiene\\0,1\C,0,-3.844311,0.213555,0.010046\C
 ,0,-2.714449,-0.482984,0.051714\C,0,-1.380952,0.075054,0.043174\C,0,-0
 .262969,-0.661771,0.013101\H,0,-4.783755,-0.281436,-0.04597\H,0,-3.885
 428,1.29542,-0.080669\H,0,-2.842984,-1.559301,0.067725\H,0,-1.294324,1
 .168441,-0.020221\H,0,-0.311646,-1.753475,0.056749\H,0,0.728355,-0.198
 941,-0.062653\\Version=ES64L-G09RevD.01\State=1-A\HF=-155.6997399\MP2=
 -155.9254878\RMSD=5.140e-09\PG=C01 [X(C4H6)]\\@

 Normal termination of Gaussian 09 at Wed Aug 26 21:32:21 2020.
