 Gaussian 09, Revision D.01,
 Gaussian 09:  ES64L-G09RevD.01 24-Apr-2013

 --------------------
 #p B2PLYPD3/Def2QZVP
 --------------------

 ---------
 butadiene
 ---------
 Symbolic Z-matrix:
 Charge =  0 Multiplicity = 1

                         Standard orientation:
 ---------------------------------------------------------------------
 Center     Atomic      Atomic             Coordinates (Angstroms)
 Number     Number       Type             X           Y           Z
 ---------------------------------------------------------------------
      1          6           0       -1.845544    0.130775    0.059302
      2          6           0       -0.621545   -0.427127   -0.056030
      3          6           0        0.595791    0.364452   -0.080777
      4          6           0        1.827027   -0.083920    0.016641
      5          1           0       -2.695058   -0.517127   -0.107587
      6          1           0       -2.018223    1.178437    0.331036
      7          1           0       -0.495357   -1.480016   -0.072299
      8          1           0        0.557017    1.490047   -0.208278
      9          1           0        2.279633   -1.157320    0.283524
     10          1           0        2.637607    0.580893    0.138787
 ---------------------------------------------------------------------

 SCF Done:  E(RB2PLYPD3) =  -155.678537796     A.U. after   11 cycles
 E2(B2PLYPD3) =    -0.2267668681D+00 E(B2PLYPD3) =    -0.15590530466378D+03

 The electronic state is 1-A.
 Alpha  occ. eigenvalues --  -10.62897 -10.62708 -10.62025 -10.61923  -0.92939
 Alpha  occ. eigenvalues --   -0.85018  -0.70225  -0.63301  -0.54936  -0.53253
 Alpha  occ. eigenvalues --   -0.46756  -0.45231  -0.39835  -0.37909  -0.27691
 Alpha virt. eigenvalues --    0.01322   0.06989   0.07246   0.07805   0.09523
 Alpha virt. eigenvalues --    0.10975   0.12404   0.14848   0.15815   0.16247
 Alpha virt. eigenvalues --    0.18995   0.19275   0.21716   0.22579   0.23686

 Mulliken charges:
               1
     1  C   -0.174651
     2  C   -0.053363
     3  C   -0.028600
     4  C   -0.158129
     5  H    0.083828
     6  H    0.079605
     7  H    0.076308
     8  H    0.056339
     9  H    0.045429
    10  H    0.073232
 Sum of Mulliken charges =   0.00000

 Dipole moment (field-independent basis, Debye):
    X=             -0.0059    Y=              0.0510    Z=              0.2410  Tot=              0.2464
 Quadrupole moment (field-independent basis, Debye-Ang):
   XX=            -23.5359   YY=            -23.3357   ZZ=            -29.1156
   XY=             -0.1601   XZ=              0.5998   YZ=              0.1674

 1\1\GINC-NODE26\SP\RB2PLYPD3-FC\def2QZVP\C4H6\BOITTIER\26-Aug-2020\0\\
 #p B2PLYPD3/Def2QZVP\\butadiene\\0,1\C,0,-3.837253,0.253079,0.073278\C
 ,0,-2.73562,-0.521768,-0.020245\C,0,-1.393953,0.033115,-0.054175\C,0,-
 0.265815,-0.630325,0.062534\H,0,-4.790443,-0.232404,-0.084961\H,0,-3.8
 16194,1.320835,0.319663\H,0,-2.804117,-1.580066,-0.011461\H,0,-1.22578
 2,1.143461,-0.207712\H,0,-0.018014,-1.761695,0.357257\H,0,0.652327,-0.
 122172,0.175369\\Version=ES64L-G09RevD.01\State=1-A\HF=-155.6785378\MP
 2=-155.9053047\RMSD=8.352e-09\PG=C01 [X(C4H6)]\\@

 Normal termination of Gaussian 09 at Wed Aug 26 15:19:12 2020.
