 Gaussian 09, Revision D.01,
 Gaussian 09:  ES64L-G09RevD.01 24-Apr-2013

 --------------------
 #p B2PLYPD3/Def2QZVP
 --------------------

 ---------
 butadiene
 ---------
 Symbolic Z-matrix:
 Charge =  0 Multiplicity = 1

                         Standard orientation:
 ---------------------------------------------------------------------
 Center     Atomic      Atomic             Coordinates (Angstroms)
 Number     Number       Type             X           Y           Z
 ---------------------------------------------------------------------
      1          6           0       -1.856012    0.103139   -0.030136
      2          6           0       -0.614104   -0.392386    0.031773
      3          6           0        0.605955    0.402898    0.023240
      4          6           0        1.849280   -0.108843   -0.055566
      5          1           0       -2.717918   -0.512512   -0.040437
      6          1           0       -1.945702    1.167480   -0.090191
      7          1           0       -0.497925   -1.470376    0.174869
      8          1           0        0.482834    1.494387    0.141806
      9          1           0        2.052325   -1.195120   -0.078279
     10          1           0        2.715675    0.487294    0.076369
 ---------------------------------------------------------------------

 SCF Done:  E(RB2PLYPD3) =  -155.697198913     A.U. after   11 cycles
 E2(B2PLYPD3) =    -0.2261231085D+00 E(B2PLYPD3) =    -0.15592332202152D+03

 The electronic state is 1-A.
 Alpha  occ. eigenvalues --  -10.63125 -10.62630 -10.61770 -10.61243  -0.92750
 Alpha  occ. eigenvalues --   -0.84897  -0.70456  -0.63729  -0.55035  -0.53683
 Alpha  occ. eigenvalues --   -0.47098  -0.45366  -0.41264  -0.37617  -0.27699
 Alpha virt. eigenvalues --    0.01442   0.07095   0.07383   0.07991   0.09558
 Alpha virt. eigenvalues --    0.11598   0.12521   0.14647   0.15729   0.16284
 Alpha virt. eigenvalues --    0.18955   0.20037   0.21695   0.22604   0.23698

 Mulliken charges:
               1
     1  C   -0.180043
     2  C   -0.023630
     3  C   -0.040657
     4  C   -0.168260
     5  H    0.094108
     6  H    0.064231
     7  H    0.054225
     8  H    0.053772
     9  H    0.061205
    10  H    0.085049
 Sum of Mulliken charges =   0.00000

 Dipole moment (field-independent basis, Debye):
    X=             -0.0055    Y=             -0.0187    Z=              0.2011  Tot=              0.2020
 Quadrupole moment (field-independent basis, Debye-Ang):
   XX=            -23.2880   YY=            -23.2672   ZZ=            -29.2657
   XY=             -0.0528   XZ=              0.3731   YZ=              0.0303

 1\1\GINC-NODE39\SP\RB2PLYPD3-FC\def2QZVP\C4H6\BOITTIER\26-Aug-2020\0\\
 #p B2PLYPD3/Def2QZVP\\butadiene\\0,1\C,0,-3.858408,0.216342,-0.012182\
 C,0,-2.724902,-0.490904,0.069557\C,0,-1.382446,0.073215,0.043587\C,0,-
 0.250544,-0.654335,-0.014856\H,0,-4.816405,-0.235591,-0.008606\H,0,-3.
 756641,1.277387,-0.103286\H,0,-2.802983,-1.56768,0.24418\H,0,-1.308594
 ,1.172136,0.130095\H,0,-0.244755,-1.759602,-0.005343\H,0,0.708474,-0.2
 18848,0.103734\\Version=ES64L-G09RevD.01\State=1-A\HF=-155.6971989\MP2
 =-155.923322\RMSD=3.812e-09\PG=C01 [X(C4H6)]\\@

 Normal termination of Gaussian 09 at Wed Aug 26 10:41:29 2020.
