 Gaussian 09, Revision D.01,
 Gaussian 09:  ES64L-G09RevD.01 24-Apr-2013

 --------------------
 #p B2PLYPD3/Def2QZVP
 --------------------

 ---------
 butadiene
 ---------
 Symbolic Z-matrix:
 Charge =  0 Multiplicity = 1

                         Standard orientation:
 ---------------------------------------------------------------------
 Center     Atomic      Atomic             Coordinates (Angstroms)
 Number     Number       Type             X           Y           Z
 ---------------------------------------------------------------------
      1          6           0       -1.853702    0.097283   -0.070070
      2          6           0       -0.622735   -0.332800    0.059308
      3          6           0        0.614055    0.403550   -0.024052
      4          6           0        1.854677   -0.129206   -0.022362
      5          1           0       -2.522843   -0.716359    0.092837
      6          1           0       -2.152468    1.179714   -0.043435
      7          1           0       -0.455037   -1.441797    0.145917
      8          1           0        0.579273    1.535563    0.243381
      9          1           0        1.826694   -1.234210   -0.117441
     10          1           0        2.770609    0.444127    0.021797
 ---------------------------------------------------------------------

 SCF Done:  E(RB2PLYPD3) =  -155.679254606     A.U. after   11 cycles
 E2(B2PLYPD3) =    -0.2273687824D+00 E(B2PLYPD3) =    -0.15590662338791D+03

 The electronic state is 1-A.
 Alpha  occ. eigenvalues --  -10.63227 -10.62645 -10.62314 -10.61509  -0.93151
 Alpha  occ. eigenvalues --   -0.85434  -0.70119  -0.62161  -0.54298  -0.53957
 Alpha  occ. eigenvalues --   -0.47069  -0.44470  -0.40382  -0.37585  -0.28146
 Alpha virt. eigenvalues --    0.01351   0.06855   0.07173   0.07793   0.09696
 Alpha virt. eigenvalues --    0.11417   0.12201   0.14538   0.15255   0.16353
 Alpha virt. eigenvalues --    0.18582   0.19108   0.21634   0.21937   0.24418

 Mulliken charges:
               1
     1  C   -0.161196
     2  C   -0.029240
     3  C   -0.017122
     4  C   -0.181540
     5  H    0.080089
     6  H    0.076984
     7  H    0.032992
     8  H    0.041439
     9  H    0.057217
    10  H    0.100378
 Sum of Mulliken charges =   0.00000

 Dipole moment (field-independent basis, Debye):
    X=              0.0861    Y=             -0.0053    Z=              0.3175  Tot=              0.3290
 Quadrupole moment (field-independent basis, Debye-Ang):
   XX=            -23.7567   YY=            -23.3781   ZZ=            -29.2855
   XY=              0.1304   XZ=             -0.1523   YZ=              0.1733

 1\1\GINC-NODE28\SP\RB2PLYPD3-FC\def2QZVP\C4H6\BOITTIER\26-Aug-2020\0\\
 #p B2PLYPD3/Def2QZVP\\butadiene\\0,1\C,0,-3.859988,0.20091,-0.038573\C
 ,0,-2.723077,-0.436949,0.093929\C,0,-1.376656,0.071199,0.005915\C,0,-0
 .248316,-0.670282,0.011419\H,0,-4.660947,-0.482081,0.129621\H,0,-3.964
 834,1.319061,-0.019226\H,0,-2.751816,-1.557587,0.187973\H,0,-1.212684,
 1.193593,0.265779\H,0,-0.469198,-1.753968,-0.076288\H,0,0.753806,-0.26
 5681,0.051942\\Version=ES64L-G09RevD.01\State=1-A\HF=-155.6792546\MP2=
 -155.9066234\RMSD=8.403e-09\PG=C01 [X(C4H6)]\\@

 Normal termination of Gaussian 09 at Wed Aug 26 16:06:24 2020.
