 Gaussian 09, Revision D.01,
 Gaussian 09:  ES64L-G09RevD.01 24-Apr-2013

 --------------------
 #p B2PLYPD3/Def2QZVP
 --------------------

 ---------
 butadiene
 ---------
 Symbolic Z-matrix:
 Charge =  0 Multiplicity = 1

                         Standard orientation:
 ---------------------------------------------------------------------
 Center     Atomic      Atomic             Coordinates (Angstroms)
 Number     Number       Type             X           Y           Z
 ---------------------------------------------------------------------
      1          6           0        1.835302    0.096200    0.020754
      2          6           0        0.596746   -0.382226   -0.004340
      3          6           0       -0.594349    0.411457   -0.021776
      4          6           0       -1.825403   -0.119677    0.009030
      5          1           0        2.706297   -0.535932   -0.047795
      6          1           0        1.975499    1.160458    0.036230
      7          1           0        0.462144   -1.466486   -0.059641
      8          1           0       -0.476183    1.512619   -0.012888
      9          1           0       -1.984413   -1.193999    0.075863
     10          1           0       -2.757120    0.488810   -0.013781
 ---------------------------------------------------------------------

 SCF Done:  E(RB2PLYPD3) =  -155.699045412     A.U. after   11 cycles
 E2(B2PLYPD3) =    -0.2260527344D+00 E(B2PLYPD3) =    -0.15592509814656D+03

 The electronic state is 1-A.
 Alpha  occ. eigenvalues --  -10.62801 -10.62264 -10.62078 -10.61206  -0.93326
 Alpha  occ. eigenvalues --   -0.84827  -0.70150  -0.63855  -0.54692  -0.53808
 Alpha  occ. eigenvalues --   -0.46700  -0.45093  -0.41154  -0.38422  -0.27577
 Alpha virt. eigenvalues --    0.01586   0.07009   0.07334   0.07956   0.09724
 Alpha virt. eigenvalues --    0.11668   0.12490   0.14658   0.15813   0.16202
 Alpha virt. eigenvalues --    0.18736   0.20472   0.21654   0.22665   0.23718

 Mulliken charges:
               1
     1  C   -0.178376
     2  C   -0.018499
     3  C   -0.031738
     4  C   -0.171443
     5  H    0.088795
     6  H    0.062161
     7  H    0.049957
     8  H    0.052026
     9  H    0.064977
    10  H    0.082140
 Sum of Mulliken charges =   0.00000

 Dipole moment (field-independent basis, Debye):
    X=             -0.0279    Y=             -0.0153    Z=             -0.0364  Tot=              0.0483
 Quadrupole moment (field-independent basis, Debye-Ang):
   XX=            -23.4256   YY=            -23.2096   ZZ=            -29.2753
   XY=              0.0926   XZ=             -0.2316   YZ=              0.0367

 1\1\GINC-NODE40\SP\RB2PLYPD3-FC\def2QZVP\C4H6\BOITTIER\26-Aug-2020\0\\
 #p B2PLYPD3/Def2QZVP\\butadiene\\0,1\C,0,-3.838699,0.210394,0.001623\C
 ,0,-2.706959,-0.483207,0.041909\C,0,-1.391895,0.082031,0.034337\C,0,-0
 .27738,-0.663763,0.020416\H,0,-4.809246,-0.251279,0.090054\H,0,-3.7842
 13,1.281449,-0.047487\H,0,-2.77034,-1.571674,0.131456\H,0,-1.30903,1.1
 85582,-0.009352\H,0,-0.315649,-1.750674,-0.012422\H,0,0.749127,-0.2334
 79,0.024052\\Version=ES64L-G09RevD.01\State=1-A\HF=-155.6990454\MP2=-1
 55.9250981\RMSD=4.970e-09\PG=C01 [X(C4H6)]\\@

 Normal termination of Gaussian 09 at Wed Aug 26 11:12:23 2020.
