 Gaussian 09, Revision D.01,
 Gaussian 09:  ES64L-G09RevD.01 24-Apr-2013

 --------------------
 #p B2PLYPD3/Def2QZVP
 --------------------

 ---------
 butadiene
 ---------
 Symbolic Z-matrix:
 Charge =  0 Multiplicity = 1

                         Standard orientation:
 ---------------------------------------------------------------------
 Center     Atomic      Atomic             Coordinates (Angstroms)
 Number     Number       Type             X           Y           Z
 ---------------------------------------------------------------------
      1          6           0        1.866478   -0.131569    0.054547
      2          6           0        0.616795    0.445704   -0.044790
      3          6           0       -0.626909   -0.374435   -0.042168
      4          6           0       -1.872435    0.105700    0.035803
      5          1           0        2.833876    0.383809    0.075546
      6          1           0        1.906641   -1.259889    0.145338
      7          1           0        0.542321    1.611312   -0.341184
      8          1           0       -0.422478   -1.447468   -0.195296
      9          1           0       -2.122045    1.142971    0.365189
     10          1           0       -2.641882   -0.703138   -0.069945
 ---------------------------------------------------------------------

 SCF Done:  E(RB2PLYPD3) =  -155.675707766     A.U. after   11 cycles
 E2(B2PLYPD3) =    -0.2289429484D+00 E(B2PLYPD3) =    -0.15590465071479D+03

 The electronic state is 1-A.
 Alpha  occ. eigenvalues --  -10.64788 -10.63356 -10.63137 -10.62451  -0.91816
 Alpha  occ. eigenvalues --   -0.84069  -0.69240  -0.62317  -0.53508  -0.52880
 Alpha  occ. eigenvalues --   -0.46560  -0.44624  -0.40419  -0.36836  -0.27650
 Alpha virt. eigenvalues --    0.01191   0.06801   0.07090   0.07433   0.08864
 Alpha virt. eigenvalues --    0.11273   0.12140   0.14341   0.15420   0.15993
 Alpha virt. eigenvalues --    0.18789   0.19506   0.21113   0.22089   0.23415

 Mulliken charges:
               1
     1  C   -0.173889
     2  C   -0.048958
     3  C   -0.030597
     4  C   -0.179907
     5  H    0.093327
     6  H    0.053802
     7  H    0.060254
     8  H    0.057729
     9  H    0.088308
    10  H    0.079932
 Sum of Mulliken charges =   0.00000

 Dipole moment (field-independent basis, Debye):
    X=              0.0923    Y=             -0.0683    Z=             -0.0334  Tot=              0.1196
 Quadrupole moment (field-independent basis, Debye-Ang):
   XX=            -23.7856   YY=            -23.3210   ZZ=            -29.5285
   XY=             -0.1518   XZ=             -0.2394   YZ=              0.1971

 1\1\GINC-NODE18\SP\RB2PLYPD3-FC\def2QZVP\C4H6\BOITTIER\26-Aug-2020\0\\
 #p B2PLYPD3/Def2QZVP\\butadiene\\0,1\C,0,-3.86789,0.246456,0.066398\C,
 0,-2.738438,-0.542545,-0.015065\C,0,-1.370438,0.047293,-0.025166\C,0,-
 0.228138,-0.641419,0.068494\H,0,-4.910537,-0.091192,0.094609\H,0,-3.71
 0071,1.366147,0.132334\H,0,-2.868938,-1.709516,-0.285594\H,0,-1.383953
 ,1.135863,-0.202568\H,0,-0.163937,-1.698767,0.421517\H,0,0.670974,0.01
 7826,-0.051688\\Version=ES64L-G09RevD.01\State=1-A\HF=-155.6757078\MP2
 =-155.9046507\RMSD=9.563e-09\PG=C01 [X(C4H6)]\\@

 Normal termination of Gaussian 09 at Wed Aug 26 15:09:50 2020.
