 Gaussian 09, Revision D.01,
 Gaussian 09:  ES64L-G09RevD.01 24-Apr-2013

 --------------------
 #p B2PLYPD3/Def2QZVP
 --------------------

 ---------
 butadiene
 ---------
 Symbolic Z-matrix:
 Charge =  0 Multiplicity = 1

                         Standard orientation:
 ---------------------------------------------------------------------
 Center     Atomic      Atomic             Coordinates (Angstroms)
 Number     Number       Type             X           Y           Z
 ---------------------------------------------------------------------
      1          6           0       -1.845320   -0.139379   -0.077822
      2          6           0       -0.603544    0.422588    0.075061
      3          6           0        0.625391   -0.396926    0.052429
      4          6           0        1.856714    0.094346   -0.056131
      5          1           0       -2.776066    0.423720   -0.212039
      6          1           0       -1.969759   -1.171930    0.128106
      7          1           0       -0.691298    1.591266    0.221096
      8          1           0        0.474152   -1.439634    0.069822
      9          1           0        2.005610    1.182861   -0.114438
     10          1           0        2.757926   -0.470059   -0.053766
 ---------------------------------------------------------------------

 SCF Done:  E(RB2PLYPD3) =  -155.681406220     A.U. after   12 cycles
 E2(B2PLYPD3) =    -0.2273244794D+00 E(B2PLYPD3) =    -0.15590873069985D+03

 The electronic state is 1-A.
 Alpha  occ. eigenvalues --  -10.64362 -10.62893 -10.61889 -10.61536  -0.92391
 Alpha  occ. eigenvalues --   -0.84641  -0.70025  -0.63675  -0.54743  -0.53678
 Alpha  occ. eigenvalues --   -0.46593  -0.44740  -0.41650  -0.37088  -0.27366
 Alpha virt. eigenvalues --    0.01315   0.07010   0.07341   0.07789   0.09041
 Alpha virt. eigenvalues --    0.11436   0.12576   0.14099   0.15861   0.16820
 Alpha virt. eigenvalues --    0.18768   0.19803   0.21461   0.23147   0.23512

 Mulliken charges:
               1
     1  C   -0.177428
     2  C   -0.038960
     3  C   -0.041380
     4  C   -0.162412
     5  H    0.079955
     6  H    0.065372
     7  H    0.056382
     8  H    0.067464
     9  H    0.063302
    10  H    0.087705
 Sum of Mulliken charges =   0.00000

 Dipole moment (field-independent basis, Debye):
    X=             -0.0137    Y=             -0.0543    Z=              0.1392  Tot=              0.1500
 Quadrupole moment (field-independent basis, Debye-Ang):
   XX=            -23.0772   YY=            -23.4037   ZZ=            -29.3576
   XY=             -0.1829   XZ=             -0.1166   YZ=             -0.1798

 1\1\GINC-NODE21\SP\RB2PLYPD3-FC\def2QZVP\C4H6\BOITTIER\26-Aug-2020\0\\
 #p B2PLYPD3/Def2QZVP\\butadiene\\0,1\C,0,-3.850812,0.236898,0.091135\C
 ,0,-2.723255,-0.532648,-0.041537\C,0,-1.37257,0.065713,-0.038176\C,0,-
 0.242849,-0.624931,0.088439\H,0,-4.863713,-0.155239,0.238244\H,0,-3.79
 7733,1.269221,-0.144547\H,0,-3.009181,-1.672964,-0.1545\H,0,-1.34387,1
 .118008,-0.085779\H,0,-0.281602,-1.720773,0.178236\H,0,0.741382,-0.222
 696,0.072991\\Version=ES64L-G09RevD.01\State=1-A\HF=-155.6814062\MP2=-
 155.9087307\RMSD=3.130e-09\PG=C01 [X(C4H6)]\\@

 Normal termination of Gaussian 09 at Wed Aug 26 15:27:18 2020.
