 Gaussian 09, Revision D.01,
 Gaussian 09:  ES64L-G09RevD.01 24-Apr-2013

 --------------------
 #p B2PLYPD3/Def2QZVP
 --------------------

 ---------
 butadiene
 ---------
 Symbolic Z-matrix:
 Charge =  0 Multiplicity = 1

                         Standard orientation:
 ---------------------------------------------------------------------
 Center     Atomic      Atomic             Coordinates (Angstroms)
 Number     Number       Type             X           Y           Z
 ---------------------------------------------------------------------
      1          6           0       -1.851659   -0.100271    0.048905
      2          6           0       -0.597161    0.357835   -0.075026
      3          6           0        0.639037   -0.434348   -0.046768
      4          6           0        1.836784    0.142271   -0.002985
      5          1           0       -2.705102    0.548786    0.187446
      6          1           0       -2.138558   -1.138498    0.015787
      7          1           0       -0.573742    1.552852   -0.022053
      8          1           0        0.524699   -1.519572   -0.109324
      9          1           0        1.888586    1.223220    0.018208
     10          1           0        2.842109   -0.459714    0.365180
 ---------------------------------------------------------------------

 SCF Done:  E(RB2PLYPD3) =  -155.673465084     A.U. after   11 cycles
 E2(B2PLYPD3) =    -0.2278688137D+00 E(B2PLYPD3) =    -0.15590133389804D+03

 The electronic state is 1-A.
 Alpha  occ. eigenvalues --  -10.64042 -10.63375 -10.63076 -10.61619  -0.92658
 Alpha  occ. eigenvalues --   -0.84816  -0.69322  -0.63230  -0.53803  -0.53274
 Alpha  occ. eigenvalues --   -0.46785  -0.43674  -0.40546  -0.37793  -0.27880
 Alpha virt. eigenvalues --    0.01420   0.06742   0.07099   0.07503   0.09191
 Alpha virt. eigenvalues --    0.11403   0.12349   0.14163   0.15467   0.16294
 Alpha virt. eigenvalues --    0.18790   0.19578   0.21933   0.22348   0.23749

 Mulliken charges:
               1
     1  C   -0.170978
     2  C   -0.026272
     3  C   -0.039337
     4  C   -0.152304
     5  H    0.081152
     6  H    0.060121
     7  H    0.037522
     8  H    0.069344
     9  H    0.069188
    10  H    0.071565
 Sum of Mulliken charges =   0.00000

 Dipole moment (field-independent basis, Debye):
    X=             -0.1163    Y=             -0.0583    Z=              0.3016  Tot=              0.3285
 Quadrupole moment (field-independent basis, Debye-Ang):
   XX=            -23.7287   YY=            -23.3455   ZZ=            -29.3722
   XY=              0.1123   XZ=              0.4684   YZ=              0.0834

 1\1\GINC-NODE16\SP\RB2PLYPD3-FC\def2QZVP\C4H6\BOITTIER\26-Aug-2020\0\\
 #p B2PLYPD3/Def2QZVP\\butadiene\\0,1\C,0,-3.863888,0.196153,-0.028882\
 C,0,-2.705384,-0.467685,0.098287\C,0,-1.352251,0.101238,0.05476\C,0,-0
 .270792,-0.672041,0.016156\H,0,-4.816344,-0.299496,-0.155346\H,0,-3.96
 913,1.26849,-0.010381\H,0,-2.886626,-1.649771,0.063009\H,0,-1.279287,1
 .19082,0.101509\H,0,-0.404423,-1.746145,0.010879\H,0,0.820576,-0.25588
 1,-0.363759\\Version=ES64L-G09RevD.01\State=1-A\HF=-155.6734651\MP2=-1
 55.9013339\RMSD=5.503e-09\PG=C01 [X(C4H6)]\\@

 Normal termination of Gaussian 09 at Wed Aug 26 15:15:28 2020.
