 Gaussian 09, Revision D.01,
 Gaussian 09:  ES64L-G09RevD.01 24-Apr-2013

 --------------------
 #p B2PLYPD3/Def2QZVP
 --------------------

 ---------
 butadiene
 ---------
 Symbolic Z-matrix:
 Charge =  0 Multiplicity = 1

                         Standard orientation:
 ---------------------------------------------------------------------
 Center     Atomic      Atomic             Coordinates (Angstroms)
 Number     Number       Type             X           Y           Z
 ---------------------------------------------------------------------
      1          6           0        1.844162   -0.126308   -0.036822
      2          6           0        0.614069    0.404308    0.030931
      3          6           0       -0.621102   -0.377223   -0.012325
      4          6           0       -1.838727    0.115438   -0.023232
      5          1           0        2.725823    0.476836    0.040205
      6          1           0        1.941978   -1.180812   -0.043695
      7          1           0        0.522740    1.518439    0.104749
      8          1           0       -0.488146   -1.446354    0.159295
      9          1           0       -2.045669    1.138000   -0.069672
     10          1           0       -2.647143   -0.603395    0.057807
 ---------------------------------------------------------------------

 SCF Done:  E(RB2PLYPD3) =  -155.696541693     A.U. after   11 cycles
 E2(B2PLYPD3) =    -0.2253345286D+00 E(B2PLYPD3) =    -0.15592187622133D+03

 The electronic state is 1-A.
 Alpha  occ. eigenvalues --  -10.62901 -10.62244 -10.61205 -10.60844  -0.92985
 Alpha  occ. eigenvalues --   -0.85401  -0.70200  -0.63801  -0.54724  -0.54277
 Alpha  occ. eigenvalues --   -0.46946  -0.45778  -0.40904  -0.37855  -0.27989
 Alpha virt. eigenvalues --    0.01886   0.07059   0.07409   0.07997   0.09666
 Alpha virt. eigenvalues --    0.11731   0.12379   0.14866   0.15510   0.16235
 Alpha virt. eigenvalues --    0.18806   0.20007   0.21712   0.22795   0.24193

 Mulliken charges:
               1
     1  C   -0.173679
     2  C   -0.038468
     3  C   -0.018940
     4  C   -0.181188
     5  H    0.088581
     6  H    0.064664
     7  H    0.046676
     8  H    0.053323
     9  H    0.076029
    10  H    0.083002
 Sum of Mulliken charges =   0.00000

 Dipole moment (field-independent basis, Debye):
    X=             -0.0144    Y=              0.0116    Z=              0.2256  Tot=              0.2263
 Quadrupole moment (field-independent basis, Debye-Ang):
   XX=            -23.5752   YY=            -23.0903   ZZ=            -29.1453
   XY=             -0.1080   XZ=             -0.0261   YZ=             -0.1397

 1\1\GINC-NODE16\SP\RB2PLYPD3-FC\def2QZVP\C4H6\BOITTIER\26-Aug-2020\0\\
 #p B2PLYPD3/Def2QZVP\\butadiene\\0,1\C,0,-3.845806,0.232635,-0.012072\
 C,0,-2.727343,-0.503441,0.068581\C,0,-1.374611,0.048945,0.011167\C,0,-
 0.261946,-0.649209,0.012374\H,0,-4.819208,-0.205288,0.075986\H,0,-3.75
 7695,1.287623,-0.040871\H,0,-2.832133,-1.614611,0.165532\H,0,-1.318175
 ,1.128156,0.160465\H,0,-0.237136,-1.692941,-0.012614\H,0,0.659897,-0.0
 81338,0.079842\\Version=ES64L-G09RevD.01\State=1-A\HF=-155.6965417\MP2
 =-155.9218762\RMSD=6.779e-09\PG=C01 [X(C4H6)]\\@

 Normal termination of Gaussian 09 at Wed Aug 26 09:18:26 2020.
