 Gaussian 09, Revision D.01,
 Gaussian 09:  ES64L-G09RevD.01 24-Apr-2013

 --------------------
 #p B2PLYPD3/Def2QZVP
 --------------------

 ---------
 butadiene
 ---------
 Symbolic Z-matrix:
 Charge =  0 Multiplicity = 1

                         Standard orientation:
 ---------------------------------------------------------------------
 Center     Atomic      Atomic             Coordinates (Angstroms)
 Number     Number       Type             X           Y           Z
 ---------------------------------------------------------------------
      1          6           0       -1.831784    0.113439    0.012037
      2          6           0       -0.597379   -0.414956   -0.025133
      3          6           0        0.587257    0.389961   -0.011936
      4          6           0        1.833425   -0.101441    0.005149
      5          1           0       -2.740964   -0.504953   -0.010108
      6          1           0       -1.950577    1.191201    0.100316
      7          1           0       -0.461369   -1.477665   -0.014380
      8          1           0        0.443641    1.455548   -0.057623
      9          1           0        2.076708   -1.130989    0.093543
     10          1           0        2.683442    0.544838    0.007550
 ---------------------------------------------------------------------

 SCF Done:  E(RB2PLYPD3) =  -155.699481205     A.U. after   11 cycles
 E2(B2PLYPD3) =    -0.2258411822D+00 E(B2PLYPD3) =    -0.15592532238762D+03

 The electronic state is 1-A.
 Alpha  occ. eigenvalues --  -10.62344 -10.62276 -10.61887 -10.61138  -0.93286
 Alpha  occ. eigenvalues --   -0.84696  -0.70511  -0.64515  -0.54776  -0.53956
 Alpha  occ. eigenvalues --   -0.46577  -0.45714  -0.41513  -0.38255  -0.27381
 Alpha virt. eigenvalues --    0.01474   0.07006   0.07480   0.08090   0.09597
 Alpha virt. eigenvalues --    0.11700   0.12496   0.14878   0.15823   0.16225
 Alpha virt. eigenvalues --    0.18743   0.20424   0.21889   0.22760   0.23799

 Mulliken charges:
               1
     1  C   -0.175457
     2  C   -0.031801
     3  C   -0.027043
     4  C   -0.178682
     5  H    0.085447
     6  H    0.064500
     7  H    0.059378
     8  H    0.056629
     9  H    0.066795
    10  H    0.080234
 Sum of Mulliken charges =   0.00000

 Dipole moment (field-independent basis, Debye):
    X=              0.0090    Y=             -0.0257    Z=              0.0908  Tot=              0.0948
 Quadrupole moment (field-independent basis, Debye-Ang):
   XX=            -23.4494   YY=            -23.1217   ZZ=            -29.2270
   XY=             -0.2340   XZ=              0.0334   YZ=             -0.0340

 1\1\GINC-NODE30\SP\RB2PLYPD3-FC\def2QZVP\C4H6\BOITTIER\26-Aug-2020\0\\
 #p B2PLYPD3/Def2QZVP\\butadiene\\0,1\C,0,-3.830345,0.235126,0.030981\C
 ,0,-2.714411,-0.512348,0.013318\C,0,-1.401835,0.060783,0.003752\C,0,-0
 .267336,-0.650806,0.039175\H,0,-4.837877,-0.205743,0.026332\H,0,-3.748
 442,1.318575,0.084891\H,0,-2.776265,-1.581061,0.057954\H,0,-1.347053,1
 .132624,-0.075908\H,0,-0.217368,-1.704242,0.160607\H,0,0.687105,-0.172
 272,0.023074\\Version=ES64L-G09RevD.01\State=1-A\HF=-155.6994812\MP2=-
 155.9253224\RMSD=3.413e-09\PG=C01 [X(C4H6)]\\@

 Normal termination of Gaussian 09 at Wed Aug 26 19:09:25 2020.
