 Gaussian 09, Revision D.01,
 Gaussian 09:  ES64L-G09RevD.01 24-Apr-2013

 --------------------
 #p B2PLYPD3/Def2QZVP
 --------------------

 ---------
 butadiene
 ---------
 Symbolic Z-matrix:
 Charge =  0 Multiplicity = 1

                         Standard orientation:
 ---------------------------------------------------------------------
 Center     Atomic      Atomic             Coordinates (Angstroms)
 Number     Number       Type             X           Y           Z
 ---------------------------------------------------------------------
      1          6           0        1.853140   -0.111425   -0.034160
      2          6           0        0.595954    0.363156    0.080798
      3          6           0       -0.624346   -0.423729    0.041700
      4          6           0       -1.872414    0.134806   -0.066935
      5          1           0        2.574394    0.659030   -0.190740
      6          1           0        2.186401   -1.043814   -0.148934
      7          1           0        0.537622    1.434138    0.097036
      8          1           0       -0.375029   -1.475595    0.234154
      9          1           0       -1.965910    1.223885    0.038346
     10          1           0       -2.671480   -0.574495   -0.158278
 ---------------------------------------------------------------------

 SCF Done:  E(RB2PLYPD3) =  -155.680524926     A.U. after   12 cycles
 E2(B2PLYPD3) =    -0.2270260364D+00 E(B2PLYPD3) =    -0.15590755096267D+03

 The electronic state is 1-A.
 Alpha  occ. eigenvalues --  -10.63234 -10.62422 -10.62374 -10.60497  -0.92658
 Alpha  occ. eigenvalues --   -0.84750  -0.71085  -0.64446  -0.55102  -0.53291
 Alpha  occ. eigenvalues --   -0.47306  -0.45940  -0.41434  -0.37130  -0.27212
 Alpha virt. eigenvalues --    0.01001   0.06932   0.07534   0.08062   0.09245
 Alpha virt. eigenvalues --    0.11661   0.12289   0.15041   0.15279   0.16177
 Alpha virt. eigenvalues --    0.18519   0.20237   0.21543   0.22495   0.24881

 Mulliken charges:
               1
     1  C   -0.177618
     2  C   -0.013379
     3  C   -0.053731
     4  C   -0.188927
     5  H    0.069259
     6  H    0.070983
     7  H    0.049842
     8  H    0.064859
     9  H    0.084609
    10  H    0.094104
 Sum of Mulliken charges =   0.00000

 Dipole moment (field-independent basis, Debye):
    X=              0.0318    Y=             -0.0273    Z=             -0.0435  Tot=              0.0604
 Quadrupole moment (field-independent basis, Debye-Ang):
   XX=            -24.0398   YY=            -22.9271   ZZ=            -29.2411
   XY=             -0.3648   XZ=             -0.5712   YZ=              0.0113

 1\1\GINC-NODE39\SP\RB2PLYPD3-FC\def2QZVP\C4H6\BOITTIER\26-Aug-2020\0\\
 #p B2PLYPD3/Def2QZVP\\butadiene\\0,1\C,0,-3.860637,0.227321,-0.024216\
 C,0,-2.710843,-0.465381,0.106543\C,0,-1.367849,0.08613,0.061236\C,0,-0
 .241636,-0.691511,-0.030164\H,0,-4.709347,-0.402148,-0.171816\H,0,-4.0
 18744,1.202476,-0.157111\H,0,-2.84798,-1.528692,0.14165\H,0,-1.422581,
 1.169084,0.233961\H,0,-0.34773,-1.777385,0.094497\H,0,0.673188,-0.1407
 8,-0.128916\\Version=ES64L-G09RevD.01\State=1-A\HF=-155.6805249\MP2=-1
 55.907551\RMSD=4.405e-09\PG=C01 [X(C4H6)]\\@

 Normal termination of Gaussian 09 at Wed Aug 26 13:03:54 2020.
