 Gaussian 09, Revision D.01,
 Gaussian 09:  ES64L-G09RevD.01 24-Apr-2013

 --------------------
 #p B2PLYPD3/Def2QZVP
 --------------------

 ---------
 butadiene
 ---------
 Symbolic Z-matrix:
 Charge =  0 Multiplicity = 1

                         Standard orientation:
 ---------------------------------------------------------------------
 Center     Atomic      Atomic             Coordinates (Angstroms)
 Number     Number       Type             X           Y           Z
 ---------------------------------------------------------------------
      1          6           0       -1.831152   -0.085875   -0.049554
      2          6           0       -0.588170    0.369144    0.048544
      3          6           0        0.602279   -0.431801    0.002421
      4          6           0        1.833695    0.131716   -0.032283
      5          1           0       -2.771755    0.501538    0.024715
      6          1           0       -1.964517   -1.122180   -0.059068
      7          1           0       -0.469811    1.464762    0.123284
      8          1           0        0.471381   -1.501414    0.157100
      9          1           0        1.898775    1.221265   -0.090723
     10          1           0        2.736017   -0.463069    0.029931
 ---------------------------------------------------------------------

 SCF Done:  E(RB2PLYPD3) =  -155.694733843     A.U. after   11 cycles
 E2(B2PLYPD3) =    -0.2264009241D+00 E(B2PLYPD3) =    -0.15592113476720D+03

 The electronic state is 1-A.
 Alpha  occ. eigenvalues --  -10.62863 -10.62390 -10.62097 -10.61150  -0.93261
 Alpha  occ. eigenvalues --   -0.84755  -0.70185  -0.64100  -0.54716  -0.53736
 Alpha  occ. eigenvalues --   -0.46689  -0.45312  -0.41352  -0.38017  -0.27540
 Alpha virt. eigenvalues --    0.01446   0.07066   0.07392   0.07942   0.09543
 Alpha virt. eigenvalues --    0.11620   0.12643   0.14542   0.15572   0.16412
 Alpha virt. eigenvalues --    0.18793   0.19978   0.21807   0.22700   0.23716

 Mulliken charges:
               1
     1  C   -0.169248
     2  C   -0.020426
     3  C   -0.036955
     4  C   -0.178590
     5  H    0.082486
     6  H    0.056972
     7  H    0.047319
     8  H    0.059189
     9  H    0.069223
    10  H    0.090029
 Sum of Mulliken charges =   0.00000

 Dipole moment (field-independent basis, Debye):
    X=              0.0310    Y=             -0.0402    Z=              0.2048  Tot=              0.2110
 Quadrupole moment (field-independent basis, Debye-Ang):
   XX=            -23.3428   YY=            -23.3161   ZZ=            -29.2598
   XY=              0.0137   XZ=              0.0047   YZ=             -0.1369

 1\1\GINC-NODE40\SP\RB2PLYPD3-FC\def2QZVP\C4H6\BOITTIER\26-Aug-2020\0\\
 #p B2PLYPD3/Def2QZVP\\butadiene\\0,1\C,0,-3.840706,0.197637,0.062735\C
 ,0,-2.699672,-0.476081,-0.013522\C,0,-1.384969,0.10025,0.000886\C,0,-0
 .273959,-0.672456,0.061895\H,0,-4.871577,-0.21467,0.01163\H,0,-3.78659
 9,1.240551,0.027981\H,0,-2.779517,-1.577362,-0.041446\H,0,-1.323411,1.
 168547,-0.199322\H,0,-0.404383,-1.752632,0.166668\H,0,0.719793,-0.2518
 05,-0.023748\\Version=ES64L-G09RevD.01\State=1-A\HF=-155.6947338\MP2=-
 155.9211348\RMSD=8.272e-09\PG=C01 [X(C4H6)]\\@

 Normal termination of Gaussian 09 at Wed Aug 26 09:50:09 2020.
