 Gaussian 09, Revision D.01,
 Gaussian 09:  ES64L-G09RevD.01 24-Apr-2013

 --------------------
 #p B2PLYPD3/Def2QZVP
 --------------------

 ---------
 butadiene
 ---------
 Symbolic Z-matrix:
 Charge =  0 Multiplicity = 1

                         Standard orientation:
 ---------------------------------------------------------------------
 Center     Atomic      Atomic             Coordinates (Angstroms)
 Number     Number       Type             X           Y           Z
 ---------------------------------------------------------------------
      1          6           0       -1.826437    0.107908   -0.008784
      2          6           0       -0.598299   -0.439617   -0.018136
      3          6           0        0.579684    0.405864   -0.005281
      4          6           0        1.836295   -0.099147    0.021250
      5          1           0       -2.762579   -0.450641    0.123502
      6          1           0       -1.935417    1.221018    0.077793
      7          1           0       -0.472749   -1.491176   -0.116791
      8          1           0        0.419601    1.491800   -0.072538
      9          1           0        2.077572   -1.180326    0.087363
     10          1           0        2.726113    0.559287   -0.033625
 ---------------------------------------------------------------------

 SCF Done:  E(RB2PLYPD3) =  -155.694289507     A.U. after   11 cycles
 E2(B2PLYPD3) =    -0.2271289876D+00 E(B2PLYPD3) =    -0.15592141849433D+03

 The electronic state is 1-A.
 Alpha  occ. eigenvalues --  -10.63094 -10.62620 -10.62328 -10.62212  -0.92886
 Alpha  occ. eigenvalues --   -0.84128  -0.69627  -0.64247  -0.54418  -0.53169
 Alpha  occ. eigenvalues --   -0.46442  -0.44791  -0.41399  -0.37963  -0.27337
 Alpha virt. eigenvalues --    0.01437   0.06993   0.07244   0.07988   0.09096
 Alpha virt. eigenvalues --    0.11598   0.12456   0.14478   0.15712   0.16268
 Alpha virt. eigenvalues --    0.18733   0.20022   0.21759   0.22831   0.23530

 Mulliken charges:
               1
     1  C   -0.164505
     2  C   -0.035325
     3  C   -0.032636
     4  C   -0.177995
     5  H    0.081301
     6  H    0.053636
     7  H    0.068754
     8  H    0.060898
     9  H    0.066418
    10  H    0.079455
 Sum of Mulliken charges =   0.00000

 Dipole moment (field-independent basis, Debye):
    X=             -0.0139    Y=             -0.0469    Z=              0.0452  Tot=              0.0665
 Quadrupole moment (field-independent basis, Debye-Ang):
   XX=            -23.6471   YY=            -23.1058   ZZ=            -29.4400
   XY=             -0.2648   XZ=             -0.4387   YZ=             -0.0526

 1\1\GINC-NODE07\SP\RB2PLYPD3-FC\def2QZVP\C4H6\BOITTIER\26-Aug-2020\0\\
 #p B2PLYPD3/Def2QZVP\\butadiene\\0,1\C,0,-3.82538,0.231756,0.016328\C,
 0,-2.720031,-0.534,0.020489\C,0,-1.405742,0.078482,0.007942\C,0,-0.264
 3,-0.649814,0.04674\H,0,-4.847897,-0.139757,0.165573\H,0,-3.725673,1.3
 47712,0.071884\H,0,-2.792132,-1.592895,-0.048888\H,0,-1.362308,1.17303
 1,-0.08944\H,0,-0.227074,-1.754773,0.142725\H,0,0.731716,-0.16949,-0.0
 27851\\Version=ES64L-G09RevD.01\State=1-A\HF=-155.6942895\MP2=-155.921
 4185\RMSD=3.573e-09\PG=C01 [X(C4H6)]\\@

 Normal termination of Gaussian 09 at Wed Aug 26 09:24:26 2020.
