 Gaussian 09, Revision D.01,
 Gaussian 09:  ES64L-G09RevD.01 24-Apr-2013

 --------------------
 #p B2PLYPD3/Def2QZVP
 --------------------

 ---------
 butadiene
 ---------
 Symbolic Z-matrix:
 Charge =  0 Multiplicity = 1

                         Standard orientation:
 ---------------------------------------------------------------------
 Center     Atomic      Atomic             Coordinates (Angstroms)
 Number     Number       Type             X           Y           Z
 ---------------------------------------------------------------------
      1          6           0        1.826833   -0.097635    0.001381
      2          6           0        0.568697    0.394970    0.016595
      3          6           0       -0.594791   -0.428785    0.007953
      4          6           0       -1.823367    0.110889   -0.020610
      5          1           0        2.667451    0.536004   -0.092255
      6          1           0        2.071855   -1.113778   -0.063181
      7          1           0        0.494266    1.493096    0.113938
      8          1           0       -0.414898   -1.496384    0.058129
      9          1           0       -1.997207    1.185606   -0.079048
     10          1           0       -2.685696   -0.481173    0.030510
 ---------------------------------------------------------------------

 SCF Done:  E(RB2PLYPD3) =  -155.695407958     A.U. after   11 cycles
 E2(B2PLYPD3) =    -0.2260373655D+00 E(B2PLYPD3) =    -0.15592144532361D+03

 The electronic state is 1-A.
 Alpha  occ. eigenvalues --  -10.62614 -10.62535 -10.61376 -10.60814  -0.93275
 Alpha  occ. eigenvalues --   -0.84673  -0.70970  -0.64291  -0.55165  -0.54040
 Alpha  occ. eigenvalues --   -0.46434  -0.45608  -0.41832  -0.38188  -0.27164
 Alpha virt. eigenvalues --    0.01384   0.07095   0.07402   0.08087   0.09448
 Alpha virt. eigenvalues --    0.11671   0.12604   0.14965   0.15824   0.16348
 Alpha virt. eigenvalues --    0.18706   0.20110   0.22294   0.22887   0.23861

 Mulliken charges:
               1
     1  C   -0.181016
     2  C   -0.019778
     3  C   -0.039512
     4  C   -0.172683
     5  H    0.078306
     6  H    0.061335
     7  H    0.057196
     8  H    0.062681
     9  H    0.068453
    10  H    0.085019
 Sum of Mulliken charges =   0.00000

 Dipole moment (field-independent basis, Debye):
    X=             -0.0369    Y=             -0.0256    Z=             -0.0188  Tot=              0.0487
 Quadrupole moment (field-independent basis, Debye-Ang):
   XX=            -23.4641   YY=            -23.0344   ZZ=            -29.2010
   XY=             -0.3619   XZ=             -0.3293   YZ=             -0.0400

 1\1\GINC-NODE31\SP\RB2PLYPD3-FC\def2QZVP\C4H6\BOITTIER\26-Aug-2020\0\\
 #p B2PLYPD3/Def2QZVP\\butadiene\\0,1\C,0,-3.831205,0.222758,0.015229\C
 ,0,-2.688214,-0.497082,0.049894\C,0,-1.39052,0.09252,0.023223\C,0,-0.2
 85459,-0.669216,0.015323\H,0,-4.77612,-0.243849,-0.064256\H,0,-3.88071
 5,1.264592,-0.079009\H,0,-2.821642,-1.586378,0.178452\H,0,-1.366276,1.
 175888,0.042516\H,0,-0.316996,-1.758669,-0.012055\H,0,0.672916,-0.2487
 22,0.053577\\Version=ES64L-G09RevD.01\State=1-A\HF=-155.695408\MP2=-15
 5.9214453\RMSD=3.120e-09\PG=C01 [X(C4H6)]\\@

 Normal termination of Gaussian 09 at Wed Aug 26 09:34:41 2020.
