 Gaussian 09, Revision D.01,
 Gaussian 09:  ES64L-G09RevD.01 24-Apr-2013

 --------------------
 #p B2PLYPD3/Def2QZVP
 --------------------

 ---------
 butadiene
 ---------
 Symbolic Z-matrix:
 Charge =  0 Multiplicity = 1

                         Standard orientation:
 ---------------------------------------------------------------------
 Center     Atomic      Atomic             Coordinates (Angstroms)
 Number     Number       Type             X           Y           Z
 ---------------------------------------------------------------------
      1          6           0       -1.874733    0.096594    0.045502
      2          6           0       -0.626763   -0.354210   -0.098467
      3          6           0        0.659076    0.402829   -0.016941
      4          6           0        1.858105   -0.140629    0.027038
      5          1           0       -2.723394   -0.593049   -0.019327
      6          1           0       -2.010009    1.193847    0.295098
      7          1           0       -0.541387   -1.400947   -0.089963
      8          1           0        0.475997    1.509202   -0.195816
      9          1           0        1.909442   -1.237210    0.287671
     10          1           0        2.795240    0.500649   -0.020460
 ---------------------------------------------------------------------

 SCF Done:  E(RB2PLYPD3) =  -155.683394293     A.U. after   11 cycles
 E2(B2PLYPD3) =    -0.2267988238D+00 E(B2PLYPD3) =    -0.15591019311730D+03

 The electronic state is 1-A.
 Alpha  occ. eigenvalues --  -10.63307 -10.62658 -10.62365 -10.62237  -0.92506
 Alpha  occ. eigenvalues --   -0.85215  -0.69094  -0.63118  -0.53957  -0.53179
 Alpha  occ. eigenvalues --   -0.47206  -0.44845  -0.39859  -0.37624  -0.28316
 Alpha virt. eigenvalues --    0.01721   0.06913   0.07280   0.07740   0.09396
 Alpha virt. eigenvalues --    0.11613   0.11997   0.14481   0.15173   0.16244
 Alpha virt. eigenvalues --    0.18684   0.19290   0.21106   0.21964   0.23982

 Mulliken charges:
               1
     1  C   -0.175573
     2  C   -0.031019
     3  C   -0.035055
     4  C   -0.172561
     5  H    0.093725
     6  H    0.060247
     7  H    0.051211
     8  H    0.050147
     9  H    0.069080
    10  H    0.089800
 Sum of Mulliken charges =   0.00000

 Dipole moment (field-independent basis, Debye):
    X=              0.0180    Y=             -0.0686    Z=              0.1779  Tot=              0.1915
 Quadrupole moment (field-independent basis, Debye-Ang):
   XX=            -23.6173   YY=            -23.4752   ZZ=            -29.2621
   XY=              0.3588   XZ=             -0.1387   YZ=             -0.1889

 1\1\GINC-NODE30\SP\RB2PLYPD3-FC\def2QZVP\C4H6\BOITTIER\26-Aug-2020\0\\
 #p B2PLYPD3/Def2QZVP\\butadiene\\0,1\C,0,-3.885814,0.196788,0.067875\C
 ,0,-2.732126,-0.463593,-0.05163\C,0,-1.337094,0.070466,-0.009161\C,0,-
 0.245612,-0.663214,0.063849\H,0,-4.838432,-0.343313,0.038786\H,0,-3.83
 3478,1.31261,0.259613\H,0,-2.823074,-1.507976,0.011706\H,0,-1.333892,1
 .181125,-0.245809\H,0,-0.37638,-1.737931,0.381559\H,0,0.785208,-0.1913
 62,-0.016656\\Version=ES64L-G09RevD.01\State=1-A\HF=-155.6833943\MP2=-
 155.9101931\RMSD=6.747e-09\PG=C01 [X(C4H6)]\\@

 Normal termination of Gaussian 09 at Wed Aug 26 14:39:50 2020.
