 Gaussian 09, Revision D.01,
 Gaussian 09:  ES64L-G09RevD.01 24-Apr-2013

 --------------------
 #p B2PLYPD3/Def2QZVP
 --------------------

 ---------
 butadiene
 ---------
 Symbolic Z-matrix:
 Charge =  0 Multiplicity = 1

                         Standard orientation:
 ---------------------------------------------------------------------
 Center     Atomic      Atomic             Coordinates (Angstroms)
 Number     Number       Type             X           Y           Z
 ---------------------------------------------------------------------
      1          6           0        1.850223   -0.105921    0.042833
      2          6           0        0.613141    0.374675   -0.028495
      3          6           0       -0.605989   -0.392776   -0.036973
      4          6           0       -1.831216    0.111868    0.013794
      5          1           0        2.688976    0.573707   -0.067675
      6          1           0        2.002940   -1.151623    0.159605
      7          1           0        0.409644    1.473586   -0.109700
      8          1           0       -0.501972   -1.488486   -0.161599
      9          1           0       -2.027584    1.181143    0.152323
     10          1           0       -2.728956   -0.515403    0.080096
 ---------------------------------------------------------------------

 SCF Done:  E(RB2PLYPD3) =  -155.696875064     A.U. after   11 cycles
 E2(B2PLYPD3) =    -0.2258879901D+00 E(B2PLYPD3) =    -0.15592276305418D+03

 The electronic state is 1-A.
 Alpha  occ. eigenvalues --  -10.62677 -10.62547 -10.61784 -10.61387  -0.93197
 Alpha  occ. eigenvalues --   -0.85134  -0.70356  -0.63382  -0.54640  -0.53878
 Alpha  occ. eigenvalues --   -0.47010  -0.45405  -0.40459  -0.38218  -0.27890
 Alpha virt. eigenvalues --    0.01596   0.07018   0.07336   0.07916   0.09826
 Alpha virt. eigenvalues --    0.11668   0.12326   0.14836   0.15647   0.16070
 Alpha virt. eigenvalues --    0.18807   0.19896   0.21855   0.22490   0.23638

 Mulliken charges:
               1
     1  C   -0.182975
     2  C   -0.024606
     3  C   -0.026548
     4  C   -0.169731
     5  H    0.092712
     6  H    0.072529
     7  H    0.046037
     8  H    0.050368
     9  H    0.059863
    10  H    0.082351
 Sum of Mulliken charges =   0.00000

 Dipole moment (field-independent basis, Debye):
    X=             -0.0407    Y=             -0.0223    Z=              0.0230  Tot=              0.0518
 Quadrupole moment (field-independent basis, Debye-Ang):
   XX=            -23.4491   YY=            -23.3272   ZZ=            -29.1735
   XY=             -0.1930   XZ=             -0.4054   YZ=             -0.0597

 1\1\GINC-NODE10\SP\RB2PLYPD3-FC\def2QZVP\C4H6\BOITTIER\26-Aug-2020\0\\
 #p B2PLYPD3/Def2QZVP\\butadiene\\0,1\C,0,-3.850261,0.222076,0.055457\C
 ,0,-2.720057,-0.475428,0.004854\C,0,-1.382614,0.059275,-0.021023\C,0,-
 0.268322,-0.655972,0.051085\H,0,-4.797808,-0.298459,-0.038407\H,0,-3.8
 12,1.281278,0.139582\H,0,-2.717931,-1.594993,-0.041851\H,0,-1.287603,1
 .151429,-0.179466\H,0,-0.267721,-1.73834,0.223071\H,0,0.727784,-0.1989
 ,0.102648\\Version=ES64L-G09RevD.01\State=1-A\HF=-155.6968751\MP2=-155
 .9227631\RMSD=5.202e-09\PG=C01 [X(C4H6)]\\@

 Normal termination of Gaussian 09 at Wed Aug 26 10:49:54 2020.
