 Gaussian 09, Revision D.01,
 Gaussian 09:  ES64L-G09RevD.01 24-Apr-2013

 --------------------
 #p B2PLYPD3/Def2QZVP
 --------------------

 ---------
 butadiene
 ---------
 Symbolic Z-matrix:
 Charge =  0 Multiplicity = 1

                         Standard orientation:
 ---------------------------------------------------------------------
 Center     Atomic      Atomic             Coordinates (Angstroms)
 Number     Number       Type             X           Y           Z
 ---------------------------------------------------------------------
      1          6           0        1.838171   -0.120074   -0.011658
      2          6           0        0.600912    0.410973    0.003904
      3          6           0       -0.609659   -0.388538    0.023943
      4          6           0       -1.846404    0.097836   -0.020614
      5          1           0        2.712991    0.518743   -0.031874
      6          1           0        2.049488   -1.197007   -0.002970
      7          1           0        0.528272    1.514796    0.044020
      8          1           0       -0.451500   -1.452872    0.033997
      9          1           0       -2.047129    1.165896    0.021220
     10          1           0       -2.690237   -0.550737   -0.037843
 ---------------------------------------------------------------------

 SCF Done:  E(RB2PLYPD3) =  -155.699814278     A.U. after   11 cycles
 E2(B2PLYPD3) =    -0.2258906428D+00 E(B2PLYPD3) =    -0.15592570492114D+03

 The electronic state is 1-A.
 Alpha  occ. eigenvalues --  -10.62926 -10.62376 -10.61862 -10.61300  -0.92892
 Alpha  occ. eigenvalues --   -0.84843  -0.70262  -0.63867  -0.54689  -0.53854
 Alpha  occ. eigenvalues --   -0.46577  -0.45492  -0.41171  -0.38064  -0.27625
 Alpha virt. eigenvalues --    0.01637   0.07011   0.07385   0.08018   0.09615
 Alpha virt. eigenvalues --    0.11607   0.12372   0.14747   0.15883   0.16194
 Alpha virt. eigenvalues --    0.18837   0.20509   0.21640   0.22701   0.23711

 Mulliken charges:
               1
     1  C   -0.175756
     2  C   -0.030429
     3  C   -0.032373
     4  C   -0.173140
     5  H    0.082417
     6  H    0.064966
     7  H    0.053935
     8  H    0.057439
     9  H    0.066927
    10  H    0.086015
 Sum of Mulliken charges =   0.00000

 Dipole moment (field-independent basis, Debye):
    X=              0.0162    Y=             -0.0149    Z=              0.0464  Tot=              0.0513
 Quadrupole moment (field-independent basis, Debye-Ang):
   XX=            -23.4169   YY=            -23.0700   ZZ=            -29.3109
   XY=             -0.1930   XZ=             -0.0122   YZ=              0.0617

 1\1\GINC-NODE29\SP\RB2PLYPD3-FC\def2QZVP\C4H6\BOITTIER\26-Aug-2020\0\\
 #p B2PLYPD3/Def2QZVP\\butadiene\\0,1\C,0,-3.840153,0.235252,0.005836\C
 ,0,-2.719317,-0.510044,0.042225\C,0,-1.384016,0.057448,0.037266\C,0,-0
 .255856,-0.645902,0.012035\H,0,-4.816178,-0.235049,0.005788\H,0,-3.853
 131,1.332301,-0.022964\H,0,-2.847387,-1.606763,0.120437\H,0,-1.346987,
 1.132542,0.010376\H,0,-0.251479,-1.730586,0.090999\H,0,0.691301,-0.161
 687,-0.02574\\Version=ES64L-G09RevD.01\State=1-A\HF=-155.6998143\MP2=-
 155.9257049\RMSD=4.711e-09\PG=C01 [X(C4H6)]\\@

 Normal termination of Gaussian 09 at Wed Aug 26 15:38:25 2020.
