 Gaussian 09, Revision D.01,
 Gaussian 09:  ES64L-G09RevD.01 24-Apr-2013

 --------------------
 #p B2PLYPD3/Def2QZVP
 --------------------

 ---------
 butadiene
 ---------
 Symbolic Z-matrix:
 Charge =  0 Multiplicity = 1

                         Standard orientation:
 ---------------------------------------------------------------------
 Center     Atomic      Atomic             Coordinates (Angstroms)
 Number     Number       Type             X           Y           Z
 ---------------------------------------------------------------------
      1          6           0       -1.847426    0.111925    0.026381
      2          6           0       -0.606028   -0.403516   -0.040869
      3          6           0        0.593053    0.369760   -0.055338
      4          6           0        1.841479   -0.099336    0.048673
      5          1           0       -2.735529   -0.496262    0.061178
      6          1           0       -1.974347    1.212827    0.047324
      7          1           0       -0.475291   -1.473182    0.035496
      8          1           0        0.522225    1.435423   -0.041906
      9          1           0        2.108806   -1.099460   -0.064922
     10          1           0        2.667666    0.547658    0.089741
 ---------------------------------------------------------------------

 SCF Done:  E(RB2PLYPD3) =  -155.695730473     A.U. after   11 cycles
 E2(B2PLYPD3) =    -0.2257641604D+00 E(B2PLYPD3) =    -0.15592149463389D+03

 The electronic state is 1-A.
 Alpha  occ. eigenvalues --  -10.62523 -10.62153 -10.62032 -10.60688  -0.93284
 Alpha  occ. eigenvalues --   -0.84982  -0.71013  -0.64403  -0.55097  -0.54179
 Alpha  occ. eigenvalues --   -0.46814  -0.45637  -0.41420  -0.38264  -0.27426
 Alpha virt. eigenvalues --    0.01237   0.07012   0.07609   0.08069   0.09728
 Alpha virt. eigenvalues --    0.11665   0.12572   0.14841   0.15788   0.16389
 Alpha virt. eigenvalues --    0.18840   0.20199   0.21758   0.23017   0.23964

 Mulliken charges:
               1
     1  C   -0.172880
     2  C   -0.036049
     3  C   -0.025055
     4  C   -0.173110
     5  H    0.090005
     6  H    0.063085
     7  H    0.057976
     8  H    0.053626
     9  H    0.065690
    10  H    0.076713
 Sum of Mulliken charges =   0.00000

 Dipole moment (field-independent basis, Debye):
    X=              0.0166    Y=             -0.0182    Z=              0.0380  Tot=              0.0453
 Quadrupole moment (field-independent basis, Debye-Ang):
   XX=            -23.1735   YY=            -23.2591   ZZ=            -29.1644
   XY=             -0.0778   XZ=             -0.2119   YZ=              0.0686

 1\1\GINC-NODE24\SP\RB2PLYPD3-FC\def2QZVP\C4H6\BOITTIER\26-Aug-2020\0\\
 #p B2PLYPD3/Def2QZVP\\butadiene\\0,1\C,0,-3.845793,0.232238,0.050971\C
 ,0,-2.718631,-0.501091,-0.003874\C,0,-1.399375,0.041512,-0.03712\C,0,-
 0.256144,-0.643454,0.078124\H,0,-4.829221,-0.203931,0.100526\H,0,-3.77
 1069,1.338093,0.045289\H,0,-2.783511,-1.574615,0.098331\H,0,-1.275905,
 1.102379,-0.049462\H,0,-0.174941,-1.677877,-0.011266\H,0,0.673761,-0.1
 56108,0.103477\\Version=ES64L-G09RevD.01\State=1-A\HF=-155.6957305\MP2
 =-155.9214946\RMSD=5.985e-09\PG=C01 [X(C4H6)]\\@

 Normal termination of Gaussian 09 at Wed Aug 26 08:54:12 2020.
