 Gaussian 09, Revision D.01,
 Gaussian 09:  ES64L-G09RevD.01 24-Apr-2013

 --------------------
 #p B2PLYPD3/Def2QZVP
 --------------------

 ---------
 butadiene
 ---------
 Symbolic Z-matrix:
 Charge =  0 Multiplicity = 1

                         Standard orientation:
 ---------------------------------------------------------------------
 Center     Atomic      Atomic             Coordinates (Angstroms)
 Number     Number       Type             X           Y           Z
 ---------------------------------------------------------------------
      1          6           0       -1.825722   -0.116913    0.010176
      2          6           0       -0.601714    0.417059   -0.029436
      3          6           0        0.586657   -0.391703   -0.009965
      4          6           0        1.831281    0.097111    0.000435
      5          1           0       -2.735826    0.497746    0.061644
      6          1           0       -1.977721   -1.172083   -0.000482
      7          1           0       -0.436176    1.481766    0.015449
      8          1           0        0.457702   -1.452355    0.010994
      9          1           0        2.045372    1.157668    0.038410
     10          1           0        2.703632   -0.546065    0.046724
 ---------------------------------------------------------------------

 SCF Done:  E(RB2PLYPD3) =  -155.700271708     A.U. after   11 cycles
 E2(B2PLYPD3) =    -0.2256749873D+00 E(B2PLYPD3) =    -0.15592594669535D+03

 The electronic state is 1-A.
 Alpha  occ. eigenvalues --  -10.62403 -10.62164 -10.61610 -10.61452  -0.93311
 Alpha  occ. eigenvalues --   -0.84754  -0.70322  -0.64540  -0.54652  -0.53990
 Alpha  occ. eigenvalues --   -0.46755  -0.45550  -0.41297  -0.38316  -0.27516
 Alpha virt. eigenvalues --    0.01647   0.07007   0.07450   0.08100   0.09588
 Alpha virt. eigenvalues --    0.11705   0.12504   0.14807   0.15867   0.16176
 Alpha virt. eigenvalues --    0.18758   0.20476   0.21864   0.22796   0.23816

 Mulliken charges:
               1
     1  C   -0.174118
     2  C   -0.031029
     3  C   -0.026572
     4  C   -0.177747
     5  H    0.081714
     6  H    0.068403
     7  H    0.059385
     8  H    0.056289
     9  H    0.062196
    10  H    0.081478
 Sum of Mulliken charges =   0.00000

 Dipole moment (field-independent basis, Debye):
    X=             -0.0272    Y=             -0.0150    Z=              0.1295  Tot=              0.1332
 Quadrupole moment (field-independent basis, Debye-Ang):
   XX=            -23.4639   YY=            -23.1203   ZZ=            -29.2254
   XY=              0.2989   XZ=              0.0240   YZ=              0.0688

 1\1\GINC-NODE27\SP\RB2PLYPD3-FC\def2QZVP\C4H6\BOITTIER\26-Aug-2020\0\\
 #p B2PLYPD3/Def2QZVP\\butadiene\\0,1\C,0,-3.823854,0.23603,0.005542\C,
 0,-2.71897,-0.513032,0.060559\C,0,-1.402072,0.062306,0.022249\C,0,-0.2
 68771,-0.647447,0.02615\H,0,-4.831734,-0.201626,-0.031598\H,0,-3.77893
 5,1.301071,-0.010913\H,0,-2.752448,-1.590804,0.04306\H,0,-1.333596,1.1
 2769,-0.025917\H,0,-0.25374,-1.729907,0.015526\H,0,0.706936,-0.177294,
 -0.035218\\Version=ES64L-G09RevD.01\State=1-A\HF=-155.7002717\MP2=-155
 .9259467\RMSD=4.261e-09\PG=C01 [X(C4H6)]\\@

 Normal termination of Gaussian 09 at Wed Aug 26 19:13:53 2020.
