 Gaussian 09, Revision D.01,
 Gaussian 09:  ES64L-G09RevD.01 24-Apr-2013

 --------------------
 #p B2PLYPD3/Def2QZVP
 --------------------

 ---------
 butadiene
 ---------
 Symbolic Z-matrix:
 Charge =  0 Multiplicity = 1

                         Standard orientation:
 ---------------------------------------------------------------------
 Center     Atomic      Atomic             Coordinates (Angstroms)
 Number     Number       Type             X           Y           Z
 ---------------------------------------------------------------------
      1          6           0       -1.852107    0.122698    0.056487
      2          6           0       -0.655055   -0.428212   -0.042461
      3          6           0        0.600338    0.343845   -0.062862
      4          6           0        1.865161   -0.089243    0.039782
      5          1           0       -2.886675   -0.361980   -0.086243
      6          1           0       -1.871726    1.259383    0.258253
      7          1           0       -0.484866   -1.498829   -0.151887
      8          1           0        0.538787    1.408270   -0.206165
      9          1           0        2.178834   -1.104407    0.256765
     10          1           0        2.775624    0.603034   -0.016399
 ---------------------------------------------------------------------

 SCF Done:  E(RB2PLYPD3) =  -155.684161644     A.U. after   11 cycles
 E2(B2PLYPD3) =    -0.2269038845D+00 E(B2PLYPD3) =    -0.15591106552850D+03

 The electronic state is 1-A.
 Alpha  occ. eigenvalues --  -10.63242 -10.63054 -10.62815 -10.62347  -0.92666
 Alpha  occ. eigenvalues --   -0.84759  -0.69383  -0.63767  -0.54321  -0.52875
 Alpha  occ. eigenvalues --   -0.47507  -0.44009  -0.39942  -0.37730  -0.28147
 Alpha virt. eigenvalues --    0.01516   0.06830   0.07344   0.07820   0.09518
 Alpha virt. eigenvalues --    0.11333   0.12288   0.14301   0.15824   0.16076
 Alpha virt. eigenvalues --    0.18992   0.19841   0.21184   0.21674   0.23646

 Mulliken charges:
               1
     1  C   -0.151937
     2  C   -0.049071
     3  C   -0.029913
     4  C   -0.170658
     5  H    0.089063
     6  H    0.054145
     7  H    0.063729
     8  H    0.059301
     9  H    0.062381
    10  H    0.072959
 Sum of Mulliken charges =   0.00000

 Dipole moment (field-independent basis, Debye):
    X=             -0.0480    Y=             -0.0313    Z=             -0.0193  Tot=              0.0605
 Quadrupole moment (field-independent basis, Debye-Ang):
   XX=            -22.9319   YY=            -23.7469   ZZ=            -29.3000
   XY=             -0.1273   XZ=              0.3577   YZ=              0.0006

 1\1\GINC-NODE27\SP\RB2PLYPD3-FC\def2QZVP\C4H6\BOITTIER\26-Aug-2020\0\\
 #p B2PLYPD3/Def2QZVP\\butadiene\\0,1\C,0,-3.849348,0.230694,0.069447\C
 ,0,-2.765109,-0.520248,-0.012646\C,0,-1.395357,0.023247,-0.0425\C,0,-0
 .224303,-0.61919,0.074916\H,0,-4.951815,-0.071218,-0.068504\H,0,-3.672
 908,1.357658,0.248244\H,0,-2.78196,-1.606201,-0.099725\H,0,-1.27224,1.
 079163,-0.207448\H,0,-0.090675,-1.668537,0.313755\H,0,0.791975,-0.0955
 38,0.00923\\Version=ES64L-G09RevD.01\State=1-A\HF=-155.6841616\MP2=-15
 5.9110655\RMSD=6.489e-09\PG=C01 [X(C4H6)]\\@

 Normal termination of Gaussian 09 at Wed Aug 26 16:01:51 2020.
