 Gaussian 09, Revision D.01,
 Gaussian 09:  ES64L-G09RevD.01 24-Apr-2013

 --------------------
 #p B2PLYPD3/Def2QZVP
 --------------------

 ---------
 butadiene
 ---------
 Symbolic Z-matrix:
 Charge =  0 Multiplicity = 1

                         Standard orientation:
 ---------------------------------------------------------------------
 Center     Atomic      Atomic             Coordinates (Angstroms)
 Number     Number       Type             X           Y           Z
 ---------------------------------------------------------------------
      1          6           0       -1.820400    0.068724    0.072763
      2          6           0       -0.583714   -0.358656   -0.054140
      3          6           0        0.604195    0.455862   -0.077819
      4          6           0        1.805264   -0.164589    0.076031
      5          1           0       -2.620634   -0.579889    0.052081
      6          1           0       -2.006983    1.201060    0.050032
      7          1           0       -0.401151   -1.472311   -0.114841
      8          1           0        0.569581    1.586842   -0.194819
      9          1           0        1.828085   -1.237564   -0.114930
     10          1           0        2.599028    0.493815    0.221469
 ---------------------------------------------------------------------

 SCF Done:  E(RB2PLYPD3) =  -155.680622396     A.U. after   12 cycles
 E2(B2PLYPD3) =    -0.2270506194D+00 E(B2PLYPD3) =    -0.15590767301512D+03

 The electronic state is 1-A.
 Alpha  occ. eigenvalues --  -10.63232 -10.62443 -10.61527 -10.60979  -0.93238
 Alpha  occ. eigenvalues --   -0.85064  -0.69982  -0.62908  -0.54948  -0.53741
 Alpha  occ. eigenvalues --   -0.45965  -0.45524  -0.41512  -0.37711  -0.27350
 Alpha virt. eigenvalues --    0.01658   0.06795   0.07176   0.08058   0.09401
 Alpha virt. eigenvalues --    0.11707   0.12222   0.14570   0.15624   0.16396
 Alpha virt. eigenvalues --    0.18475   0.19706   0.21038   0.23275   0.24595

 Mulliken charges:
               1
     1  C   -0.177045
     2  C   -0.014590
     3  C   -0.035840
     4  C   -0.182787
     5  H    0.092144
     6  H    0.055483
     7  H    0.037970
     8  H    0.055453
     9  H    0.081629
    10  H    0.087582
 Sum of Mulliken charges =   0.00000

 Dipole moment (field-independent basis, Debye):
    X=              0.0949    Y=              0.0225    Z=             -0.1935  Tot=              0.2168
 Quadrupole moment (field-independent basis, Debye-Ang):
   XX=            -24.3398   YY=            -22.8600   ZZ=            -29.2508
   XY=              0.3199   XZ=              0.1609   YZ=              0.2027

 1\1\GINC-NODE03\SP\RB2PLYPD3-FC\def2QZVP\C4H6\BOITTIER\26-Aug-2020\0\\
 #p B2PLYPD3/Def2QZVP\\butadiene\\0,1\C,0,-3.830954,0.183724,0.089335\C
 ,0,-2.692137,-0.463573,-0.021358\C,0,-1.376919,0.122125,-0.069192\C,0,
 -0.306827,-0.699512,0.106906\H,0,-4.735115,-0.310232,0.08818\H,0,-3.81
 0362,1.329814,0.029598\H,0,-2.713649,-1.593258,-0.045622\H,0,-1.207474
 ,1.236436,-0.222821\H,0,-0.478647,-1.764586,-0.049163\H,0,0.593236,-0.
 190748,0.232423\\Version=ES64L-G09RevD.01\State=1-A\HF=-155.6806224\MP
 2=-155.907673\RMSD=2.617e-09\PG=C01 [X(C4H6)]\\@

 Normal termination of Gaussian 09 at Wed Aug 26 11:51:10 2020.
