 Gaussian 09, Revision D.01,
 Gaussian 09:  ES64L-G09RevD.01 24-Apr-2013

 --------------------
 #p B2PLYPD3/Def2QZVP
 --------------------

 ---------
 butadiene
 ---------
 Symbolic Z-matrix:
 Charge =  0 Multiplicity = 1

                         Standard orientation:
 ---------------------------------------------------------------------
 Center     Atomic      Atomic             Coordinates (Angstroms)
 Number     Number       Type             X           Y           Z
 ---------------------------------------------------------------------
      1          6           0       -1.832169    0.111664    0.030576
      2          6           0       -0.592349   -0.423144   -0.027480
      3          6           0        0.608632    0.418377   -0.064316
      4          6           0        1.822935   -0.109547    0.017034
      5          1           0       -2.724481   -0.530633    0.020585
      6          1           0       -2.049595    1.186940    0.075095
      7          1           0       -0.431710   -1.470078   -0.045485
      8          1           0        0.456089    1.521634    0.012162
      9          1           0        1.945608   -1.180394    0.107995
     10          1           0        2.761797    0.488439    0.094763
 ---------------------------------------------------------------------

 SCF Done:  E(RB2PLYPD3) =  -155.695969256     A.U. after   11 cycles
 E2(B2PLYPD3) =    -0.2264025515D+00 E(B2PLYPD3) =    -0.15592237180712D+03

 The electronic state is 1-A.
 Alpha  occ. eigenvalues --  -10.62830 -10.62747 -10.62080 -10.61728  -0.92831
 Alpha  occ. eigenvalues --   -0.84497  -0.69582  -0.64217  -0.54264  -0.53480
 Alpha  occ. eigenvalues --   -0.46760  -0.45168  -0.40928  -0.37971  -0.27616
 Alpha virt. eigenvalues --    0.01814   0.06991   0.07265   0.08031   0.09150
 Alpha virt. eigenvalues --    0.11653   0.12441   0.14580   0.15672   0.16258
 Alpha virt. eigenvalues --    0.18755   0.20295   0.21758   0.22922   0.23549

 Mulliken charges:
               1
     1  C   -0.173514
     2  C   -0.044537
     3  C   -0.023508
     4  C   -0.168637
     5  H    0.078641
     6  H    0.068328
     7  H    0.065123
     8  H    0.056822
     9  H    0.060503
    10  H    0.080779
 Sum of Mulliken charges =   0.00000

 Dipole moment (field-independent basis, Debye):
    X=              0.0137    Y=             -0.0179    Z=              0.1770  Tot=              0.1784
 Quadrupole moment (field-independent basis, Debye-Ang):
   XX=            -23.6164   YY=            -23.0714   ZZ=            -29.3752
   XY=             -0.3482   XZ=              0.3409   YZ=              0.1018

 1\1\GINC-NODE24\SP\RB2PLYPD3-FC\def2QZVP\C4H6\BOITTIER\26-Aug-2020\0\\
 #p B2PLYPD3/Def2QZVP\\butadiene\\0,1\C,0,-3.833837,0.230046,0.04978\C,
 0,-2.712383,-0.523108,0.009243\C,0,-1.378035,0.084182,-0.041595\C,0,-0
 .280423,-0.654321,0.05697\H,0,-4.828348,-0.238796,0.05059\H,0,-3.85145
 5,1.32768,0.068863\H,0,-2.745429,-1.581912,0.015777\H,0,-1.326757,1.19
 8228,0.00908\H,0,-0.355168,-1.72718,0.172823\H,0,0.751769,-0.235954,0.
 125089\\Version=ES64L-G09RevD.01\State=1-A\HF=-155.6959693\MP2=-155.92
 23718\RMSD=5.983e-09\PG=C01 [X(C4H6)]\\@

 Normal termination of Gaussian 09 at Wed Aug 26 09:18:45 2020.
