 Gaussian 09, Revision D.01,
 Gaussian 09:  ES64L-G09RevD.01 24-Apr-2013

 --------------------
 #p B2PLYPD3/Def2QZVP
 --------------------

 ---------
 butadiene
 ---------
 Symbolic Z-matrix:
 Charge =  0 Multiplicity = 1

                         Standard orientation:
 ---------------------------------------------------------------------
 Center     Atomic      Atomic             Coordinates (Angstroms)
 Number     Number       Type             X           Y           Z
 ---------------------------------------------------------------------
      1          6           0        1.835880   -0.114367    0.018510
      2          6           0        0.605056    0.413328   -0.026261
      3          6           0       -0.593728   -0.398342   -0.017340
      4          6           0       -1.842947    0.097391    0.014229
      5          1           0        2.694430    0.530238   -0.001316
      6          1           0        2.007047   -1.197284    0.075028
      7          1           0        0.440398    1.481959   -0.051180
      8          1           0       -0.438916   -1.457321   -0.042655
      9          1           0       -1.989158    1.188570    0.103232
     10          1           0       -2.739371   -0.534217   -0.017937
 ---------------------------------------------------------------------

 SCF Done:  E(RB2PLYPD3) =  -155.699624238     A.U. after   11 cycles
 E2(B2PLYPD3) =    -0.2261842565D+00 E(B2PLYPD3) =    -0.15592580849489D+03

 The electronic state is 1-A.
 Alpha  occ. eigenvalues --  -10.62564 -10.62370 -10.61999 -10.61748  -0.93009
 Alpha  occ. eigenvalues --   -0.84578  -0.70082  -0.64200  -0.54496  -0.53614
 Alpha  occ. eigenvalues --   -0.46726  -0.45505  -0.41260  -0.38071  -0.27502
 Alpha virt. eigenvalues --    0.01561   0.07003   0.07343   0.08098   0.09517
 Alpha virt. eigenvalues --    0.11698   0.12358   0.14677   0.15940   0.15970
 Alpha virt. eigenvalues --    0.18744   0.20593   0.21369   0.22851   0.23717

 Mulliken charges:
               1
     1  C   -0.176695
     2  C   -0.032707
     3  C   -0.027041
     4  C   -0.178684
     5  H    0.086354
     6  H    0.068409
     7  H    0.056232
     8  H    0.055847
     9  H    0.060875
    10  H    0.087412
 Sum of Mulliken charges =   0.00000

 Dipole moment (field-independent basis, Debye):
    X=              0.0379    Y=             -0.0109    Z=              0.0317  Tot=              0.0506
 Quadrupole moment (field-independent basis, Debye-Ang):
   XX=            -23.5813   YY=            -23.0899   ZZ=            -29.3387
   XY=             -0.1604   XZ=              0.0037   YZ=              0.0362

 1\1\GINC-NODE19\SP\RB2PLYPD3-FC\def2QZVP\C4H6\BOITTIER\26-Aug-2020\0\\
 #p B2PLYPD3/Def2QZVP\\butadiene\\0,1\C,0,-3.835316,0.233965,0.036939\C
 ,0,-2.722161,-0.511421,0.010881\C,0,-1.394949,0.066761,-0.002746\C,0,-
 0.257576,-0.648255,0.046554\H,0,-4.797489,-0.242729,0.035213\H,0,-3.80
 4999,1.331125,0.059799\H,0,-2.756143,-1.592385,0.019153\H,0,-1.353239,
 1.1349,-0.060911\H,0,-0.313407,-1.74451,0.16935\H,0,0.739259,-0.192861
 ,-0.003212\\Version=ES64L-G09RevD.01\State=1-A\HF=-155.6996242\MP2=-15
 5.9258085\RMSD=4.599e-09\PG=C01 [X(C4H6)]\\@

 Normal termination of Gaussian 09 at Wed Aug 26 19:26:29 2020.
