 Gaussian 09, Revision D.01,
 Gaussian 09:  ES64L-G09RevD.01 24-Apr-2013

 --------------------
 #p B2PLYPD3/Def2QZVP
 --------------------

 ---------
 butadiene
 ---------
 Symbolic Z-matrix:
 Charge =  0 Multiplicity = 1

                         Standard orientation:
 ---------------------------------------------------------------------
 Center     Atomic      Atomic             Coordinates (Angstroms)
 Number     Number       Type             X           Y           Z
 ---------------------------------------------------------------------
      1          6           0       -1.837587    0.052562   -0.032764
      2          6           0       -0.587208   -0.349094    0.020998
      3          6           0        0.604251    0.452971    0.090404
      4          6           0        1.840334   -0.140006   -0.044494
      5          1           0       -2.763752   -0.518254   -0.001048
      6          1           0       -1.998303    1.145185   -0.082409
      7          1           0       -0.447636   -1.429380    0.037216
      8          1           0        0.471606    1.581340   -0.058992
      9          1           0        1.868535   -1.289349   -0.030911
     10          1           0        2.750806    0.411864   -0.068725
 ---------------------------------------------------------------------

 SCF Done:  E(RB2PLYPD3) =  -155.685305212     A.U. after   11 cycles
 E2(B2PLYPD3) =    -0.2276618738D+00 E(B2PLYPD3) =    -0.15591296708554D+03

 The electronic state is 1-A.
 Alpha  occ. eigenvalues --  -10.63966 -10.63115 -10.62165 -10.61380  -0.93048
 Alpha  occ. eigenvalues --   -0.84482  -0.70077  -0.63287  -0.55148  -0.52818
 Alpha  occ. eigenvalues --   -0.46962  -0.44268  -0.40727  -0.38191  -0.27496
 Alpha virt. eigenvalues --    0.01122   0.07017   0.07113   0.07958   0.09418
 Alpha virt. eigenvalues --    0.11510   0.12613   0.14209   0.15454   0.16407
 Alpha virt. eigenvalues --    0.18785   0.19853   0.21623   0.22557   0.23751

 Mulliken charges:
               1
     1  C   -0.172285
     2  C   -0.006394
     3  C   -0.042018
     4  C   -0.169610
     5  H    0.091486
     6  H    0.043750
     7  H    0.043541
     8  H    0.054173
     9  H    0.063253
    10  H    0.094105
 Sum of Mulliken charges =   0.00000

 Dipole moment (field-independent basis, Debye):
    X=              0.0767    Y=             -0.0143    Z=             -0.1125  Tot=              0.1369
 Quadrupole moment (field-independent basis, Debye-Ang):
   XX=            -23.1614   YY=            -23.4864   ZZ=            -29.4453
   XY=              0.1464   XZ=             -0.2401   YZ=             -0.2410

 1\1\GINC-NODE33\SP\RB2PLYPD3-FC\def2QZVP\C4H6\BOITTIER\26-Aug-2020\0\\
 #p B2PLYPD3/Def2QZVP\\butadiene\\0,1\C,0,-3.853149,0.167144,-0.015328\
 C,0,-2.695734,-0.451837,0.054798\C,0,-1.378459,0.123411,0.094527\C,0,-
 0.270854,-0.688123,-0.016573\H,0,-4.86707,-0.225034,0.037382\H,0,-3.81
 3896,1.268148,-0.106809\H,0,-2.753754,-1.538151,0.112386\H,0,-1.30574,
 1.250702,-0.097973\H,0,-0.450912,-1.822249,0.040926\H,0,0.724252,-0.31
 1442,-0.061094\\Version=ES64L-G09RevD.01\State=1-A\HF=-155.6853052\MP2
 =-155.9129671\RMSD=9.699e-09\PG=C01 [X(C4H6)]\\@

 Normal termination of Gaussian 09 at Wed Aug 26 12:31:41 2020.
