 Gaussian 09, Revision D.01,
 Gaussian 09:  ES64L-G09RevD.01 24-Apr-2013

 --------------------
 #p B2PLYPD3/Def2QZVP
 --------------------

 ---------
 butadiene
 ---------
 Symbolic Z-matrix:
 Charge =  0 Multiplicity = 1

                         Standard orientation:
 ---------------------------------------------------------------------
 Center     Atomic      Atomic             Coordinates (Angstroms)
 Number     Number       Type             X           Y           Z
 ---------------------------------------------------------------------
      1          6           0       -1.836553   -0.112111    0.016240
      2          6           0       -0.604133    0.395316   -0.002133
      3          6           0        0.608660   -0.402418   -0.016420
      4          6           0        1.840859    0.113607    0.006827
      5          1           0       -2.687225    0.557904   -0.041697
      6          1           0       -2.079856   -1.169447    0.008762
      7          1           0       -0.461595    1.476454   -0.034995
      8          1           0        0.479092   -1.473041    0.011562
      9          1           0        1.972031    1.172031    0.052529
     10          1           0        2.724556   -0.530265   -0.023246
 ---------------------------------------------------------------------

 SCF Done:  E(RB2PLYPD3) =  -155.700549729     A.U. after   11 cycles
 E2(B2PLYPD3) =    -0.2256594859D+00 E(B2PLYPD3) =    -0.15592620921459D+03

 The electronic state is 1-A.
 Alpha  occ. eigenvalues --  -10.62580 -10.62339 -10.61551 -10.61479  -0.93014
 Alpha  occ. eigenvalues --   -0.84926  -0.70161  -0.64135  -0.54532  -0.53950
 Alpha  occ. eigenvalues --   -0.46684  -0.45736  -0.41038  -0.38127  -0.27690
 Alpha virt. eigenvalues --    0.01724   0.06981   0.07435   0.08042   0.09628
 Alpha virt. eigenvalues --    0.11702   0.12375   0.14833   0.15772   0.16110
 Alpha virt. eigenvalues --    0.18799   0.20508   0.21648   0.22740   0.23856

 Mulliken charges:
               1
     1  C   -0.174879
     2  C   -0.032049
     3  C   -0.028291
     4  C   -0.178093
     5  H    0.080620
     6  H    0.069018
     7  H    0.053933
     8  H    0.056213
     9  H    0.066871
    10  H    0.086656
 Sum of Mulliken charges =   0.00000

 Dipole moment (field-independent basis, Debye):
    X=             -0.0119    Y=             -0.0168    Z=             -0.0354  Tot=              0.0409
 Quadrupole moment (field-independent basis, Debye-Ang):
   XX=            -23.5362   YY=            -23.0563   ZZ=            -29.2651
   XY=              0.2321   XZ=              0.1799   YZ=             -0.0231

 1\1\GINC-NODE37\SP\RB2PLYPD3-FC\def2QZVP\C4H6\BOITTIER\26-Aug-2020\0\\
 #p B2PLYPD3/Def2QZVP\\butadiene\\0,1\C,0,-3.839457,0.225724,0.004906\C
 ,0,-2.718713,-0.494961,0.039886\C,0,-1.381851,0.07085,0.029387\C,0,-0.
 263096,-0.65955,0.023041\H,0,-4.796721,-0.277622,0.083697\H,0,-3.88798
 8,1.309317,-0.021253\H,0,-2.773372,-1.582506,0.107076\H,0,-1.316306,1.
 145869,-0.032586\H,0,-0.325254,-1.72517,0.010981\H,0,0.722401,-0.18511
 2,0.033059\\Version=ES64L-G09RevD.01\State=1-A\HF=-155.7005497\MP2=-15
 5.9262092\RMSD=3.283e-09\PG=C01 [X(C4H6)]\\@

 Normal termination of Gaussian 09 at Wed Aug 26 16:13:22 2020.
