 Gaussian 09, Revision D.01,
 Gaussian 09:  ES64L-G09RevD.01 24-Apr-2013

 --------------------
 #p B2PLYPD3/Def2QZVP
 --------------------

 ---------
 butadiene
 ---------
 Symbolic Z-matrix:
 Charge =  0 Multiplicity = 1

                         Standard orientation:
 ---------------------------------------------------------------------
 Center     Atomic      Atomic             Coordinates (Angstroms)
 Number     Number       Type             X           Y           Z
 ---------------------------------------------------------------------
      1          6           0        1.846292    0.100291   -0.007568
      2          6           0        0.619995   -0.369696   -0.011923
      3          6           0       -0.612690    0.427192   -0.024212
      4          6           0       -1.852980   -0.139155    0.006878
      5          1           0        2.702129   -0.589013    0.042103
      6          1           0        2.033025    1.186006    0.078971
      7          1           0        0.557257   -1.460573    0.025576
      8          1           0       -0.542016    1.505084    0.009022
      9          1           0       -1.958559   -1.204562    0.017293
     10          1           0       -2.795539    0.451266    0.047988
 ---------------------------------------------------------------------

 SCF Done:  E(RB2PLYPD3) =  -155.696139310     A.U. after   11 cycles
 E2(B2PLYPD3) =    -0.2262528929D+00 E(B2PLYPD3) =    -0.15592239220259D+03

 The electronic state is 1-A.
 Alpha  occ. eigenvalues --  -10.63254 -10.62407 -10.62259 -10.61505  -0.92700
 Alpha  occ. eigenvalues --   -0.84866  -0.69610  -0.63872  -0.54295  -0.53830
 Alpha  occ. eigenvalues --   -0.46381  -0.45193  -0.41132  -0.37933  -0.27771
 Alpha virt. eigenvalues --    0.01671   0.06937   0.07458   0.07848   0.09533
 Alpha virt. eigenvalues --    0.11589   0.12373   0.14448   0.15919   0.16216
 Alpha virt. eigenvalues --    0.18857   0.20494   0.21296   0.22388   0.24053

 Mulliken charges:
               1
     1  C   -0.169557
     2  C   -0.020671
     3  C   -0.047224
     4  C   -0.171365
     5  H    0.082447
     6  H    0.061609
     7  H    0.050375
     8  H    0.061779
     9  H    0.069150
    10  H    0.083457
 Sum of Mulliken charges =   0.00000

 Dipole moment (field-independent basis, Debye):
    X=             -0.0385    Y=             -0.0247    Z=              0.1800  Tot=              0.1857
 Quadrupole moment (field-independent basis, Debye-Ang):
   XX=            -23.5005   YY=            -23.0944   ZZ=            -29.3862
   XY=             -0.1264   XZ=              0.1091   YZ=              0.0560

 1\1\GINC-NODE17\SP\RB2PLYPD3-FC\def2QZVP\C4H6\BOITTIER\26-Aug-2020\0\\
 #p B2PLYPD3/Def2QZVP\\butadiene\\0,1\C,0,-3.854105,0.199241,0.020018\C
 ,0,-2.726669,-0.473881,0.042479\C,0,-1.37547,0.099584,0.03295\C,0,-0.2
 50886,-0.671939,0.023059\H,0,-4.815688,-0.334152,-0.010196\H,0,-3.8519
 52,1.29762,-0.101206\H,0,-2.852206,-1.559969,0.039557\H,0,-1.260175,1.
 172019,-0.034438\H,0,-0.329771,-1.739448,0.046519\H,0,0.778909,-0.2536
 57,-0.034112\\Version=ES64L-G09RevD.01\State=1-A\HF=-155.6961393\MP2=-
 155.9223922\RMSD=5.877e-09\PG=C01 [X(C4H6)]\\@

 Normal termination of Gaussian 09 at Wed Aug 26 10:48:43 2020.
