 Gaussian 09, Revision D.01,
 Gaussian 09:  ES64L-G09RevD.01 24-Apr-2013

 --------------------
 #p B2PLYPD3/Def2QZVP
 --------------------

 ---------
 butadiene
 ---------
 Symbolic Z-matrix:
 Charge =  0 Multiplicity = 1

                         Standard orientation:
 ---------------------------------------------------------------------
 Center     Atomic      Atomic             Coordinates (Angstroms)
 Number     Number       Type             X           Y           Z
 ---------------------------------------------------------------------
      1          6           0       -1.831202    0.096052    0.020827
      2          6           0       -0.598636   -0.399129   -0.017388
      3          6           0        0.605253    0.428315   -0.018980
      4          6           0        1.832327   -0.124599    0.009637
      5          1           0       -2.699801   -0.528266   -0.006046
      6          1           0       -2.012649    1.177089   -0.011406
      7          1           0       -0.446328   -1.462326    0.015432
      8          1           0        0.452378    1.473371    0.003773
      9          1           0        1.976317   -1.188898   -0.006939
     10          1           0        2.683635    0.525202    0.040608
 ---------------------------------------------------------------------

 SCF Done:  E(RB2PLYPD3) =  -155.700040986     A.U. after   11 cycles
 E2(B2PLYPD3) =    -0.2255237140D+00 E(B2PLYPD3) =    -0.15592556470012D+03

 The electronic state is 1-A.
 Alpha  occ. eigenvalues --  -10.62392 -10.62211 -10.61470 -10.61291  -0.92989
 Alpha  occ. eigenvalues --   -0.84839  -0.70117  -0.64603  -0.54599  -0.53999
 Alpha  occ. eigenvalues --   -0.46833  -0.45875  -0.41291  -0.38001  -0.27602
 Alpha virt. eigenvalues --    0.01846   0.07045   0.07424   0.08205   0.09387
 Alpha virt. eigenvalues --    0.11771   0.12433   0.14778   0.15871   0.16074
 Alpha virt. eigenvalues --    0.18730   0.20401   0.21677   0.23241   0.23940

 Mulliken charges:
               1
     1  C   -0.176194
     2  C   -0.026805
     3  C   -0.039023
     4  C   -0.179006
     5  H    0.084454
     6  H    0.059970
     7  H    0.056127
     8  H    0.062819
     9  H    0.072779
    10  H    0.084880
 Sum of Mulliken charges =   0.00000

 Dipole moment (field-independent basis, Debye):
    X=              0.0145    Y=              0.0026    Z=              0.0033  Tot=              0.0151
 Quadrupole moment (field-independent basis, Debye-Ang):
   XX=            -23.6852   YY=            -22.9353   ZZ=            -29.2496
   XY=             -0.2123   XZ=              0.1532   YZ=              0.0114

 1\1\GINC-NODE08\SP\RB2PLYPD3-FC\def2QZVP\C4H6\BOITTIER\26-Aug-2020\0\\
 #p B2PLYPD3/Def2QZVP\\butadiene\\0,1\C,0,-3.835877,0.21501,0.037907\C,
 0,-2.714721,-0.498085,0.018216\C,0,-1.379849,0.09489,-0.004411\C,0,-0.
 274482,-0.671937,0.044406\H,0,-4.804045,-0.240504,0.027037\H,0,-3.8166
 97,1.309545,-0.02711\H,0,-2.759286,-1.569744,0.083199\H,0,-1.33902,1.1
 50487,-0.013306\H,0,-0.327548,-1.744635,0.060023\H,0,0.681355,-0.18809
 7,0.058559\\Version=ES64L-G09RevD.01\State=1-A\HF=-155.700041\MP2=-155
 .9255647\RMSD=5.761e-09\PG=C01 [X(C4H6)]\\@

 Normal termination of Gaussian 09 at Wed Aug 26 19:17:38 2020.
