 Gaussian 09, Revision D.01,
 Gaussian 09:  ES64L-G09RevD.01 24-Apr-2013

 --------------------
 #p B2PLYPD3/Def2QZVP
 --------------------

 ---------
 butadiene
 ---------
 Symbolic Z-matrix:
 Charge =  0 Multiplicity = 1

                         Standard orientation:
 ---------------------------------------------------------------------
 Center     Atomic      Atomic             Coordinates (Angstroms)
 Number     Number       Type             X           Y           Z
 ---------------------------------------------------------------------
      1          6           0        1.854431    0.097280   -0.026226
      2          6           0        0.602312   -0.393091    0.048223
      3          6           0       -0.617502    0.419593    0.059119
      4          6           0       -1.854457   -0.114658   -0.051867
      5          1           0        2.704763   -0.557178   -0.080160
      6          1           0        2.105368    1.161472   -0.053025
      7          1           0        0.414644   -1.453031   -0.005471
      8          1           0       -0.466042    1.526867   -0.008991
      9          1           0       -1.914898   -1.223041    0.011160
     10          1           0       -2.752538    0.490164   -0.039006
 ---------------------------------------------------------------------

 SCF Done:  E(RB2PLYPD3) =  -155.695714205     A.U. after   11 cycles
 E2(B2PLYPD3) =    -0.2269126904D+00 E(B2PLYPD3) =    -0.15592262689520D+03

 The electronic state is 1-A.
 Alpha  occ. eigenvalues --  -10.63241 -10.62905 -10.62219 -10.61877  -0.92528
 Alpha  occ. eigenvalues --   -0.84490  -0.70133  -0.63664  -0.54709  -0.53110
 Alpha  occ. eigenvalues --   -0.46959  -0.45205  -0.40966  -0.37797  -0.27583
 Alpha virt. eigenvalues --    0.01364   0.07015   0.07277   0.08072   0.09249
 Alpha virt. eigenvalues --    0.11629   0.12424   0.14574   0.15703   0.16028
 Alpha virt. eigenvalues --    0.18850   0.20066   0.21555   0.22828   0.23974

 Mulliken charges:
               1
     1  C   -0.174203
     2  C   -0.034359
     3  C   -0.028967
     4  C   -0.174079
     5  H    0.084178
     6  H    0.067418
     7  H    0.055886
     8  H    0.051803
     9  H    0.060339
    10  H    0.091984
 Sum of Mulliken charges =   0.00000

 Dipole moment (field-independent basis, Debye):
    X=              0.0234    Y=              0.0234    Z=             -0.0828  Tot=              0.0892
 Quadrupole moment (field-independent basis, Debye-Ang):
   XX=            -23.3984   YY=            -23.2147   ZZ=            -29.4629
   XY=              0.1756   XZ=             -0.2506   YZ=             -0.0671

 1\1\GINC-NODE04\SP\RB2PLYPD3-FC\def2QZVP\C4H6\BOITTIER\26-Aug-2020\0\\
 #p B2PLYPD3/Def2QZVP\\butadiene\\0,1\C,0,-3.859978,0.217028,0.052579\C
 ,0,-2.717865,-0.493997,-0.009292\C,0,-1.371047,0.083505,-0.042385\C,0,
 -0.250824,-0.663057,0.08229\H,0,-4.814536,-0.270785,0.124316\H,0,-3.91
 3763,1.30941,0.051081\H,0,-2.725106,-1.568622,0.072584\H,0,-1.31898,1.
 201286,-0.003779\H,0,-0.392577,-1.765294,0.048833\H,0,0.741912,-0.2316
 23,0.052915\\Version=ES64L-G09RevD.01\State=1-A\HF=-155.6957142\MP2=-1
 55.9226269\RMSD=4.465e-09\PG=C01 [X(C4H6)]\\@

 Normal termination of Gaussian 09 at Wed Aug 26 08:49:31 2020.
