 Gaussian 09, Revision D.01,
 Gaussian 09:  ES64L-G09RevD.01 24-Apr-2013

 --------------------
 #p B2PLYPD3/Def2QZVP
 --------------------

 ---------
 butadiene
 ---------
 Symbolic Z-matrix:
 Charge =  0 Multiplicity = 1

                         Standard orientation:
 ---------------------------------------------------------------------
 Center     Atomic      Atomic             Coordinates (Angstroms)
 Number     Number       Type             X           Y           Z
 ---------------------------------------------------------------------
      1          6           0       -1.836233   -0.102167   -0.011950
      2          6           0       -0.602101    0.384474   -0.001046
      3          6           0        0.599945   -0.378954    0.028446
      4          6           0        1.844561    0.108411   -0.042304
      5          1           0       -2.753612    0.473210   -0.024251
      6          1           0       -1.988637   -1.174422   -0.077604
      7          1           0       -0.498138    1.507600    0.156529
      8          1           0        0.501124   -1.461292    0.102157
      9          1           0        2.068243    1.167769   -0.043728
     10          1           0        2.633980   -0.583449    0.048017
 ---------------------------------------------------------------------

 SCF Done:  E(RB2PLYPD3) =  -155.695710916     A.U. after   11 cycles
 E2(B2PLYPD3) =    -0.2259566223D+00 E(B2PLYPD3) =    -0.15592166753813D+03

 The electronic state is 1-A.
 Alpha  occ. eigenvalues --  -10.62746 -10.62419 -10.61546 -10.61281  -0.93331
 Alpha  occ. eigenvalues --   -0.85154  -0.70728  -0.63414  -0.55015  -0.53997
 Alpha  occ. eigenvalues --   -0.46831  -0.45358  -0.40922  -0.38174  -0.27719
 Alpha virt. eigenvalues --    0.01437   0.07068   0.07323   0.07913   0.09904
 Alpha virt. eigenvalues --    0.11571   0.12450   0.14795   0.15608   0.16416
 Alpha virt. eigenvalues --    0.18837   0.19888   0.22050   0.22330   0.23811

 Mulliken charges:
               1
     1  C   -0.171629
     2  C   -0.019019
     3  C   -0.033451
     4  C   -0.173008
     5  H    0.087875
     6  H    0.057185
     7  H    0.046929
     8  H    0.049809
     9  H    0.070145
    10  H    0.085165
 Sum of Mulliken charges =   0.00000

 Dipole moment (field-independent basis, Debye):
    X=             -0.0401    Y=             -0.0388    Z=              0.1557  Tot=              0.1654
 Quadrupole moment (field-independent basis, Debye-Ang):
   XX=            -23.2685   YY=            -23.3074   ZZ=            -29.1855
   XY=              0.0945   XZ=              0.2386   YZ=              0.0625

 1\1\GINC-NODE40\SP\RB2PLYPD3-FC\def2QZVP\C4H6\BOITTIER\26-Aug-2020\0\\
 #p B2PLYPD3/Def2QZVP\\butadiene\\0,1\C,0,-3.840285,0.21849,0.031171\C,
 0,-2.714354,-0.48315,0.030285\C,0,-1.394355,0.049857,-0.015667\C,0,-0.
 257911,-0.65269,0.065095\H,0,-4.846415,-0.181367,0.055882\H,0,-3.79631
 9,1.301768,0.074126\H,0,-2.815524,-1.609614,-0.103481\H,0,-1.296433,1.
 130474,-0.112272\H,0,-0.229171,-1.734763,0.088913\H,0,0.643077,-0.1168
 04,-0.040056\\Version=ES64L-G09RevD.01\State=1-A\HF=-155.6957109\MP2=-
 155.9216675\RMSD=6.740e-09\PG=C01 [X(C4H6)]\\@

 Normal termination of Gaussian 09 at Wed Aug 26 09:13:29 2020.
