 Gaussian 09, Revision D.01,
 Gaussian 09:  ES64L-G09RevD.01 24-Apr-2013

 --------------------
 #p B2PLYPD3/Def2QZVP
 --------------------

 ---------
 butadiene
 ---------
 Symbolic Z-matrix:
 Charge =  0 Multiplicity = 1

                         Standard orientation:
 ---------------------------------------------------------------------
 Center     Atomic      Atomic             Coordinates (Angstroms)
 Number     Number       Type             X           Y           Z
 ---------------------------------------------------------------------
      1          6           0        1.806486    0.122746    0.072148
      2          6           0        0.595441   -0.437434   -0.076549
      3          6           0       -0.580573    0.401652   -0.139616
      4          6           0       -1.808942   -0.115573    0.042928
      5          1           0        2.675956   -0.556933    0.158338
      6          1           0        1.871356    1.177894    0.023425
      7          1           0        0.410678   -1.470312   -0.050769
      8          1           0       -0.342470    1.520003    0.080076
      9          1           0       -2.114484   -1.079363    0.152495
     10          1           0       -2.575510    0.580368    0.242965
 ---------------------------------------------------------------------

 SCF Done:  E(RB2PLYPD3) =  -155.679958192     A.U. after   11 cycles
 E2(B2PLYPD3) =    -0.2267857258D+00 E(B2PLYPD3) =    -0.15590674391779D+03

 The electronic state is 1-A.
 Alpha  occ. eigenvalues --  -10.63305 -10.61928 -10.61421 -10.60748  -0.93283
 Alpha  occ. eigenvalues --   -0.84779  -0.70532  -0.64470  -0.55289  -0.53304
 Alpha  occ. eigenvalues --   -0.46678  -0.45921  -0.40876  -0.38094  -0.27295
 Alpha virt. eigenvalues --    0.01569   0.06981   0.07270   0.08162   0.08817
 Alpha virt. eigenvalues --    0.11875   0.12484   0.15189   0.15374   0.16018
 Alpha virt. eigenvalues --    0.18671   0.19548   0.22374   0.23035   0.24409

 Mulliken charges:
               1
     1  C   -0.180537
     2  C   -0.034514
     3  C   -0.020532
     4  C   -0.173543
     5  H    0.084564
     6  H    0.073186
     7  H    0.060464
     8  H    0.047361
     9  H    0.071737
    10  H    0.071815
 Sum of Mulliken charges =   0.00000

 Dipole moment (field-independent basis, Debye):
    X=             -0.0867    Y=             -0.1429    Z=              0.3912  Tot=              0.4254
 Quadrupole moment (field-independent basis, Debye-Ang):
   XX=            -24.1817   YY=            -22.9485   ZZ=            -29.1336
   XY=              0.5721   XZ=             -0.6234   YZ=              0.1076

 1\1\GINC-NODE30\SP\RB2PLYPD3-FC\def2QZVP\C4H6\BOITTIER\26-Aug-2020\0\\
 #p B2PLYPD3/Def2QZVP\\butadiene\\0,1\C,0,-3.8013,0.247563,-0.058801\C,
 0,-2.716742,-0.525524,0.110355\C,0,-1.402405,0.077007,0.13328\C,0,-0.2
 96432,-0.671167,-0.03041\H,0,-4.784722,-0.257755,-0.112699\H,0,-3.6645
 07,1.296943,-0.055765\H,0,-2.731343,-1.574848,0.128902\H,0,-1.426745,1
 .209971,-0.134055\H,0,-0.180303,-1.679169,-0.098944\H,0,0.585814,-0.14
 2408,-0.262857\\Version=ES64L-G09RevD.01\State=1-A\HF=-155.6799582\MP2
 =-155.9067439\RMSD=6.855e-09\PG=C01 [X(C4H6)]\\@

 Normal termination of Gaussian 09 at Wed Aug 26 14:53:45 2020.
