 Gaussian 09, Revision D.01,
 Gaussian 09:  ES64L-G09RevD.01 24-Apr-2013

 --------------------
 #p B2PLYPD3/Def2QZVP
 --------------------

 ---------
 butadiene
 ---------
 Symbolic Z-matrix:
 Charge =  0 Multiplicity = 1

                         Standard orientation:
 ---------------------------------------------------------------------
 Center     Atomic      Atomic             Coordinates (Angstroms)
 Number     Number       Type             X           Y           Z
 ---------------------------------------------------------------------
      1          6           0       -1.804921   -0.154584    0.025641
      2          6           0       -0.594277    0.478757   -0.036536
      3          6           0        0.565670   -0.366177   -0.015295
      4          6           0        1.791872    0.073097   -0.014059
      5          1           0       -2.726874    0.440879    0.033962
      6          1           0       -1.917296   -1.190456    0.058923
      7          1           0       -0.439238    1.507497   -0.104477
      8          1           0        0.496104   -1.438048    0.012939
      9          1           0        2.178593    1.097675    0.280677
     10          1           0        2.658643   -0.604110   -0.040523
 ---------------------------------------------------------------------

 SCF Done:  E(RB2PLYPD3) =  -155.683960291     A.U. after   11 cycles
 E2(B2PLYPD3) =    -0.2262050727D+00 E(B2PLYPD3) =    -0.15591016536407D+03

 The electronic state is 1-A.
 Alpha  occ. eigenvalues --  -10.62661 -10.61851 -10.61666 -10.61206  -0.93626
 Alpha  occ. eigenvalues --   -0.84702  -0.70235  -0.64725  -0.54778  -0.54034
 Alpha  occ. eigenvalues --   -0.47246  -0.44887  -0.40975  -0.38056  -0.27287
 Alpha virt. eigenvalues --    0.01604   0.06991   0.07437   0.08064   0.09084
 Alpha virt. eigenvalues --    0.11646   0.12477   0.14996   0.15821   0.16410
 Alpha virt. eigenvalues --    0.18595   0.20378   0.22043   0.22110   0.24326

 Mulliken charges:
               1
     1  C   -0.172830
     2  C   -0.050562
     3  C   -0.017199
     4  C   -0.171240
     5  H    0.075499
     6  H    0.079686
     7  H    0.079922
     8  H    0.059472
     9  H    0.055634
    10  H    0.061617
 Sum of Mulliken charges =   0.00000

 Dipole moment (field-independent basis, Debye):
    X=             -0.0739    Y=             -0.0484    Z=              0.1902  Tot=              0.2097
 Quadrupole moment (field-independent basis, Debye-Ang):
   XX=            -23.8527   YY=            -23.0239   ZZ=            -29.1110
   XY=              0.3454   XZ=              0.3551   YZ=              0.0943

 1\1\GINC-NODE07\SP\RB2PLYPD3-FC\def2QZVP\C4H6\BOITTIER\26-Aug-2020\0\\
 #p B2PLYPD3/Def2QZVP\\butadiene\\0,1\C,0,-3.790488,0.27659,-0.005468\C
 ,0,-2.719681,-0.570856,0.071052\C,0,-1.422045,0.040585,0.024996\C,0,-0
 .300008,-0.620856,0.032936\H,0,-4.807784,-0.135313,0.003921\H,0,-3.706
 85,1.313943,-0.066042\H,0,-2.759833,-1.60832,0.165997\H,0,-1.289573,1.
 105383,-0.031577\H,0,-0.114348,-1.707037,-0.235251\H,0,0.678542,-0.117
 867,0.039623\\Version=ES64L-G09RevD.01\State=1-A\HF=-155.6839603\MP2=-
 155.9101654\RMSD=7.516e-09\PG=C01 [X(C4H6)]\\@

 Normal termination of Gaussian 09 at Wed Aug 26 11:31:27 2020.
