 Gaussian 09, Revision D.01,
 Gaussian 09:  ES64L-G09RevD.01 24-Apr-2013

 --------------------
 #p B2PLYPD3/Def2QZVP
 --------------------

 ---------
 butadiene
 ---------
 Symbolic Z-matrix:
 Charge =  0 Multiplicity = 1

                         Standard orientation:
 ---------------------------------------------------------------------
 Center     Atomic      Atomic             Coordinates (Angstroms)
 Number     Number       Type             X           Y           Z
 ---------------------------------------------------------------------
      1          6           0       -1.860325    0.056623    0.004432
      2          6           0       -0.638755   -0.336239   -0.082326
      3          6           0        0.614216    0.430029   -0.064417
      4          6           0        1.847669   -0.141837    0.059822
      5          1           0       -2.770628   -0.547028    0.388444
      6          1           0       -2.003438    1.214441    0.079777
      7          1           0       -0.475069   -1.397200   -0.127363
      8          1           0        0.636061    1.508965   -0.031555
      9          1           0        2.023965   -1.218861    0.023196
     10          1           0        2.812282    0.388233    0.162444
 ---------------------------------------------------------------------

 SCF Done:  E(RB2PLYPD3) =  -155.676719134     A.U. after   11 cycles
 E2(B2PLYPD3) =    -0.2269793652D+00 E(B2PLYPD3) =    -0.15590369849899D+03

 The electronic state is 1-A.
 Alpha  occ. eigenvalues --  -10.63590 -10.62683 -10.62499 -10.62260  -0.93031
 Alpha  occ. eigenvalues --   -0.85142  -0.69619  -0.63792  -0.54366  -0.53309
 Alpha  occ. eigenvalues --   -0.47432  -0.43879  -0.40156  -0.37845  -0.28194
 Alpha virt. eigenvalues --    0.01373   0.06811   0.07373   0.07822   0.09565
 Alpha virt. eigenvalues --    0.11347   0.12435   0.14034   0.15656   0.16556
 Alpha virt. eigenvalues --    0.19148   0.19370   0.21899   0.22193   0.23204

 Mulliken charges:
               1
     1  C   -0.149432
     2  C   -0.016314
     3  C   -0.050208
     4  C   -0.165041
     5  H    0.085615
     6  H    0.039116
     7  H    0.057062
     8  H    0.060934
     9  H    0.059059
    10  H    0.079208
 Sum of Mulliken charges =   0.00000

 Dipole moment (field-independent basis, Debye):
    X=              0.2277    Y=             -0.0814    Z=              0.3412  Tot=              0.4182
 Quadrupole moment (field-independent basis, Debye-Ang):
   XX=            -23.2439   YY=            -23.7176   ZZ=            -29.1665
   XY=              0.1432   XZ=             -0.7494   YZ=             -0.0164

 1\1\GINC-NODE01\SP\RB2PLYPD3-FC\def2QZVP\C4H6\BOITTIER\26-Aug-2020\0\\
 #p B2PLYPD3/Def2QZVP\\butadiene\\0,1\C,0,-3.870672,0.161588,0.044311\C
 ,0,-2.736065,-0.43912,-0.032614\C,0,-1.369694,0.099556,-0.049421\C,0,-
 0.251935,-0.671605,0.09129\H,0,-4.867147,-0.261312,0.455047\H,0,-3.811
 346,1.328714,0.07593\H,0,-2.758111,-1.513339,-0.03774\H,0,-1.161937,1.
 159001,-0.057946\H,0,-0.264237,-1.7635,0.095129\H,0,0.790632,-0.312529
 ,0.169409\\Version=ES64L-G09RevD.01\State=1-A\HF=-155.6767191\MP2=-155
 .9036985\RMSD=7.486e-09\PG=C01 [X(C4H6)]\\@

 Normal termination of Gaussian 09 at Wed Aug 26 15:34:37 2020.
