 Gaussian 09, Revision D.01,
 Gaussian 09:  ES64L-G09RevD.01 24-Apr-2013

 --------------------
 #p B2PLYPD3/Def2QZVP
 --------------------

 ---------
 butadiene
 ---------
 Symbolic Z-matrix:
 Charge =  0 Multiplicity = 1

                         Standard orientation:
 ---------------------------------------------------------------------
 Center     Atomic      Atomic             Coordinates (Angstroms)
 Number     Number       Type             X           Y           Z
 ---------------------------------------------------------------------
      1          6           0       -1.847571   -0.115712   -0.021737
      2          6           0       -0.611461    0.400002    0.021684
      3          6           0        0.605797   -0.389202    0.020886
      4          6           0        1.845572    0.099066   -0.015645
      5          1           0       -2.681278    0.555654    0.013140
      6          1           0       -2.007895   -1.187945   -0.015638
      7          1           0       -0.450457    1.488185   -0.012962
      8          1           0        0.462450   -1.468288    0.012765
      9          1           0        2.025341    1.175253   -0.006993
     10          1           0        2.697818   -0.527780   -0.021436
 ---------------------------------------------------------------------

 SCF Done:  E(RB2PLYPD3) =  -155.700288317     A.U. after   11 cycles
 E2(B2PLYPD3) =    -0.2257575579D+00 E(B2PLYPD3) =    -0.15592604587493D+03

 The electronic state is 1-A.
 Alpha  occ. eigenvalues --  -10.62708 -10.62420 -10.61589 -10.61346  -0.92949
 Alpha  occ. eigenvalues --   -0.84993  -0.70451  -0.63765  -0.54760  -0.53913
 Alpha  occ. eigenvalues --   -0.46799  -0.45830  -0.40967  -0.38107  -0.27699
 Alpha virt. eigenvalues --    0.01609   0.07025   0.07366   0.08105   0.09707
 Alpha virt. eigenvalues --    0.11703   0.12372   0.14785   0.15811   0.16044
 Alpha virt. eigenvalues --    0.18809   0.20469   0.21572   0.22874   0.23843

 Mulliken charges:
               1
     1  C   -0.179397
     2  C   -0.029670
     3  C   -0.024225
     4  C   -0.177284
     5  H    0.089529
     6  H    0.070644
     7  H    0.050432
     8  H    0.048762
     9  H    0.061865
    10  H    0.089344
 Sum of Mulliken charges =   0.00000

 Dipole moment (field-independent basis, Debye):
    X=              0.0133    Y=             -0.0083    Z=              0.0037  Tot=              0.0161
 Quadrupole moment (field-independent basis, Debye-Ang):
   XX=            -23.4828   YY=            -23.1040   ZZ=            -29.2799
   XY=              0.1533   XZ=             -0.0774   YZ=              0.0053

 1\1\GINC-NODE37\SP\RB2PLYPD3-FC\def2QZVP\C4H6\BOITTIER\26-Aug-2020\0\\
 #p B2PLYPD3/Def2QZVP\\butadiene\\0,1\C,0,-3.847134,0.233648,0.039207\C
 ,0,-2.725192,-0.498763,0.01404\C,0,-1.384991,0.056247,-0.005574\C,0,-0
 .254227,-0.64749,0.048374\H,0,-4.788878,-0.276102,0.022195\H,0,-3.8103
 52,1.316521,0.001006\H,0,-2.764113,-1.596594,0.081249\H,0,-1.330227,1.
 143196,-0.029722\H,0,-0.272649,-1.738212,0.071994\H,0,0.697586,-0.1857
 23,0.037674\\Version=ES64L-G09RevD.01\State=1-A\HF=-155.7002883\MP2=-1
 55.9260459\RMSD=5.052e-09\PG=C01 [X(C4H6)]\\@

 Normal termination of Gaussian 09 at Wed Aug 26 13:20:28 2020.
