 Gaussian 09, Revision D.01,
 Gaussian 09:  ES64L-G09RevD.01 24-Apr-2013

 --------------------
 #p B2PLYPD3/Def2QZVP
 --------------------

 ---------
 butadiene
 ---------
 Symbolic Z-matrix:
 Charge =  0 Multiplicity = 1

                         Standard orientation:
 ---------------------------------------------------------------------
 Center     Atomic      Atomic             Coordinates (Angstroms)
 Number     Number       Type             X           Y           Z
 ---------------------------------------------------------------------
      1          6           0       -1.838188    0.102799    0.004213
      2          6           0       -0.604464   -0.397420   -0.019264
      3          6           0        0.601224    0.416504   -0.026129
      4          6           0        1.829460   -0.120097    0.014880
      5          1           0       -2.697982   -0.536331    0.082667
      6          1           0       -1.953940    1.171169    0.046699
      7          1           0       -0.447050   -1.447635   -0.005829
      8          1           0        0.447728    1.472071   -0.047923
      9          1           0        1.992243   -1.182010   -0.021932
     10          1           0        2.730815    0.512012    0.104124
 ---------------------------------------------------------------------

 SCF Done:  E(RB2PLYPD3) =  -155.699816426     A.U. after   11 cycles
 E2(B2PLYPD3) =    -0.2255722094D+00 E(B2PLYPD3) =    -0.15592538863567D+03

 The electronic state is 1-A.
 Alpha  occ. eigenvalues --  -10.62443 -10.62057 -10.61800 -10.61199  -0.93133
 Alpha  occ. eigenvalues --   -0.84851  -0.70078  -0.64681  -0.54659  -0.53836
 Alpha  occ. eigenvalues --   -0.46934  -0.45754  -0.41340  -0.38063  -0.27613
 Alpha virt. eigenvalues --    0.01771   0.07001   0.07475   0.08153   0.09480
 Alpha virt. eigenvalues --    0.11761   0.12496   0.14713   0.15849   0.16066
 Alpha virt. eigenvalues --    0.18713   0.20544   0.21577   0.23163   0.23878

 Mulliken charges:
               1
     1  C   -0.179945
     2  C   -0.025008
     3  C   -0.035323
     4  C   -0.176818
     5  H    0.088023
     6  H    0.063773
     7  H    0.055617
     8  H    0.058998
     9  H    0.069263
    10  H    0.081419
 Sum of Mulliken charges =   0.00000

 Dipole moment (field-independent basis, Debye):
    X=              0.0293    Y=             -0.0249    Z=              0.1142  Tot=              0.1205
 Quadrupole moment (field-independent basis, Debye-Ang):
   XX=            -23.6546   YY=            -23.0474   ZZ=            -29.2213
   XY=             -0.1562   XZ=             -0.0990   YZ=              0.0462

 1\1\GINC-NODE33\SP\RB2PLYPD3-FC\def2QZVP\C4H6\BOITTIER\26-Aug-2020\0\\
 #p B2PLYPD3/Def2QZVP\\butadiene\\0,1\C,0,-3.840041,0.218884,0.027244\C
 ,0,-2.717381,-0.496944,0.018923\C,0,-1.384291,0.084669,-0.00935\C,0,-0
 .273354,-0.664157,0.047796\H,0,-4.801019,-0.251564,0.122568\H,0,-3.760
 271,1.291309,0.0399\H,0,-2.752665,-1.557527,0.061705\H,0,-1.344218,1.1
 49574,-0.060632\H,0,-0.305679,-1.738595,0.04068\H,0,0.727905,-0.203523
 ,0.120342\\Version=ES64L-G09RevD.01\State=1-A\HF=-155.6998164\MP2=-155
 .9253886\RMSD=4.680e-09\PG=C01 [X(C4H6)]\\@

 Normal termination of Gaussian 09 at Wed Aug 26 19:19:07 2020.
