 Gaussian 09, Revision D.01,
 Gaussian 09:  ES64L-G09RevD.01 24-Apr-2013

 --------------------
 #p B2PLYPD3/Def2QZVP
 --------------------

 ---------
 butadiene
 ---------
 Symbolic Z-matrix:
 Charge =  0 Multiplicity = 1

                         Standard orientation:
 ---------------------------------------------------------------------
 Center     Atomic      Atomic             Coordinates (Angstroms)
 Number     Number       Type             X           Y           Z
 ---------------------------------------------------------------------
      1          6           0       -1.851521   -0.114105   -0.009065
      2          6           0       -0.594844    0.400396   -0.013993
      3          6           0        0.609053   -0.405263    0.004665
      4          6           0        1.843519    0.105843    0.007382
      5          1           0       -2.669783    0.540775    0.075093
      6          1           0       -2.138863   -1.133872   -0.107061
      7          1           0       -0.467855    1.482601    0.097257
      8          1           0        0.498086   -1.456573    0.133170
      9          1           0        2.005748    1.174926   -0.086975
     10          1           0        2.735422   -0.529080   -0.045417
 ---------------------------------------------------------------------

 SCF Done:  E(RB2PLYPD3) =  -155.696508080     A.U. after   11 cycles
 E2(B2PLYPD3) =    -0.2260998654D+00 E(B2PLYPD3) =    -0.15592260794539D+03

 The electronic state is 1-A.
 Alpha  occ. eigenvalues --  -10.63051 -10.62279 -10.61670 -10.61362  -0.92835
 Alpha  occ. eigenvalues --   -0.84701  -0.70621  -0.64307  -0.54695  -0.53961
 Alpha  occ. eigenvalues --   -0.46533  -0.45810  -0.41434  -0.37823  -0.27441
 Alpha virt. eigenvalues --    0.01355   0.07048   0.07533   0.08017   0.09373
 Alpha virt. eigenvalues --    0.11614   0.12490   0.14907   0.15692   0.16210
 Alpha virt. eigenvalues --    0.18886   0.20040   0.21928   0.22878   0.23654

 Mulliken charges:
               1
     1  C   -0.179682
     2  C   -0.038609
     3  C   -0.033864
     4  C   -0.170696
     5  H    0.080202
     6  H    0.072625
     7  H    0.059850
     8  H    0.065300
     9  H    0.062752
    10  H    0.082123
 Sum of Mulliken charges =   0.00000

 Dipole moment (field-independent basis, Debye):
    X=             -0.0320    Y=             -0.0364    Z=              0.0385  Tot=              0.0619
 Quadrupole moment (field-independent basis, Debye-Ang):
   XX=            -23.3536   YY=            -23.1266   ZZ=            -29.2518
   XY=              0.3221   XZ=             -0.2896   YZ=              0.0759

 1\1\GINC-NODE31\SP\RB2PLYPD3-FC\def2QZVP\C4H6\BOITTIER\26-Aug-2020\0\\
 #p B2PLYPD3/Def2QZVP\\butadiene\\0,1\C,0,-3.85279,0.233548,0.021661\C,
 0,-2.711021,-0.501152,0.045167\C,0,-1.380399,0.070682,0.00978\C,0,-0.2
 59857,-0.656837,0.025468\H,0,-4.776851,-0.263169,-0.048238\H,0,-3.9492
 26,1.290871,0.09138\H,0,-2.78365,-1.590961,-0.036765\H,0,-1.297896,1.1
 20763,-0.147072\H,0,-0.295234,-1.734651,0.148856\H,0,0.732938,-0.19400
 5,0.064837\\Version=ES64L-G09RevD.01\State=1-A\HF=-155.6965081\MP2=-15
 5.9226079\RMSD=6.876e-09\PG=C01 [X(C4H6)]\\@

 Normal termination of Gaussian 09 at Wed Aug 26 08:52:05 2020.
