 Gaussian 09, Revision D.01,
 Gaussian 09:  ES64L-G09RevD.01 24-Apr-2013

 --------------------
 #p B2PLYPD3/Def2QZVP
 --------------------

 ---------
 butadiene
 ---------
 Symbolic Z-matrix:
 Charge =  0 Multiplicity = 1

                         Standard orientation:
 ---------------------------------------------------------------------
 Center     Atomic      Atomic             Coordinates (Angstroms)
 Number     Number       Type             X           Y           Z
 ---------------------------------------------------------------------
      1          6           0        1.846484   -0.125981    0.005645
      2          6           0        0.620736    0.415762   -0.028219
      3          6           0       -0.607223   -0.385221   -0.013182
      4          6           0       -1.855044    0.099151    0.017482
      5          1           0        2.708425    0.497313    0.020973
      6          1           0        1.953073   -1.187107    0.107531
      7          1           0        0.504855    1.491793   -0.016010
      8          1           0       -0.482230   -1.474083   -0.056551
      9          1           0       -2.014177    1.180504    0.070148
     10          1           0       -2.699665   -0.530688   -0.016443
 ---------------------------------------------------------------------

 SCF Done:  E(RB2PLYPD3) =  -155.699928468     A.U. after   11 cycles
 E2(B2PLYPD3) =    -0.2257226803D+00 E(B2PLYPD3) =    -0.15592565114804D+03

 The electronic state is 1-A.
 Alpha  occ. eigenvalues --  -10.62744 -10.62688 -10.61357 -10.61355  -0.92707
 Alpha  occ. eigenvalues --   -0.85020  -0.70250  -0.63952  -0.54742  -0.54076
 Alpha  occ. eigenvalues --   -0.46782  -0.45761  -0.41256  -0.37863  -0.27696
 Alpha virt. eigenvalues --    0.01670   0.07046   0.07438   0.08094   0.09521
 Alpha virt. eigenvalues --    0.11681   0.12455   0.14674   0.15868   0.16170
 Alpha virt. eigenvalues --    0.18823   0.20539   0.21460   0.22834   0.23939

 Mulliken charges:
               1
     1  C   -0.175038
     2  C   -0.034807
     3  C   -0.027290
     4  C   -0.179898
     5  H    0.088850
     6  H    0.069261
     7  H    0.055443
     8  H    0.049362
     9  H    0.062491
    10  H    0.091625
 Sum of Mulliken charges =   0.00000

 Dipole moment (field-independent basis, Debye):
    X=              0.0272    Y=              0.0088    Z=              0.0791  Tot=              0.0841
 Quadrupole moment (field-independent basis, Debye-Ang):
   XX=            -23.4682   YY=            -23.0809   ZZ=            -29.2820
   XY=              0.0351   XZ=              0.2293   YZ=              0.0291

 1\1\GINC-NODE38\SP\RB2PLYPD3-FC\def2QZVP\C4H6\BOITTIER\26-Aug-2020\0\\
 #p B2PLYPD3/Def2QZVP\\butadiene\\0,1\C,0,-3.846441,0.235764,0.02799\C,
 0,-2.735918,-0.514932,0.011087\C,0,-1.385674,0.056411,0.001561\C,0,-0.
 242946,-0.639783,0.047386\H,0,-4.804871,-0.22456,0.062434\H,0,-3.76328
 8,1.301621,0.097012\H,0,-2.811954,-1.593621,0.056568\H,0,-1.316505,1.1
 48385,-0.075462\H,0,-0.277137,-1.730122,0.133476\H,0,0.699495,-0.17052
 4,-0.005851\\Version=ES64L-G09RevD.01\State=1-A\HF=-155.6999285\MP2=-1
 55.9256511\RMSD=5.155e-09\PG=C01 [X(C4H6)]\\@

 Normal termination of Gaussian 09 at Wed Aug 26 19:14:08 2020.
