 Gaussian 09, Revision D.01,
 Gaussian 09:  ES64L-G09RevD.01 24-Apr-2013

 --------------------
 #p B2PLYPD3/Def2QZVP
 --------------------

 ---------
 butadiene
 ---------
 Symbolic Z-matrix:
 Charge =  0 Multiplicity = 1

                         Standard orientation:
 ---------------------------------------------------------------------
 Center     Atomic      Atomic             Coordinates (Angstroms)
 Number     Number       Type             X           Y           Z
 ---------------------------------------------------------------------
      1          6           0       -1.839469    0.092414   -0.008132
      2          6           0       -0.604355   -0.385266   -0.013381
      3          6           0        0.604716    0.420578    0.008956
      4          6           0        1.835496   -0.123444   -0.000925
      5          1           0       -2.735097   -0.522577    0.035343
      6          1           0       -1.998866    1.158385   -0.023508
      7          1           0       -0.440716   -1.461078    0.077936
      8          1           0        0.474621    1.498884    0.038362
      9          1           0        1.974408   -1.175399   -0.045326
     10          1           0        2.747319    0.476094   -0.001919
 ---------------------------------------------------------------------

 SCF Done:  E(RB2PLYPD3) =  -155.700269875     A.U. after   11 cycles
 E2(B2PLYPD3) =    -0.2257047694D+00 E(B2PLYPD3) =    -0.15592597464429D+03

 The electronic state is 1-A.
 Alpha  occ. eigenvalues --  -10.62786 -10.62398 -10.61632 -10.61349  -0.93034
 Alpha  occ. eigenvalues --   -0.84888  -0.70221  -0.64194  -0.54697  -0.53864
 Alpha  occ. eigenvalues --   -0.46959  -0.45489  -0.41050  -0.38126  -0.27704
 Alpha virt. eigenvalues --    0.01715   0.07029   0.07427   0.08065   0.09546
 Alpha virt. eigenvalues --    0.11656   0.12574   0.14657   0.15771   0.16234
 Alpha virt. eigenvalues --    0.18797   0.20413   0.21807   0.23012   0.23601

 Mulliken charges:
               1
     1  C   -0.175613
     2  C   -0.022411
     3  C   -0.035820
     4  C   -0.174383
     5  H    0.086888
     6  H    0.060998
     7  H    0.052741
     8  H    0.056113
     9  H    0.067588
    10  H    0.083897
 Sum of Mulliken charges =   0.00000

 Dipole moment (field-independent basis, Debye):
    X=              0.0198    Y=              0.0014    Z=              0.0660  Tot=              0.0689
 Quadrupole moment (field-independent basis, Debye-Ang):
   XX=            -23.2841   YY=            -23.2306   ZZ=            -29.2527
   XY=             -0.2051   XZ=             -0.1993   YZ=             -0.0498

 1\1\GINC-NODE02\SP\RB2PLYPD3-FC\def2QZVP\C4H6\BOITTIER\26-Aug-2020\0\\
 #p B2PLYPD3/Def2QZVP\\butadiene\\0,1\C,0,-3.844565,0.207234,0.014765\C
 ,0,-2.71589,-0.485357,0.025828\C,0,-1.381215,0.089417,0.021956\C,0,-0.
 268792,-0.66776,0.030585\H,0,-4.836156,-0.234325,0.078219\H,0,-3.80920
 3,1.283392,-0.03596\H,0,-2.74843,-1.569475,0.15278\H,0,-1.314558,1.173
 875,0.015592\H,0,-0.322109,-1.728394,0.021093\H,0,0.736178,-0.242928,0
 .010106\\Version=ES64L-G09RevD.01\State=1-A\HF=-155.7002699\MP2=-155.9
 259746\RMSD=5.221e-09\PG=C01 [X(C4H6)]\\@

 Normal termination of Gaussian 09 at Wed Aug 26 18:54:09 2020.
