 Gaussian 09, Revision D.01,
 Gaussian 09:  ES64L-G09RevD.01 24-Apr-2013

 --------------------
 #p B2PLYPD3/Def2QZVP
 --------------------

 ---------
 butadiene
 ---------
 Symbolic Z-matrix:
 Charge =  0 Multiplicity = 1

                         Standard orientation:
 ---------------------------------------------------------------------
 Center     Atomic      Atomic             Coordinates (Angstroms)
 Number     Number       Type             X           Y           Z
 ---------------------------------------------------------------------
      1          6           0        1.844351    0.104670    0.012045
      2          6           0        0.606022   -0.380925   -0.030277
      3          6           0       -0.618312    0.407618   -0.004107
      4          6           0       -1.843109   -0.117133    0.002488
      5          1           0        2.713272   -0.552894    0.080548
      6          1           0        2.045620    1.152876    0.007826
      7          1           0        0.504474   -1.444963   -0.016160
      8          1           0       -0.481336    1.472537   -0.052549
      9          1           0       -1.965021   -1.193688    0.013875
     10          1           0       -2.750721    0.480749    0.085564
 ---------------------------------------------------------------------

 SCF Done:  E(RB2PLYPD3) =  -155.700503924     A.U. after   11 cycles
 E2(B2PLYPD3) =    -0.2253935822D+00 E(B2PLYPD3) =    -0.15592589750582D+03

 The electronic state is 1-A.
 Alpha  occ. eigenvalues --  -10.62494 -10.62244 -10.61666 -10.61360  -0.93034
 Alpha  occ. eigenvalues --   -0.85073  -0.70162  -0.64401  -0.54598  -0.54080
 Alpha  occ. eigenvalues --   -0.46935  -0.45559  -0.41095  -0.38095  -0.27814
 Alpha virt. eigenvalues --    0.01756   0.06972   0.07542   0.08061   0.09672
 Alpha virt. eigenvalues --    0.11658   0.12504   0.14679   0.15754   0.16263
 Alpha virt. eigenvalues --    0.18859   0.20373   0.21802   0.22666   0.23868

 Mulliken charges:
               1
     1  C   -0.176472
     2  C   -0.026465
     3  C   -0.037174
     4  C   -0.170345
     5  H    0.082733
     6  H    0.065042
     7  H    0.054745
     8  H    0.057991
     9  H    0.063795
    10  H    0.086150
 Sum of Mulliken charges =   0.00000

 Dipole moment (field-independent basis, Debye):
    X=             -0.0104    Y=              0.0077    Z=              0.0861  Tot=              0.0871
 Quadrupole moment (field-independent basis, Debye-Ang):
   XX=            -23.3260   YY=            -23.1945   ZZ=            -29.2065
   XY=              0.1017   XZ=              0.0009   YZ=             -0.0707

 1\1\GINC-NODE32\SP\RB2PLYPD3-FC\def2QZVP\C4H6\BOITTIER\26-Aug-2020\0\\
 #p B2PLYPD3/Def2QZVP\\butadiene\\0,1\C,0,-3.850331,0.213525,0.005249\C
 ,0,-2.71764,-0.482892,0.060646\C,0,-1.372944,0.07522,0.01843\C,0,-0.26
 0635,-0.658436,0.025796\H,0,-4.822255,-0.280905,-0.049605\H,0,-3.86251
 6,1.280629,-0.01481\H,0,-2.806427,-1.548114,0.071012\H,0,-1.318782,1.1
 48373,0.042303\H,0,-0.331594,-1.739523,0.039209\H,0,0.738408,-0.233041
 ,-0.069464\\Version=ES64L-G09RevD.01\State=1-A\HF=-155.7005039\MP2=-15
 5.9258975\RMSD=3.069e-09\PG=C01 [X(C4H6)]\\@

 Normal termination of Gaussian 09 at Wed Aug 26 21:13:14 2020.
