 Gaussian 09, Revision D.01,
 Gaussian 09:  ES64L-G09RevD.01 24-Apr-2013

 --------------------
 #p B2PLYPD3/Def2QZVP
 --------------------

 ---------
 butadiene
 ---------
 Symbolic Z-matrix:
 Charge =  0 Multiplicity = 1

                         Standard orientation:
 ---------------------------------------------------------------------
 Center     Atomic      Atomic             Coordinates (Angstroms)
 Number     Number       Type             X           Y           Z
 ---------------------------------------------------------------------
      1          6           0        1.814506   -0.152833   -0.056637
      2          6           0        0.599430    0.448288    0.059641
      3          6           0       -0.589518   -0.333923    0.125162
      4          6           0       -1.827949    0.073642   -0.083097
      5          1           0        2.711800    0.457827   -0.095601
      6          1           0        1.904069   -1.153975   -0.033167
      7          1           0        0.380486    1.480699   -0.018649
      8          1           0       -0.406723   -1.441179   -0.024611
      9          1           0       -2.010823    1.141089    0.002363
     10          1           0       -2.557632   -0.695505   -0.100750
 ---------------------------------------------------------------------

 SCF Done:  E(RB2PLYPD3) =  -155.682220459     A.U. after   11 cycles
 E2(B2PLYPD3) =    -0.2264948170D+00 E(B2PLYPD3) =    -0.15590871527611D+03

 The electronic state is 1-A.
 Alpha  occ. eigenvalues --  -10.62470 -10.61943 -10.61347 -10.61006  -0.93695
 Alpha  occ. eigenvalues --   -0.85128  -0.71221  -0.63891  -0.55115  -0.53824
 Alpha  occ. eigenvalues --   -0.48046  -0.45102  -0.40895  -0.38320  -0.27467
 Alpha virt. eigenvalues --    0.01233   0.07100   0.07401   0.08175   0.09335
 Alpha virt. eigenvalues --    0.11951   0.12372   0.14935   0.15478   0.15944
 Alpha virt. eigenvalues --    0.18681   0.19377   0.21816   0.23500   0.24631

 Mulliken charges:
               1
     1  C   -0.176961
     2  C   -0.040181
     3  C   -0.002328
     4  C   -0.184490
     5  H    0.084302
     6  H    0.079245
     7  H    0.055285
     8  H    0.031645
     9  H    0.064630
    10  H    0.088853
 Sum of Mulliken charges =   0.00000

 Dipole moment (field-independent basis, Debye):
    X=              0.0623    Y=              0.0108    Z=             -0.1068  Tot=              0.1241
 Quadrupole moment (field-independent basis, Debye-Ang):
   XX=            -24.0094   YY=            -23.0700   ZZ=            -29.1372
   XY=             -0.2228   XZ=             -0.0331   YZ=              0.1449

 1\1\GINC-NODE30\SP\RB2PLYPD3-FC\def2QZVP\C4H6\BOITTIER\26-Aug-2020\0\\
 #p B2PLYPD3/Def2QZVP\\butadiene\\0,1\C,0,-3.806537,0.272047,-0.050183\
 C,0,-2.723425,-0.537272,0.101961\C,0,-1.409387,0.012637,0.127453\C,0,-
 0.269879,-0.628783,-0.055012\H,0,-4.801931,-0.16234,-0.057838\H,0,-3.7
 08368,1.272154,-0.081908\H,0,-2.700702,-1.595091,0.08099\H,0,-1.384451
 ,1.12476,-0.08331\H,0,-0.287839,-1.705364,0.089351\H,0,0.589833,-0.010
 828,-0.113007\\Version=ES64L-G09RevD.01\State=1-A\HF=-155.6822205\MP2=
 -155.9087153\RMSD=9.206e-09\PG=C01 [X(C4H6)]\\@

 Normal termination of Gaussian 09 at Wed Aug 26 13:38:46 2020.
