 Gaussian 09, Revision D.01,
 Gaussian 09:  ES64L-G09RevD.01 24-Apr-2013

 --------------------
 #p B2PLYPD3/Def2QZVP
 --------------------

 ---------
 butadiene
 ---------
 Symbolic Z-matrix:
 Charge =  0 Multiplicity = 1

                         Standard orientation:
 ---------------------------------------------------------------------
 Center     Atomic      Atomic             Coordinates (Angstroms)
 Number     Number       Type             X           Y           Z
 ---------------------------------------------------------------------
      1          6           0        1.807679    0.093176   -0.025055
      2          6           0        0.607749   -0.405531   -0.015635
      3          6           0       -0.588536    0.398842   -0.026097
      4          6           0       -1.819838   -0.131179    0.023430
      5          1           0        2.808126   -0.422065    0.147310
      6          1           0        1.824574    1.206581    0.034598
      7          1           0        0.467846   -1.398829   -0.016105
      8          1           0       -0.483247    1.505230    0.104494
      9          1           0       -1.940321   -1.134466    0.059125
     10          1           0       -2.719302    0.511699   -0.069284
 ---------------------------------------------------------------------

 SCF Done:  E(RB2PLYPD3) =  -155.681759568     A.U. after   11 cycles
 E2(B2PLYPD3) =    -0.2255865000D+00 E(B2PLYPD3) =    -0.15590734606780D+03

 The electronic state is 1-A.
 Alpha  occ. eigenvalues --  -10.62762 -10.61797 -10.61083 -10.61063  -0.93904
 Alpha  occ. eigenvalues --   -0.85290  -0.69732  -0.65142  -0.54905  -0.53993
 Alpha  occ. eigenvalues --   -0.46765  -0.45021  -0.41134  -0.38481  -0.27861
 Alpha virt. eigenvalues --    0.01879   0.06946   0.07546   0.07994   0.09531
 Alpha virt. eigenvalues --    0.11681   0.12788   0.14439   0.15396   0.16684
 Alpha virt. eigenvalues --    0.18541   0.19295   0.22436   0.23275   0.23925

 Mulliken charges:
               1
     1  C   -0.153190
     2  C   -0.032523
     3  C   -0.022670
     4  C   -0.185668
     5  H    0.081357
     6  H    0.044615
     7  H    0.061948
     8  H    0.052205
     9  H    0.070269
    10  H    0.083657
 Sum of Mulliken charges =   0.00000

 Dipole moment (field-independent basis, Debye):
    X=             -0.0231    Y=             -0.1105    Z=              0.2092  Tot=              0.2377
 Quadrupole moment (field-independent basis, Debye-Ang):
   XX=            -23.5100   YY=            -23.3522   ZZ=            -29.0485
   XY=             -0.0899   XZ=              0.5655   YZ=              0.0126

 1\1\GINC-NODE24\SP\RB2PLYPD3-FC\def2QZVP\C4H6\BOITTIER\26-Aug-2020\0\\
 #p B2PLYPD3/Def2QZVP\\butadiene\\0,1\C,0,-3.813152,0.201506,0.029366\C
 ,0,-2.720234,-0.501261,0.046029\C,0,-1.400632,0.079037,0.034666\C,0,-0
 .282375,-0.661566,0.012603\H,0,-4.888926,-0.135031,-0.130417\H,0,-3.63
 3039,1.297384,-0.071258\H,0,-2.758059,-1.502934,0.083894\H,0,-1.308771
 ,1.180977,-0.13716\H,0,-0.341084,-1.670984,0.01457\H,0,0.71655,-0.1846
 26,0.087449\\Version=ES64L-G09RevD.01\State=1-A\HF=-155.6817596\MP2=-1
 55.9073461\RMSD=8.772e-09\PG=C01 [X(C4H6)]\\@

 Normal termination of Gaussian 09 at Wed Aug 26 13:34:40 2020.
