 Gaussian 09, Revision D.01,
 Gaussian 09:  ES64L-G09RevD.01 24-Apr-2013

 --------------------
 #p B2PLYPD3/Def2QZVP
 --------------------

 ---------
 butadiene
 ---------
 Symbolic Z-matrix:
 Charge =  0 Multiplicity = 1

                         Standard orientation:
 ---------------------------------------------------------------------
 Center     Atomic      Atomic             Coordinates (Angstroms)
 Number     Number       Type             X           Y           Z
 ---------------------------------------------------------------------
      1          6           0        1.868905    0.084297    0.068007
      2          6           0        0.610207   -0.352517   -0.075835
      3          6           0       -0.605970    0.401203   -0.075460
      4          6           0       -1.821448   -0.125456    0.029755
      5          1           0        2.691693   -0.639464    0.131187
      6          1           0        2.102944    1.112871    0.107264
      7          1           0        0.342098   -1.351974   -0.123920
      8          1           0       -0.571448    1.503879   -0.204829
      9          1           0       -2.149013   -1.198705    0.059698
     10          1           0       -2.726443    0.528227    0.351798
 ---------------------------------------------------------------------

 SCF Done:  E(RB2PLYPD3) =  -155.682156980     A.U. after   11 cycles
 E2(B2PLYPD3) =    -0.2266649974D+00 E(B2PLYPD3) =    -0.15590882197700D+03

 The electronic state is 1-A.
 Alpha  occ. eigenvalues --  -10.62930 -10.62773 -10.62026 -10.61690  -0.93442
 Alpha  occ. eigenvalues --   -0.84776  -0.70719  -0.64044  -0.54685  -0.53621
 Alpha  occ. eigenvalues --   -0.47090  -0.45077  -0.40936  -0.37518  -0.27611
 Alpha virt. eigenvalues --    0.01203   0.06788   0.07458   0.07856   0.09791
 Alpha virt. eigenvalues --    0.11456   0.12305   0.14576   0.15614   0.16179
 Alpha virt. eigenvalues --    0.18778   0.19919   0.21365   0.23009   0.23514

 Mulliken charges:
               1
     1  C   -0.178181
     2  C   -0.042285
     3  C   -0.021968
     4  C   -0.168715
     5  H    0.086722
     6  H    0.076166
     7  H    0.062044
     8  H    0.059216
     9  H    0.060117
    10  H    0.066883
 Sum of Mulliken charges =   0.00000

 Dipole moment (field-independent basis, Debye):
    X=             -0.0504    Y=             -0.0315    Z=              0.1618  Tot=              0.1724
 Quadrupole moment (field-independent basis, Debye-Ang):
   XX=            -23.5172   YY=            -23.4394   ZZ=            -29.1075
   XY=              0.5551   XZ=             -0.4198   YZ=              0.0575

 1\1\GINC-NODE11\SP\RB2PLYPD3-FC\def2QZVP\C4H6\BOITTIER\26-Aug-2020\0\\
 #p B2PLYPD3/Def2QZVP\\butadiene\\0,1\C,0,-3.868502,0.209016,-0.047331\
 C,0,-2.710859,-0.448935,0.103603\C,0,-1.376816,0.067957,0.085404\C,0,-
 0.279543,-0.675401,-0.010705\H,0,-4.810712,-0.352117,-0.093946\H,0,-3.
 909566,1.262076,-0.107811\H,0,-2.630903,-1.479471,0.172241\H,0,-1.2072
 17,1.160557,0.19163\H,0,-0.155146,-1.790983,-0.018623\H,0,0.728473,-0.
 206103,-0.34789\\Version=ES64L-G09RevD.01\State=1-A\HF=-155.682157\MP2
 =-155.908822\RMSD=8.756e-09\PG=C01 [X(C4H6)]\\@

 Normal termination of Gaussian 09 at Wed Aug 26 13:52:58 2020.
