 Gaussian 09, Revision D.01,
 Gaussian 09:  ES64L-G09RevD.01 24-Apr-2013

 --------------------
 #p B2PLYPD3/Def2QZVP
 --------------------

 ---------
 butadiene
 ---------
 Symbolic Z-matrix:
 Charge =  0 Multiplicity = 1

                         Standard orientation:
 ---------------------------------------------------------------------
 Center     Atomic      Atomic             Coordinates (Angstroms)
 Number     Number       Type             X           Y           Z
 ---------------------------------------------------------------------
      1          6           0       -1.805317   -0.151146   -0.089454
      2          6           0       -0.632785    0.409847    0.038234
      3          6           0        0.598901   -0.348729    0.034715
      4          6           0        1.855538    0.095736   -0.045250
      5          1           0       -2.716152    0.526296    0.019236
      6          1           0       -1.996373   -1.179878   -0.035835
      7          1           0       -0.704139    1.485613    0.355962
      8          1           0        0.470856   -1.419559    0.201144
      9          1           0        2.156861    1.112528   -0.279502
     10          1           0        2.690929   -0.559252    0.109524
 ---------------------------------------------------------------------

 SCF Done:  E(RB2PLYPD3) =  -155.685452594     A.U. after   11 cycles
 E2(B2PLYPD3) =    -0.2257753415D+00 E(B2PLYPD3) =    -0.15591122793586D+03

 The electronic state is 1-A.
 Alpha  occ. eigenvalues --  -10.62678 -10.62472 -10.61465 -10.61295  -0.93300
 Alpha  occ. eigenvalues --   -0.85405  -0.70132  -0.63639  -0.54675  -0.54145
 Alpha  occ. eigenvalues --   -0.47027  -0.44933  -0.40940  -0.37232  -0.28124
 Alpha virt. eigenvalues --    0.01718   0.07027   0.07223   0.07755   0.09613
 Alpha virt. eigenvalues --    0.11454   0.12503   0.14721   0.15618   0.16426
 Alpha virt. eigenvalues --    0.19117   0.19487   0.21789   0.21935   0.24000

 Mulliken charges:
               1
     1  C   -0.158814
     2  C   -0.034285
     3  C   -0.035522
     4  C   -0.178683
     5  H    0.062255
     6  H    0.069085
     7  H    0.064145
     8  H    0.057085
     9  H    0.072090
    10  H    0.082644
 Sum of Mulliken charges =   0.00000

 Dipole moment (field-independent basis, Debye):
    X=             -0.0370    Y=             -0.0570    Z=              0.3603  Tot=              0.3667
 Quadrupole moment (field-independent basis, Debye-Ang):
   XX=            -23.4501   YY=            -23.4325   ZZ=            -28.9398
   XY=              0.1769   XZ=             -0.4661   YZ=             -0.1446

 1\1\GINC-NODE28\SP\RB2PLYPD3-FC\def2QZVP\C4H6\BOITTIER\26-Aug-2020\0\\
 #p B2PLYPD3/Def2QZVP\\butadiene\\0,1\C,0,-3.805856,0.247898,0.087943\C
 ,0,-2.747351,-0.510206,-0.015471\C,0,-1.403298,0.024537,-0.024082\C,0,
 -0.24235,-0.627362,0.077438\H,0,-4.81962,-0.265274,-0.008487\H,0,-3.81
 6486,1.292194,0.004272\H,0,-3.002416,-1.566253,-0.303604\H,0,-1.34433,
 1.096184,-0.221227\H,0,-0.12148,-1.673717,0.342141\H,0,0.693862,-0.130
 863,-0.089413\\Version=ES64L-G09RevD.01\State=1-A\HF=-155.6854526\MP2=
 -155.9112279\RMSD=5.585e-09\PG=C01 [X(C4H6)]\\@

 Normal termination of Gaussian 09 at Wed Aug 26 14:39:31 2020.
