 Gaussian 09, Revision D.01,
 Gaussian 09:  ES64L-G09RevD.01 24-Apr-2013

 --------------------
 #p B2PLYPD3/Def2QZVP
 --------------------

 ---------
 butadiene
 ---------
 Symbolic Z-matrix:
 Charge =  0 Multiplicity = 1

                         Standard orientation:
 ---------------------------------------------------------------------
 Center     Atomic      Atomic             Coordinates (Angstroms)
 Number     Number       Type             X           Y           Z
 ---------------------------------------------------------------------
      1          6           0        1.828081   -0.131114   -0.018048
      2          6           0        0.621181    0.409623   -0.025203
      3          6           0       -0.606535   -0.361633   -0.010438
      4          6           0       -1.859369    0.088231    0.012463
      5          1           0        2.775043    0.480168    0.137392
      6          1           0        1.938799   -1.202189    0.009055
      7          1           0        0.568792    1.519586    0.034286
      8          1           0       -0.414206   -1.455011    0.066129
      9          1           0       -2.022070    1.149213    0.004660
     10          1           0       -2.746506   -0.522408   -0.004164
 ---------------------------------------------------------------------

 SCF Done:  E(RB2PLYPD3) =  -155.695221780     A.U. after   11 cycles
 E2(B2PLYPD3) =    -0.2260220360D+00 E(B2PLYPD3) =    -0.15592124381619D+03

 The electronic state is 1-A.
 Alpha  occ. eigenvalues --  -10.62887 -10.62733 -10.61983 -10.61448  -0.93123
 Alpha  occ. eigenvalues --   -0.85153  -0.70034  -0.63571  -0.54560  -0.53818
 Alpha  occ. eigenvalues --   -0.47101  -0.44843  -0.40538  -0.38283  -0.27982
 Alpha virt. eigenvalues --    0.01655   0.06958   0.07354   0.07862   0.09783
 Alpha virt. eigenvalues --    0.11622   0.12531   0.14522   0.15718   0.16273
 Alpha virt. eigenvalues --    0.18865   0.20059   0.21667   0.22845   0.23497

 Mulliken charges:
               1
     1  C   -0.164864
     2  C   -0.023008
     3  C   -0.027857
     4  C   -0.174309
     5  H    0.080147
     6  H    0.061665
     7  H    0.049160
     8  H    0.044663
     9  H    0.062497
    10  H    0.091907
 Sum of Mulliken charges =   0.00000

 Dipole moment (field-independent basis, Debye):
    X=              0.0197    Y=              0.0098    Z=              0.1933  Tot=              0.1945
 Quadrupole moment (field-independent basis, Debye-Ang):
   XX=            -23.2012   YY=            -23.4324   ZZ=            -29.2568
   XY=             -0.0381   XZ=              0.4533   YZ=              0.0469

 1\1\GINC-NODE22\SP\RB2PLYPD3-FC\def2QZVP\C4H6\BOITTIER\26-Aug-2020\0\\
 #p B2PLYPD3/Def2QZVP\\butadiene\\0,1\C,0,-3.830528,0.234763,0.01133\C,
 0,-2.737155,-0.509242,0.018158\C,0,-1.393202,0.034827,0.007289\C,0,-0.
 238465,-0.626928,0.041331\H,0,-4.868821,-0.196127,0.18696\H,0,-3.75162
 7,1.308981,0.006332\H,0,-2.879674,-1.608957,0.110994\H,0,-1.390382,1.1
 46758,0.051218\H,0,-0.264281,-1.699764,0.065215\H,0,0.741815,-0.182103
 ,0.004585\\Version=ES64L-G09RevD.01\State=1-A\HF=-155.6952218\MP2=-155
 .9212438\RMSD=2.886e-09\PG=C01 [X(C4H6)]\\@

 Normal termination of Gaussian 09 at Wed Aug 26 09:27:15 2020.
