 Gaussian 09, Revision D.01,
 Gaussian 09:  ES64L-G09RevD.01 24-Apr-2013

 --------------------
 #p B2PLYPD3/Def2QZVP
 --------------------

 ---------
 butadiene
 ---------
 Symbolic Z-matrix:
 Charge =  0 Multiplicity = 1

                         Standard orientation:
 ---------------------------------------------------------------------
 Center     Atomic      Atomic             Coordinates (Angstroms)
 Number     Number       Type             X           Y           Z
 ---------------------------------------------------------------------
      1          6           0        1.834845    0.122109    0.040713
      2          6           0        0.599871   -0.433396   -0.016295
      3          6           0       -0.590809    0.398284   -0.053079
      4          6           0       -1.834307   -0.096784    0.028275
      5          1           0        2.650700   -0.561070   -0.068468
      6          1           0        2.014500    1.235167    0.084760
      7          1           0        0.449450   -1.483032   -0.097359
      8          1           0       -0.438528    1.487235   -0.034309
      9          1           0       -2.024664   -1.166712    0.134086
     10          1           0       -2.709052    0.547136   -0.016390
 ---------------------------------------------------------------------

 SCF Done:  E(RB2PLYPD3) =  -155.695249996     A.U. after   11 cycles
 E2(B2PLYPD3) =    -0.2266911377D+00 E(B2PLYPD3) =    -0.15592194113394D+03

 The electronic state is 1-A.
 Alpha  occ. eigenvalues --  -10.62635 -10.62576 -10.62143 -10.61648  -0.92814
 Alpha  occ. eigenvalues --   -0.84419  -0.69893  -0.64066  -0.54313  -0.53492
 Alpha  occ. eigenvalues --   -0.46421  -0.45581  -0.41361  -0.37810  -0.27352
 Alpha virt. eigenvalues --    0.01507   0.07013   0.07264   0.08064   0.09284
 Alpha virt. eigenvalues --    0.11714   0.12229   0.14743   0.15564   0.16203
 Alpha virt. eigenvalues --    0.18764   0.20233   0.21405   0.22767   0.23885

 Mulliken charges:
               1
     1  C   -0.177433
     2  C   -0.042758
     3  C   -0.025287
     4  C   -0.177539
     5  H    0.084193
     6  H    0.072369
     7  H    0.064598
     8  H    0.054808
     9  H    0.062957
    10  H    0.084092
 Sum of Mulliken charges =   0.00000

 Dipole moment (field-independent basis, Debye):
    X=             -0.0077    Y=             -0.0259    Z=             -0.0464  Tot=              0.0537
 Quadrupole moment (field-independent basis, Debye-Ang):
   XX=            -23.9460   YY=            -22.8553   ZZ=            -29.3964
   XY=              0.2731   XZ=             -0.3259   YZ=              0.0954

 1\1\GINC-NODE12\SP\RB2PLYPD3-FC\def2QZVP\C4H6\BOITTIER\26-Aug-2020\0\\
 #p B2PLYPD3/Def2QZVP\\butadiene\\0,1\C,0,-3.831394,0.243925,-0.018918\
 C,0,-2.720134,-0.528228,0.057743\C,0,-1.395902,0.069385,0.063428\C,0,-
 0.266093,-0.649958,-0.000397\H,0,-4.758743,-0.272016,0.11563\H,0,-3.80
 2335,1.368691,-0.103594\H,0,-2.765919,-1.583969,0.177104\H,0,-1.344217
 ,1.166316,0.00488\H,0,-0.277749,-1.739727,-0.067063\H,0,0.712986,-0.17
 7955,0.020203\\Version=ES64L-G09RevD.01\State=1-A\HF=-155.69525\MP2=-1
 55.9219411\RMSD=7.212e-09\PG=C01 [X(C4H6)]\\@

 Normal termination of Gaussian 09 at Wed Aug 26 10:52:10 2020.
