 Gaussian 09, Revision D.01,
 Gaussian 09:  ES64L-G09RevD.01 24-Apr-2013

 --------------------
 #p B2PLYPD3/Def2QZVP
 --------------------

 ---------
 butadiene
 ---------
 Symbolic Z-matrix:
 Charge =  0 Multiplicity = 1

                         Standard orientation:
 ---------------------------------------------------------------------
 Center     Atomic      Atomic             Coordinates (Angstroms)
 Number     Number       Type             X           Y           Z
 ---------------------------------------------------------------------
      1          6           0       -1.832680   -0.106538   -0.015012
      2          6           0       -0.594287    0.394455    0.000949
      3          6           0        0.606437   -0.421427    0.011723
      4          6           0        1.825980    0.112746   -0.005952
      5          1           0       -2.665242    0.569719   -0.020244
      6          1           0       -2.057700   -1.165059    0.051111
      7          1           0       -0.453457    1.478158    0.048127
      8          1           0        0.474079   -1.476350   -0.006109
      9          1           0        1.957548    1.223406    0.000612
     10          1           0        2.712072   -0.505290   -0.023747
 ---------------------------------------------------------------------

 SCF Done:  E(RB2PLYPD3) =  -155.699717511     A.U. after   11 cycles
 E2(B2PLYPD3) =    -0.2257176680D+00 E(B2PLYPD3) =    -0.15592543517852D+03

 The electronic state is 1-A.
 Alpha  occ. eigenvalues --  -10.62517 -10.62178 -10.61788 -10.61324  -0.93086
 Alpha  occ. eigenvalues --   -0.84855  -0.69945  -0.64147  -0.54619  -0.53796
 Alpha  occ. eigenvalues --   -0.46549  -0.45540  -0.41249  -0.38145  -0.27641
 Alpha virt. eigenvalues --    0.01859   0.07013   0.07341   0.08097   0.09511
 Alpha virt. eigenvalues --    0.11720   0.12346   0.14744   0.15768   0.16184
 Alpha virt. eigenvalues --    0.18696   0.20448   0.21555   0.22850   0.24028

 Mulliken charges:
               1
     1  C   -0.180500
     2  C   -0.026512
     3  C   -0.035148
     4  C   -0.171388
     5  H    0.082651
     6  H    0.068719
     7  H    0.053823
     8  H    0.060313
     9  H    0.062211
    10  H    0.085832
 Sum of Mulliken charges =   0.00000

 Dipole moment (field-independent basis, Debye):
    X=              0.0178    Y=             -0.0377    Z=              0.0582  Tot=              0.0716
 Quadrupole moment (field-independent basis, Debye-Ang):
   XX=            -23.6989   YY=            -22.9622   ZZ=            -29.2768
   XY=              0.1591   XZ=             -0.1645   YZ=              0.0114

 1\1\GINC-NODE26\SP\RB2PLYPD3-FC\def2QZVP\C4H6\BOITTIER\26-Aug-2020\0\\
 #p B2PLYPD3/Def2QZVP\\butadiene\\0,1\C,0,-3.835655,0.222677,0.030169\C
 ,0,-2.709612,-0.496273,0.031931\C,0,-1.380107,0.086018,0.002375\C,0,-0
 .27859,-0.661167,0.038617\H,0,-4.777702,-0.289772,0.051479\H,0,-3.8637
 15,1.302242,-0.065879\H,0,-2.769148,-1.588356,0.015154\H,0,-1.317555,1
 .147455,-0.009362\H,0,-0.352075,-1.776925,0.063155\H,0,0.7055,-0.21507
 3,0.042101\\Version=ES64L-G09RevD.01\State=1-A\HF=-155.6997175\MP2=-15
 5.9254352\RMSD=3.428e-09\PG=C01 [X(C4H6)]\\@

 Normal termination of Gaussian 09 at Wed Aug 26 20:54:10 2020.
