 Gaussian 09, Revision D.01,
 Gaussian 09:  ES64L-G09RevD.01 24-Apr-2013

 --------------------
 #p B2PLYPD3/Def2QZVP
 --------------------

 ---------
 butadiene
 ---------
 Symbolic Z-matrix:
 Charge =  0 Multiplicity = 1

                         Standard orientation:
 ---------------------------------------------------------------------
 Center     Atomic      Atomic             Coordinates (Angstroms)
 Number     Number       Type             X           Y           Z
 ---------------------------------------------------------------------
      1          6           0       -1.854568    0.065156    0.014337
      2          6           0       -0.578356   -0.368596   -0.037771
      3          6           0        0.612966    0.443809   -0.065643
      4          6           0        1.818773   -0.140952   -0.010223
      5          1           0       -2.679958   -0.509157    0.159441
      6          1           0       -2.188292    1.063727   -0.053495
      7          1           0       -0.372876   -1.404015    0.057359
      8          1           0        0.558822    1.563722    0.189056
      9          1           0        1.993023   -1.186085    0.069644
     10          1           0        2.696390    0.475304    0.173794
 ---------------------------------------------------------------------

 SCF Done:  E(RB2PLYPD3) =  -155.684110879     A.U. after   11 cycles
 E2(B2PLYPD3) =    -0.2263275846D+00 E(B2PLYPD3) =    -0.15591043846364D+03

 The electronic state is 1-A.
 Alpha  occ. eigenvalues --  -10.63289 -10.62575 -10.61619 -10.60624  -0.93054
 Alpha  occ. eigenvalues --   -0.84845  -0.71375  -0.64130  -0.55443  -0.53868
 Alpha  occ. eigenvalues --   -0.46785  -0.45451  -0.41228  -0.37814  -0.27444
 Alpha virt. eigenvalues --    0.01247   0.07100   0.07328   0.07927   0.09237
 Alpha virt. eigenvalues --    0.11578   0.12803   0.14949   0.15487   0.16638
 Alpha virt. eigenvalues --    0.18934   0.19745   0.22421   0.23347   0.23679

 Mulliken charges:
               1
     1  C   -0.170032
     2  C   -0.035580
     3  C   -0.028248
     4  C   -0.167786
     5  H    0.078890
     6  H    0.059280
     7  H    0.059622
     8  H    0.062188
     9  H    0.067147
    10  H    0.074518
 Sum of Mulliken charges =   0.00000

 Dipole moment (field-independent basis, Debye):
    X=              0.0398    Y=             -0.0402    Z=              0.4643  Tot=              0.4678
 Quadrupole moment (field-independent basis, Debye-Ang):
   XX=            -23.1164   YY=            -23.3734   ZZ=            -29.0955
   XY=             -0.5713   XZ=              0.4021   YZ=              0.0511

 1\1\GINC-NODE25\SP\RB2PLYPD3-FC\def2QZVP\C4H6\BOITTIER\26-Aug-2020\0\\
 #p B2PLYPD3/Def2QZVP\\butadiene\\0,1\C,0,-3.86234,0.195764,0.039334\C,
 0,-2.689363,-0.469479,0.005456\C,0,-1.367433,0.105616,-0.036901\C,0,-0
 .291844,-0.691971,0.040232\H,0,-4.780425,-0.210602,0.194726\H,0,-4.003
 973,1.23689,-0.056137\H,0,-2.680611,-1.522169,0.128466\H,0,-1.211943,1
 .222332,0.188437\H,0,-0.315577,-1.748784,0.148066\H,0,0.685189,-0.2454
 45,0.213047\\Version=ES64L-G09RevD.01\State=1-A\HF=-155.6841109\MP2=-1
 55.9104385\RMSD=4.792e-09\PG=C01 [X(C4H6)]\\@

 Normal termination of Gaussian 09 at Wed Aug 26 14:46:18 2020.
