 Gaussian 09, Revision D.01,
 Gaussian 09:  ES64L-G09RevD.01 24-Apr-2013

 --------------------
 #p B2PLYPD3/Def2QZVP
 --------------------

 ---------
 butadiene
 ---------
 Symbolic Z-matrix:
 Charge =  0 Multiplicity = 1

                         Standard orientation:
 ---------------------------------------------------------------------
 Center     Atomic      Atomic             Coordinates (Angstroms)
 Number     Number       Type             X           Y           Z
 ---------------------------------------------------------------------
      1          6           0       -1.808143    0.093681   -0.031216
      2          6           0       -0.615197   -0.367193    0.050875
      3          6           0        0.597654    0.453773    0.013992
      4          6           0        1.805214   -0.170750   -0.044535
      5          1           0       -2.658063   -0.556842    0.024992
      6          1           0       -1.867577    1.177054   -0.068757
      7          1           0       -0.490332   -1.446064    0.053447
      8          1           0        0.542939    1.469113   -0.004006
      9          1           0        1.898957   -1.232362   -0.108937
     10          1           0        2.696906    0.532031    0.168561
 ---------------------------------------------------------------------

 SCF Done:  E(RB2PLYPD3) =  -155.683272364     A.U. after   12 cycles
 E2(B2PLYPD3) =    -0.2255610808D+00 E(B2PLYPD3) =    -0.15590883344470D+03

 The electronic state is 1-A.
 Alpha  occ. eigenvalues --  -10.62351 -10.62165 -10.61346 -10.60263  -0.93574
 Alpha  occ. eigenvalues --   -0.85325  -0.69061  -0.64918  -0.55301  -0.53312
 Alpha  occ. eigenvalues --   -0.47418  -0.44595  -0.41319  -0.38029  -0.27831
 Alpha virt. eigenvalues --    0.02129   0.06975   0.07468   0.07973   0.09521
 Alpha virt. eigenvalues --    0.11959   0.12259   0.14655   0.15702   0.15883
 Alpha virt. eigenvalues --    0.18521   0.20134   0.21088   0.22971   0.24871

 Mulliken charges:
               1
     1  C   -0.175781
     2  C   -0.007217
     3  C   -0.054564
     4  C   -0.176679
     5  H    0.089370
     6  H    0.056670
     7  H    0.046062
     8  H    0.071251
     9  H    0.078616
    10  H    0.072273
 Sum of Mulliken charges =   0.00000

 Dipole moment (field-independent basis, Debye):
    X=             -0.0545    Y=             -0.0192    Z=              0.1014  Tot=              0.1167
 Quadrupole moment (field-independent basis, Debye-Ang):
   XX=            -24.5128   YY=            -22.7194   ZZ=            -29.1120
   XY=              0.2484   XZ=              0.3222   YZ=              0.1355

 1\1\GINC-NODE14\SP\RB2PLYPD3-FC\def2QZVP\C4H6\BOITTIER\26-Aug-2020\0\\
 #p B2PLYPD3/Def2QZVP\\butadiene\\0,1\C,0,-3.815224,0.187772,-0.014173\
 C,0,-2.719724,-0.470216,0.081725\C,0,-1.383414,0.128434,0.034323\C,0,-
 0.301624,-0.695983,-0.007189\H,0,-4.76466,-0.305228,0.050834\H,0,-3.68
 6867,1.264224,-0.072608\H,0,-2.782823,-1.554199,0.105388\H,0,-1.262161
 ,1.137453,-0.003256\H,0,-0.392344,-1.758908,-0.050948\H,0,0.697737,-0.
 153469,0.196236\\Version=ES64L-G09RevD.01\State=1-A\HF=-155.6832724\MP
 2=-155.9088334\RMSD=4.245e-09\PG=C01 [X(C4H6)]\\@

 Normal termination of Gaussian 09 at Wed Aug 26 12:20:55 2020.
