 Gaussian 09, Revision D.01,
 Gaussian 09:  ES64L-G09RevD.01 24-Apr-2013

 --------------------
 #p B2PLYPD3/Def2QZVP
 --------------------

 ---------
 butadiene
 ---------
 Symbolic Z-matrix:
 Charge =  0 Multiplicity = 1

                         Standard orientation:
 ---------------------------------------------------------------------
 Center     Atomic      Atomic             Coordinates (Angstroms)
 Number     Number       Type             X           Y           Z
 ---------------------------------------------------------------------
      1          6           0        1.830607   -0.096868    0.026712
      2          6           0        0.598992    0.383977   -0.026326
      3          6           0       -0.597452   -0.414404   -0.046082
      4          6           0       -1.835423    0.110408    0.054615
      5          1           0        2.693876    0.513657   -0.034364
      6          1           0        2.008831   -1.141832    0.131290
      7          1           0        0.508614    1.442448   -0.101144
      8          1           0       -0.441651   -1.461547   -0.046606
      9          1           0       -1.937850    1.201370    0.102493
     10          1           0       -2.812167   -0.452775   -0.105185
 ---------------------------------------------------------------------

 SCF Done:  E(RB2PLYPD3) =  -155.694707480     A.U. after   11 cycles
 E2(B2PLYPD3) =    -0.2258501066D+00 E(B2PLYPD3) =    -0.15592055758617D+03

 The electronic state is 1-A.
 Alpha  occ. eigenvalues --  -10.62571 -10.62455 -10.61927 -10.60845  -0.93389
 Alpha  occ. eigenvalues --   -0.84847  -0.70214  -0.64740  -0.54695  -0.53963
 Alpha  occ. eigenvalues --   -0.47027  -0.45130  -0.41372  -0.38162  -0.27614
 Alpha virt. eigenvalues --    0.01439   0.06982   0.07551   0.08056   0.09642
 Alpha virt. eigenvalues --    0.11645   0.12622   0.14621   0.15735   0.16330
 Alpha virt. eigenvalues --    0.18916   0.20067   0.21898   0.22431   0.23905

 Mulliken charges:
               1
     1  C   -0.178655
     2  C   -0.017975
     3  C   -0.044706
     4  C   -0.162799
     5  H    0.085179
     6  H    0.060198
     7  H    0.055173
     8  H    0.063608
     9  H    0.059271
    10  H    0.080707
 Sum of Mulliken charges =   0.00000

 Dipole moment (field-independent basis, Debye):
    X=              0.0618    Y=              0.0108    Z=             -0.1013  Tot=              0.1192
 Quadrupole moment (field-independent basis, Debye-Ang):
   XX=            -23.2952   YY=            -23.3239   ZZ=            -29.1693
   XY=             -0.1219   XZ=              0.2595   YZ=             -0.0640

 1\1\GINC-NODE39\SP\RB2PLYPD3-FC\def2QZVP\C4H6\BOITTIER\26-Aug-2020\0\\
 #p B2PLYPD3/Def2QZVP\\butadiene\\0,1\C,0,-3.835787,0.209956,0.048322\C
 ,0,-2.711506,-0.48658,0.006724\C,0,-1.390693,0.081848,-0.033547\C,0,-0
 .267332,-0.655303,0.079637\H,0,-4.795391,-0.235919,0.002933\H,0,-3.821
 894,1.272167,0.126845\H,0,-2.81409,-1.545477,-0.041669\H,0,-1.354876,1
 .139578,-0.060159\H,0,-0.36332,-1.745317,0.154707\H,0,0.794232,-0.2818
 8,-0.094653\\Version=ES64L-G09RevD.01\State=1-A\HF=-155.6947075\MP2=-1
 55.9205576\RMSD=9.549e-09\PG=C01 [X(C4H6)]\\@

 Normal termination of Gaussian 09 at Wed Aug 26 10:54:08 2020.
