 Gaussian 09, Revision D.01,
 Gaussian 09:  ES64L-G09RevD.01 24-Apr-2013

 --------------------
 #p B2PLYPD3/Def2QZVP
 --------------------

 ---------
 butadiene
 ---------
 Symbolic Z-matrix:
 Charge =  0 Multiplicity = 1

                         Standard orientation:
 ---------------------------------------------------------------------
 Center     Atomic      Atomic             Coordinates (Angstroms)
 Number     Number       Type             X           Y           Z
 ---------------------------------------------------------------------
      1          6           0        1.831880   -0.098296    0.007386
      2          6           0        0.594209    0.384151   -0.004513
      3          6           0       -0.605058   -0.416550   -0.026593
      4          6           0       -1.834266    0.116906    0.016447
      5          1           0        2.733061    0.521695    0.065754
      6          1           0        2.005005   -1.150329   -0.010125
      7          1           0        0.485704    1.473646   -0.040873
      8          1           0       -0.457769   -1.495450   -0.008828
      9          1           0       -1.941713    1.217607   -0.025788
     10          1           0       -2.744880   -0.484435    0.063499
 ---------------------------------------------------------------------

 SCF Done:  E(RB2PLYPD3) =  -155.699382857     A.U. after   11 cycles
 E2(B2PLYPD3) =    -0.2259885735D+00 E(B2PLYPD3) =    -0.15592537143074D+03

 The electronic state is 1-A.
 Alpha  occ. eigenvalues --  -10.62697 -10.62393 -10.62068 -10.61299  -0.93185
 Alpha  occ. eigenvalues --   -0.84825  -0.70027  -0.64014  -0.54661  -0.53744
 Alpha  occ. eigenvalues --   -0.46714  -0.45138  -0.41197  -0.38278  -0.27630
 Alpha virt. eigenvalues --    0.01681   0.07004   0.07359   0.07997   0.09627
 Alpha virt. eigenvalues --    0.11643   0.12522   0.14574   0.15789   0.16256
 Alpha virt. eigenvalues --    0.18741   0.20375   0.21658   0.22790   0.23791

 Mulliken charges:
               1
     1  C   -0.176575
     2  C   -0.017552
     3  C   -0.037206
     4  C   -0.171157
     5  H    0.084029
     6  H    0.060719
     7  H    0.050293
     8  H    0.055395
     9  H    0.064104
    10  H    0.087951
 Sum of Mulliken charges =   0.00000

 Dipole moment (field-independent basis, Debye):
    X=             -0.0056    Y=             -0.0288    Z=              0.0180  Tot=              0.0344
 Quadrupole moment (field-independent basis, Debye-Ang):
   XX=            -23.3796   YY=            -23.2177   ZZ=            -29.2867
   XY=             -0.0590   XZ=             -0.0008   YZ=             -0.0688

 1\1\GINC-NODE38\SP\RB2PLYPD3-FC\def2QZVP\C4H6\BOITTIER\26-Aug-2020\0\\
 #p B2PLYPD3/Def2QZVP\\butadiene\\0,1\C,0,-3.838355,0.21038,0.02761\C,0
 ,-2.707731,-0.487051,0.029682\C,0,-1.384035,0.083982,-0.010338\C,0,-0.
 270754,-0.66073,0.047909\H,0,-4.836212,-0.235692,0.0999\H,0,-3.819412,
 1.275634,-0.016289\H,0,-2.797136,-1.578847,0.020553\H,0,-1.334741,1.17
 1878,-0.019597\H,0,-0.363233,-1.7635,0.033183\H,0,0.733329,-0.23209,0.
 081484\\Version=ES64L-G09RevD.01\State=1-A\HF=-155.6993829\MP2=-155.92
 53714\RMSD=5.510e-09\PG=C01 [X(C4H6)]\\@

 Normal termination of Gaussian 09 at Wed Aug 26 16:12:57 2020.
