 Gaussian 09, Revision D.01,
 Gaussian 09:  ES64L-G09RevD.01 24-Apr-2013

 --------------------
 #p B2PLYPD3/Def2QZVP
 --------------------

 ---------
 butadiene
 ---------
 Symbolic Z-matrix:
 Charge =  0 Multiplicity = 1

                         Standard orientation:
 ---------------------------------------------------------------------
 Center     Atomic      Atomic             Coordinates (Angstroms)
 Number     Number       Type             X           Y           Z
 ---------------------------------------------------------------------
      1          6           0        1.838198   -0.114367    0.019644
      2          6           0        0.614462    0.402899   -0.014283
      3          6           0       -0.606022   -0.396725   -0.021458
      4          6           0       -1.846608    0.106615    0.023681
      5          1           0        2.722364    0.507831   -0.026608
      6          1           0        1.996193   -1.173310    0.055448
      7          1           0        0.521714    1.465837   -0.054986
      8          1           0       -0.464687   -1.460790   -0.037346
      9          1           0       -2.010039    1.169175    0.057167
     10          1           0       -2.765719   -0.499282   -0.039176
 ---------------------------------------------------------------------

 SCF Done:  E(RB2PLYPD3) =  -155.700573563     A.U. after   11 cycles
 E2(B2PLYPD3) =    -0.2254607746D+00 E(B2PLYPD3) =    -0.15592603433728D+03

 The electronic state is 1-A.
 Alpha  occ. eigenvalues --  -10.62596 -10.62292 -10.61746 -10.61301  -0.92969
 Alpha  occ. eigenvalues --   -0.84959  -0.70119  -0.64515  -0.54627  -0.54001
 Alpha  occ. eigenvalues --   -0.46918  -0.45528  -0.41157  -0.38047  -0.27764
 Alpha virt. eigenvalues --    0.01742   0.06984   0.07543   0.08062   0.09612
 Alpha virt. eigenvalues --    0.11645   0.12538   0.14642   0.15899   0.16223
 Alpha virt. eigenvalues --    0.18908   0.20515   0.21680   0.22743   0.23698

 Mulliken charges:
               1
     1  C   -0.174018
     2  C   -0.029484
     3  C   -0.037498
     4  C   -0.170985
     5  H    0.083972
     6  H    0.064505
     7  H    0.058108
     8  H    0.058436
     9  H    0.063729
    10  H    0.083235
 Sum of Mulliken charges =   0.00000

 Dipole moment (field-independent basis, Debye):
    X=              0.0265    Y=              0.0150    Z=             -0.0654  Tot=              0.0721
 Quadrupole moment (field-independent basis, Debye-Ang):
   XX=            -23.2754   YY=            -23.1896   ZZ=            -29.2345
   XY=             -0.1410   XZ=              0.0199   YZ=             -0.0167

 1\1\GINC-NODE32\SP\RB2PLYPD3-FC\def2QZVP\C4H6\BOITTIER\26-Aug-2020\0\\
 #p B2PLYPD3/Def2QZVP\\butadiene\\0,1\C,0,-3.840666,0.22433,0.037056\C,
 0,-2.728366,-0.502803,0.019417\C,0,-1.385305,0.066823,-0.007884\C,0,-0
 .253687,-0.64743,0.053154\H,0,-4.821425,-0.231964,0.006591\H,0,-3.8079
 68,1.295075,0.043322\H,0,-2.826,-1.566024,0.008259\H,0,-1.335474,1.138
 227,-0.053406\H,0,-0.281448,-1.720794,0.116261\H,0,0.758204,-0.216377,
 -0.02494\\Version=ES64L-G09RevD.01\State=1-A\HF=-155.7005736\MP2=-155.
 9260343\RMSD=3.187e-09\PG=C01 [X(C4H6)]\\@

 Normal termination of Gaussian 09 at Wed Aug 26 19:03:34 2020.
