 Gaussian 09, Revision D.01,
 Gaussian 09:  ES64L-G09RevD.01 24-Apr-2013

 --------------------
 #p B2PLYPD3/Def2QZVP
 --------------------

 ---------
 butadiene
 ---------
 Symbolic Z-matrix:
 Charge =  0 Multiplicity = 1

                         Standard orientation:
 ---------------------------------------------------------------------
 Center     Atomic      Atomic             Coordinates (Angstroms)
 Number     Number       Type             X           Y           Z
 ---------------------------------------------------------------------
      1          6           0        1.831219   -0.135889    0.084886
      2          6           0        0.594941    0.429281   -0.071574
      3          6           0       -0.578418   -0.395916   -0.095547
      4          6           0       -1.814419    0.087641    0.049308
      5          1           0        2.631394    0.534236   -0.033717
      6          1           0        2.076808   -1.141932    0.067615
      7          1           0        0.445629    1.524966    0.043899
      8          1           0       -0.498908   -1.429586   -0.092465
      9          1           0       -2.070378    1.104762    0.002200
     10          1           0       -2.784485   -0.503147    0.210028
 ---------------------------------------------------------------------

 SCF Done:  E(RB2PLYPD3) =  -155.681780885     A.U. after   12 cycles
 E2(B2PLYPD3) =    -0.2267274020D+00 E(B2PLYPD3) =    -0.15590850828660D+03

 The electronic state is 1-A.
 Alpha  occ. eigenvalues --  -10.63389 -10.61925 -10.61726 -10.61079  -0.93211
 Alpha  occ. eigenvalues --   -0.84580  -0.70742  -0.65082  -0.54756  -0.54243
 Alpha  occ. eigenvalues --   -0.46148  -0.45788  -0.41370  -0.38002  -0.27116
 Alpha virt. eigenvalues --    0.01097   0.06958   0.07586   0.08020   0.09110
 Alpha virt. eigenvalues --    0.11639   0.12682   0.14885   0.15635   0.16538
 Alpha virt. eigenvalues --    0.19016   0.19582   0.22451   0.23141   0.23434

 Mulliken charges:
               1
     1  C   -0.175243
     2  C   -0.043136
     3  C   -0.028909
     4  C   -0.168242
     5  H    0.076259
     6  H    0.073472
     7  H    0.067795
     8  H    0.069682
     9  H    0.062327
    10  H    0.065996
 Sum of Mulliken charges =   0.00000

 Dipole moment (field-independent basis, Debye):
    X=             -0.0531    Y=              0.0067    Z=              0.0378  Tot=              0.0656
 Quadrupole moment (field-independent basis, Debye-Ang):
   XX=            -23.5527   YY=            -23.0830   ZZ=            -29.2113
   XY=             -0.6106   XZ=             -0.5325   YZ=             -0.0664

 1\1\GINC-NODE24\SP\RB2PLYPD3-FC\def2QZVP\C4H6\BOITTIER\26-Aug-2020\0\\
 #p B2PLYPD3/Def2QZVP\\butadiene\\0,1\C,0,-3.822529,0.258612,0.098395\C
 ,0,-2.712666,-0.53022,-0.036623\C,0,-1.406255,0.061618,-0.07288\C,0,-0
 .282026,-0.639553,0.09137\H,0,-4.733169,-0.253802,-0.009219\H,0,-3.876
 677,1.292034,0.055482\H,0,-2.769964,-1.631369,0.105995\H,0,-1.292121,1
 .091806,-0.09505\H,0,-0.219634,-1.687375,0.070254\H,0,0.780708,-0.2356
 11,0.244068\\Version=ES64L-G09RevD.01\State=1-A\HF=-155.6817809\MP2=-1
 55.9085083\RMSD=5.105e-09\PG=C01 [X(C4H6)]\\@

 Normal termination of Gaussian 09 at Wed Aug 26 15:11:16 2020.
