 Gaussian 09, Revision D.01,
 Gaussian 09:  ES64L-G09RevD.01 24-Apr-2013

 --------------------
 #p B2PLYPD3/Def2QZVP
 --------------------

 ---------
 butadiene
 ---------
 Symbolic Z-matrix:
 Charge =  0 Multiplicity = 1

                         Standard orientation:
 ---------------------------------------------------------------------
 Center     Atomic      Atomic             Coordinates (Angstroms)
 Number     Number       Type             X           Y           Z
 ---------------------------------------------------------------------
      1          6           0        1.835333   -0.092165    0.059051
      2          6           0        0.590201    0.342604   -0.066231
      3          6           0       -0.617541   -0.439127   -0.071028
      4          6           0       -1.851898    0.150362    0.017201
      5          1           0        2.642392    0.592733    0.046122
      6          1           0        2.169167   -1.096658    0.075518
      7          1           0        0.592469    1.495176   -0.009652
      8          1           0       -0.522662   -1.517249   -0.050871
      9          1           0       -1.851686    1.170207    0.053764
     10          1           0       -2.766248   -0.414261    0.251167
 ---------------------------------------------------------------------

 SCF Done:  E(RB2PLYPD3) =  -155.685513945     A.U. after   11 cycles
 E2(B2PLYPD3) =    -0.2266652198D+00 E(B2PLYPD3) =    -0.15591217916435D+03

 The electronic state is 1-A.
 Alpha  occ. eigenvalues --  -10.63241 -10.62988 -10.61716 -10.60707  -0.92988
 Alpha  occ. eigenvalues --   -0.85041  -0.70824  -0.63924  -0.55154  -0.53921
 Alpha  occ. eigenvalues --   -0.46202  -0.45839  -0.41002  -0.38161  -0.27393
 Alpha virt. eigenvalues --    0.01148   0.06930   0.07472   0.07901   0.09589
 Alpha virt. eigenvalues --    0.11547   0.12633   0.14814   0.15806   0.16423
 Alpha virt. eigenvalues --    0.18799   0.19555   0.22338   0.22457   0.24290

 Mulliken charges:
               1
     1  C   -0.170803
     2  C   -0.014702
     3  C   -0.046407
     4  C   -0.168258
     5  H    0.076150
     6  H    0.059819
     7  H    0.039399
     8  H    0.064490
     9  H    0.073514
    10  H    0.086797
 Sum of Mulliken charges =   0.00000

 Dipole moment (field-independent basis, Debye):
    X=              0.0352    Y=             -0.0546    Z=              0.2473  Tot=              0.2557
 Quadrupole moment (field-independent basis, Debye-Ang):
   XX=            -23.3760   YY=            -23.2193   ZZ=            -29.2257
   XY=              0.0372   XZ=             -0.6020   YZ=             -0.0514

 1\1\GINC-NODE11\SP\RB2PLYPD3-FC\def2QZVP\C4H6\BOITTIER\26-Aug-2020\0\\
 #p B2PLYPD3/Def2QZVP\\butadiene\\0,1\C,0,-3.849296,0.194549,0.076372\C
 ,0,-2.698943,-0.454728,-0.024625\C,0,-1.373596,0.104233,-0.052638\C,0,
 -0.260573,-0.687037,0.065651\H,0,-4.76324,-0.339514,0.085273\H,0,-4.00
 3216,1.241656,0.051897\H,0,-2.901695,-1.586219,0.076607\H,0,-1.27939,1
 .182373,-0.074876\H,0,-0.438222,-1.68907,0.141746\H,0,0.738306,-0.2813
 12,0.282913\\Version=ES64L-G09RevD.01\State=1-A\HF=-155.6855139\MP2=-1
 55.9121792\RMSD=8.261e-09\PG=C01 [X(C4H6)]\\@

 Normal termination of Gaussian 09 at Wed Aug 26 11:56:46 2020.
