 Gaussian 09, Revision D.01,
 Gaussian 09:  ES64L-G09RevD.01 24-Apr-2013

 --------------------
 #p B2PLYPD3/Def2QZVP
 --------------------

 ---------
 butadiene
 ---------
 Symbolic Z-matrix:
 Charge =  0 Multiplicity = 1

                         Standard orientation:
 ---------------------------------------------------------------------
 Center     Atomic      Atomic             Coordinates (Angstroms)
 Number     Number       Type             X           Y           Z
 ---------------------------------------------------------------------
      1          6           0        1.844594    0.107864    0.006518
      2          6           0        0.600510   -0.394862   -0.019176
      3          6           0       -0.607257    0.403590   -0.015447
      4          6           0       -1.844120   -0.112300    0.004452
      5          1           0        2.695686   -0.543727    0.059697
      6          1           0        2.088109    1.157658    0.010094
      7          1           0        0.465736   -1.481716   -0.029791
      8          1           0       -0.510850    1.488275    0.024047
      9          1           0       -2.016389   -1.166157    0.064581
     10          1           0       -2.684656    0.519922    0.013292
 ---------------------------------------------------------------------

 SCF Done:  E(RB2PLYPD3) =  -155.700060298     A.U. after   11 cycles
 E2(B2PLYPD3) =    -0.2257108458D+00 E(B2PLYPD3) =    -0.15592577114356D+03

 The electronic state is 1-A.
 Alpha  occ. eigenvalues --  -10.62773 -10.62543 -10.61490 -10.61091  -0.92887
 Alpha  occ. eigenvalues --   -0.84909  -0.70616  -0.64038  -0.54882  -0.54037
 Alpha  occ. eigenvalues --   -0.46641  -0.45798  -0.41315  -0.38051  -0.27519
 Alpha virt. eigenvalues --    0.01539   0.07022   0.07459   0.08065   0.09617
 Alpha virt. eigenvalues --    0.11633   0.12461   0.14870   0.15868   0.16268
 Alpha virt. eigenvalues --    0.18838   0.20492   0.21909   0.22753   0.23686

 Mulliken charges:
               1
     1  C   -0.174673
     2  C   -0.033446
     3  C   -0.028763
     4  C   -0.177554
     5  H    0.082146
     6  H    0.068585
     7  H    0.055535
     8  H    0.055145
     9  H    0.066328
    10  H    0.086696
 Sum of Mulliken charges =   0.00000

 Dipole moment (field-independent basis, Debye):
    X=             -0.0045    Y=              0.0174    Z=              0.1086  Tot=              0.1100
 Quadrupole moment (field-independent basis, Debye-Ang):
   XX=            -23.3716   YY=            -23.0562   ZZ=            -29.2609
   XY=              0.2400   XZ=             -0.0026   YZ=             -0.0323

 1\1\GINC-NODE28\SP\RB2PLYPD3-FC\def2QZVP\C4H6\BOITTIER\26-Aug-2020\0\\
 #p B2PLYPD3/Def2QZVP\\butadiene\\0,1\C,0,-3.84738,0.225063,0.009382\C,
 0,-2.715042,-0.494089,0.051457\C,0,-1.382499,0.07158,0.027179\C,0,-0.2
 59807,-0.660487,0.02404\H,0,-4.802723,-0.262551,-0.026773\H,0,-3.89644
 4,1.30109,-0.024367\H,0,-2.779612,-1.58662,0.093106\H,0,-1.280692,1.15
 4205,-0.04321\H,0,-0.281763,-1.729378,-0.005897\H,0,0.681428,-0.191745
 ,-0.001268\\Version=ES64L-G09RevD.01\State=1-A\HF=-155.7000603\MP2=-15
 5.9257711\RMSD=2.587e-09\PG=C01 [X(C4H6)]\\@

 Normal termination of Gaussian 09 at Wed Aug 26 19:17:30 2020.
