 Gaussian 09, Revision D.01,
 Gaussian 09:  ES64L-G09RevD.01 24-Apr-2013

 --------------------
 #p B2PLYPD3/Def2QZVP
 --------------------

 ---------
 butadiene
 ---------
 Symbolic Z-matrix:
 Charge =  0 Multiplicity = 1

                         Standard orientation:
 ---------------------------------------------------------------------
 Center     Atomic      Atomic             Coordinates (Angstroms)
 Number     Number       Type             X           Y           Z
 ---------------------------------------------------------------------
      1          6           0        1.821227    0.113984   -0.027030
      2          6           0        0.610140   -0.400941    0.023873
      3          6           0       -0.602460    0.424466    0.033905
      4          6           0       -1.824288   -0.116521   -0.039269
      5          1           0        2.671664   -0.558891   -0.044124
      6          1           0        1.977599    1.171905   -0.013967
      7          1           0        0.482061   -1.473532    0.006997
      8          1           0       -0.496344    1.531021    0.101257
      9          1           0       -1.904044   -1.252090    0.112038
     10          1           0       -2.758654    0.455659   -0.111073
 ---------------------------------------------------------------------

 SCF Done:  E(RB2PLYPD3) =  -155.694612653     A.U. after   11 cycles
 E2(B2PLYPD3) =    -0.2260778292D+00 E(B2PLYPD3) =    -0.15592069048220D+03

 The electronic state is 1-A.
 Alpha  occ. eigenvalues --  -10.62988 -10.62329 -10.62269 -10.61014  -0.93005
 Alpha  occ. eigenvalues --   -0.84941  -0.69246  -0.63758  -0.54277  -0.53784
 Alpha  occ. eigenvalues --   -0.46577  -0.44926  -0.41179  -0.37951  -0.27805
 Alpha virt. eigenvalues --    0.02088   0.06994   0.07195   0.07989   0.09319
 Alpha virt. eigenvalues --    0.11701   0.12396   0.14438   0.15732   0.16266
 Alpha virt. eigenvalues --    0.18631   0.20108   0.21358   0.22991   0.24196

 Mulliken charges:
               1
     1  C   -0.175705
     2  C   -0.023735
     3  C   -0.036420
     4  C   -0.171175
     5  H    0.083377
     6  H    0.070183
     7  H    0.056326
     8  H    0.053824
     9  H    0.056319
    10  H    0.087005
 Sum of Mulliken charges =   0.00000

 Dipole moment (field-independent basis, Debye):
    X=              0.0159    Y=              0.0357    Z=              0.0880  Tot=              0.0963
 Quadrupole moment (field-independent basis, Debye-Ang):
   XX=            -23.7846   YY=            -23.0363   ZZ=            -29.3040
   XY=             -0.1029   XZ=             -0.0590   YZ=             -0.0826

 1\1\GINC-NODE18\SP\RB2PLYPD3-FC\def2QZVP\C4H6\BOITTIER\26-Aug-2020\0\\
 #p B2PLYPD3/Def2QZVP\\butadiene\\0,1\C,0,-3.824125,0.2184,0.045903\C,0
 ,-2.723597,-0.504115,0.010096\C,0,-1.384017,0.092838,-0.021021\C,0,-0.
 27706,-0.653903,0.067918\H,0,-4.780227,-0.292463,0.080317\H,0,-3.79068
 8,1.286556,0.004145\H,0,-2.787463,-1.581589,0.056034\H,0,-1.292712,1.1
 98487,-0.118312\H,0,-0.400282,-1.789271,-0.052614\H,0,0.744147,-0.2545
 99,0.125168\\Version=ES64L-G09RevD.01\State=1-A\HF=-155.6946127\MP2=-1
 55.9206905\RMSD=4.876e-09\PG=C01 [X(C4H6)]\\@

 Normal termination of Gaussian 09 at Wed Aug 26 08:54:36 2020.
