 Gaussian 09, Revision D.01,
 Gaussian 09:  ES64L-G09RevD.01 24-Apr-2013

 --------------------
 #p B2PLYPD3/Def2QZVP
 --------------------

 ---------
 butadiene
 ---------
 Symbolic Z-matrix:
 Charge =  0 Multiplicity = 1

                         Standard orientation:
 ---------------------------------------------------------------------
 Center     Atomic      Atomic             Coordinates (Angstroms)
 Number     Number       Type             X           Y           Z
 ---------------------------------------------------------------------
      1          6           0        1.827821   -0.118895    0.020425
      2          6           0        0.608755    0.407891   -0.011267
      3          6           0       -0.599374   -0.402850   -0.022371
      4          6           0       -1.840808    0.107717    0.012098
      5          1           0        2.708864    0.515748    0.026082
      6          1           0        1.970073   -1.188922   -0.026651
      7          1           0        0.520105    1.511005   -0.031284
      8          1           0       -0.462214   -1.475614   -0.009821
      9          1           0       -1.980800    1.163663   -0.005117
     10          1           0       -2.734389   -0.489058    0.053478
 ---------------------------------------------------------------------

 SCF Done:  E(RB2PLYPD3) =  -155.700462265     A.U. after   11 cycles
 E2(B2PLYPD3) =    -0.2257055776D+00 E(B2PLYPD3) =    -0.15592616784288D+03

 The electronic state is 1-A.
 Alpha  occ. eigenvalues --  -10.62674 -10.62615 -10.61375 -10.61328  -0.92983
 Alpha  occ. eigenvalues --   -0.84938  -0.70068  -0.64050  -0.54561  -0.54123
 Alpha  occ. eigenvalues --   -0.46521  -0.45551  -0.41345  -0.38114  -0.27650
 Alpha virt. eigenvalues --    0.01802   0.07036   0.07394   0.08031   0.09519
 Alpha virt. eigenvalues --    0.11683   0.12538   0.14645   0.15903   0.16213
 Alpha virt. eigenvalues --    0.18744   0.20497   0.21634   0.22987   0.23838

 Mulliken charges:
               1
     1  C   -0.175198
     2  C   -0.025519
     3  C   -0.033961
     4  C   -0.175323
     5  H    0.084693
     6  H    0.065556
     7  H    0.051979
     8  H    0.056189
     9  H    0.065222
    10  H    0.086360
 Sum of Mulliken charges =   0.00000

 Dipole moment (field-independent basis, Debye):
    X=              0.0105    Y=              0.0053    Z=             -0.0200  Tot=              0.0232
 Quadrupole moment (field-independent basis, Debye-Ang):
   XX=            -23.4579   YY=            -23.0806   ZZ=            -29.2739
   XY=             -0.0581   XZ=             -0.1587   YZ=             -0.0220

 1\1\GINC-NODE35\SP\RB2PLYPD3-FC\def2QZVP\C4H6\BOITTIER\26-Aug-2020\0\\
 #p B2PLYPD3/Def2QZVP\\butadiene\\0,1\C,0,-3.829926,0.227369,0.036551\C
 ,0,-2.724227,-0.508752,0.022969\C,0,-1.39105,0.073275,-0.00674\C,0,-0.
 260324,-0.649057,0.045436\H,0,-4.809896,-0.239838,0.056967\H,0,-3.7794
 33,1.303919,-0.040272\H,0,-2.833487,-1.610148,0.033471\H,0,-1.334943,1
 .15325,-0.024019\H,0,-0.310658,-1.713122,0.057599\H,0,0.725331,-0.2200
 36,0.073115\\Version=ES64L-G09RevD.01\State=1-A\HF=-155.7004623\MP2=-1
 55.9261678\RMSD=4.800e-09\PG=C01 [X(C4H6)]\\@

 Normal termination of Gaussian 09 at Wed Aug 26 17:43:40 2020.
