 Gaussian 09, Revision D.01,
 Gaussian 09:  ES64L-G09RevD.01 24-Apr-2013

 --------------------
 #p B2PLYPD3/Def2QZVP
 --------------------

 ---------
 butadiene
 ---------
 Symbolic Z-matrix:
 Charge =  0 Multiplicity = 1

                         Standard orientation:
 ---------------------------------------------------------------------
 Center     Atomic      Atomic             Coordinates (Angstroms)
 Number     Number       Type             X           Y           Z
 ---------------------------------------------------------------------
      1          6           0        1.798095   -0.120292    0.054632
      2          6           0        0.601283    0.421124   -0.081849
      3          6           0       -0.563751   -0.382098   -0.057532
      4          6           0       -1.838228    0.068655    0.018213
      5          1           0        2.711720    0.441381    0.329945
      6          1           0        1.832161   -1.193688   -0.056637
      7          1           0        0.592956    1.485990   -0.207176
      8          1           0       -0.364405   -1.415824   -0.069642
      9          1           0       -1.990205    1.201532    0.171138
     10          1           0       -2.766613   -0.443727    0.231590
 ---------------------------------------------------------------------

 SCF Done:  E(RB2PLYPD3) =  -155.682547941     A.U. after   11 cycles
 E2(B2PLYPD3) =    -0.2269216033D+00 E(B2PLYPD3) =    -0.15590946954434D+03

 The electronic state is 1-A.
 Alpha  occ. eigenvalues --  -10.62623 -10.62393 -10.61949 -10.61603  -0.94044
 Alpha  occ. eigenvalues --   -0.84623  -0.70103  -0.64760  -0.55239  -0.53480
 Alpha  occ. eigenvalues --   -0.46989  -0.44688  -0.41531  -0.38045  -0.27244
 Alpha virt. eigenvalues --    0.01263   0.07035   0.07459   0.07922   0.09337
 Alpha virt. eigenvalues --    0.11539   0.12900   0.14147   0.15775   0.16365
 Alpha virt. eigenvalues --    0.18786   0.20501   0.21409   0.22621   0.23389

 Mulliken charges:
               1
     1  C   -0.178227
     2  C   -0.011805
     3  C   -0.042143
     4  C   -0.165914
     5  H    0.087598
     6  H    0.059023
     7  H    0.064941
     8  H    0.058825
     9  H    0.043128
    10  H    0.084576
 Sum of Mulliken charges =   0.00000

 Dipole moment (field-independent basis, Debye):
    X=              0.1766    Y=             -0.0084    Z=              0.2673  Tot=              0.3205
 Quadrupole moment (field-independent basis, Debye-Ang):
   XX=            -23.5359   YY=            -23.5923   ZZ=            -29.0011
   XY=              0.2179   XZ=             -0.2665   YZ=              0.1740

 1\1\GINC-NODE04\SP\RB2PLYPD3-FC\def2QZVP\C4H6\BOITTIER\26-Aug-2020\0\\
 #p B2PLYPD3/Def2QZVP\\butadiene\\0,1\C,0,-3.798117,0.2327,0.072865\C,0
 ,-2.720705,-0.522839,-0.03876\C,0,-1.428351,0.054112,-0.035558\C,0,-0.
 257787,-0.619253,0.062249\H,0,-4.798815,-0.142598,0.362243\H,0,-3.6353
 22,1.289749,-0.075006\H,0,-2.907477,-1.574937,-0.127772\H,0,-1.435206,
 1.105823,-0.08386\H,0,-0.315504,-1.754876,0.254401\H,0,0.748884,-0.278
 278,0.263026\\Version=ES64L-G09RevD.01\State=1-A\HF=-155.6825479\MP2=-
 155.9094695\RMSD=7.850e-09\PG=C01 [X(C4H6)]\\@

 Normal termination of Gaussian 09 at Wed Aug 26 13:31:53 2020.
