 Gaussian 09, Revision D.01,
 Gaussian 09:  ES64L-G09RevD.01 24-Apr-2013

 --------------------
 #p B2PLYPD3/Def2QZVP
 --------------------

 ---------
 butadiene
 ---------
 Symbolic Z-matrix:
 Charge =  0 Multiplicity = 1

                         Standard orientation:
 ---------------------------------------------------------------------
 Center     Atomic      Atomic             Coordinates (Angstroms)
 Number     Number       Type             X           Y           Z
 ---------------------------------------------------------------------
      1          6           0       -1.849204    0.087936   -0.039838
      2          6           0       -0.609853   -0.376452    0.065779
      3          6           0        0.610675    0.460273    0.036289
      4          6           0        1.828530   -0.113975   -0.056332
      5          1           0       -2.616106   -0.687758   -0.162928
      6          1           0       -2.114134    1.180119   -0.140927
      7          1           0       -0.339535   -1.468661    0.292093
      8          1           0        0.495475    1.542507    0.192713
      9          1           0        1.876130   -1.239770   -0.183545
     10          1           0        2.817286    0.326871   -0.032793
 ---------------------------------------------------------------------

 SCF Done:  E(RB2PLYPD3) =  -155.685640035     A.U. after   11 cycles
 E2(B2PLYPD3) =    -0.2274216937D+00 E(B2PLYPD3) =    -0.15591306172867D+03

 The electronic state is 1-A.
 Alpha  occ. eigenvalues --  -10.63386 -10.63231 -10.62397 -10.62149  -0.92452
 Alpha  occ. eigenvalues --   -0.84513  -0.69452  -0.63019  -0.54423  -0.52828
 Alpha  occ. eigenvalues --   -0.47024  -0.44505  -0.40657  -0.37109  -0.27881
 Alpha virt. eigenvalues --    0.01794   0.06861   0.07147   0.07841   0.09132
 Alpha virt. eigenvalues --    0.11350   0.12363   0.14328   0.15244   0.16306
 Alpha virt. eigenvalues --    0.18790   0.19948   0.21028   0.22289   0.23470

 Mulliken charges:
               1
     1  C   -0.179289
     2  C   -0.030739
     3  C   -0.039330
     4  C   -0.165793
     5  H    0.085341
     6  H    0.075211
     7  H    0.058583
     8  H    0.061515
     9  H    0.046583
    10  H    0.087917
 Sum of Mulliken charges =   0.00000

 Dipole moment (field-independent basis, Debye):
    X=              0.0910    Y=              0.0418    Z=              0.0316  Tot=              0.1050
 Quadrupole moment (field-independent basis, Debye-Ang):
   XX=            -23.6466   YY=            -23.2879   ZZ=            -29.3814
   XY=             -0.4135   XZ=              0.3960   YZ=              0.0725

 1\1\GINC-NODE01\SP\RB2PLYPD3-FC\def2QZVP\C4H6\BOITTIER\26-Aug-2020\0\\
 #p B2PLYPD3/Def2QZVP\\butadiene\\0,1\C,0,-3.852217,0.20538,-0.025016\C
 ,0,-2.719822,-0.477411,0.094487\C,0,-1.365995,0.119615,0.057326\C,0,-0
 .274588,-0.670583,-0.019674\H,0,-4.748648,-0.41782,-0.139137\H,0,-3.91
 1232,1.325773,-0.145455\H,0,-2.655754,-1.596674,0.340161\H,0,-1.280165
 ,1.207076,0.195278\H,0,-0.434941,-1.787904,-0.12804\H,0,0.778409,-0.41
 9017,0.001556\\Version=ES64L-G09RevD.01\State=1-A\HF=-155.68564\MP2=-1
 55.9130617\RMSD=7.198e-09\PG=C01 [X(C4H6)]\\@

 Normal termination of Gaussian 09 at Wed Aug 26 14:58:25 2020.
