 Gaussian 09, Revision D.01,
 Gaussian 09:  ES64L-G09RevD.01 24-Apr-2013

 --------------------
 #p B2PLYPD3/Def2QZVP
 --------------------

 ---------
 butadiene
 ---------
 Symbolic Z-matrix:
 Charge =  0 Multiplicity = 1

                         Standard orientation:
 ---------------------------------------------------------------------
 Center     Atomic      Atomic             Coordinates (Angstroms)
 Number     Number       Type             X           Y           Z
 ---------------------------------------------------------------------
      1          6           0        1.835069   -0.129201    0.024618
      2          6           0        0.617454    0.411559   -0.053753
      3          6           0       -0.615668   -0.377698   -0.055933
      4          6           0       -1.844102    0.099692    0.050382
      5          1           0        2.679254    0.541008    0.134039
      6          1           0        1.950151   -1.239304    0.008036
      7          1           0        0.565580    1.490408   -0.000959
      8          1           0       -0.448991   -1.454648    0.037152
      9          1           0       -2.016325    1.174091    0.002272
     10          1           0       -2.686192   -0.537672    0.027570
 ---------------------------------------------------------------------

 SCF Done:  E(RB2PLYPD3) =  -155.697086606     A.U. after   11 cycles
 E2(B2PLYPD3) =    -0.2256960901D+00 E(B2PLYPD3) =    -0.15592278269628D+03

 The electronic state is 1-A.
 Alpha  occ. eigenvalues --  -10.62497 -10.62416 -10.61868 -10.61099  -0.92959
 Alpha  occ. eigenvalues --   -0.85262  -0.69848  -0.63715  -0.54595  -0.54020
 Alpha  occ. eigenvalues --   -0.46522  -0.45482  -0.41011  -0.38083  -0.27945
 Alpha virt. eigenvalues --    0.01885   0.07045   0.07373   0.08028   0.09550
 Alpha virt. eigenvalues --    0.11752   0.12340   0.14625   0.15597   0.16192
 Alpha virt. eigenvalues --    0.18810   0.19699   0.21501   0.23230   0.24196

 Mulliken charges:
               1
     1  C   -0.176854
     2  C   -0.030354
     3  C   -0.029434
     4  C   -0.172818
     5  H    0.087739
     6  H    0.066475
     7  H    0.052203
     8  H    0.051427
     9  H    0.063905
    10  H    0.087710
 Sum of Mulliken charges =   0.00000

 Dipole moment (field-independent basis, Debye):
    X=              0.0082    Y=              0.0323    Z=              0.1087  Tot=              0.1137
 Quadrupole moment (field-independent basis, Debye-Ang):
   XX=            -23.7003   YY=            -23.0487   ZZ=            -29.2397
   XY=              0.1092   XZ=              0.3296   YZ=              0.0192

 1\1\GINC-NODE25\SP\RB2PLYPD3-FC\def2QZVP\C4H6\BOITTIER\26-Aug-2020\0\\
 #p B2PLYPD3/Def2QZVP\\butadiene\\0,1\C,0,-3.836237,0.236024,0.051503\C
 ,0,-2.733125,-0.512333,-0.013719\C,0,-1.380456,0.047355,-0.037331\C,0,
 -0.254568,-0.635848,0.080416\H,0,-4.784531,-0.27221,0.178933\H,0,-3.75
 4398,1.348272,0.006183\H,0,-2.871497,-1.581784,0.067037\H,0,-1.354654,
 1.138844,0.027878\H,0,-0.274222,-1.724659,0.060095\H,0,0.686348,-0.157
 364,0.04042\\Version=ES64L-G09RevD.01\State=1-A\HF=-155.6970866\MP2=-1
 55.9227827\RMSD=5.569e-09\PG=C01 [X(C4H6)]\\@

 Normal termination of Gaussian 09 at Wed Aug 26 08:52:10 2020.
