 Gaussian 09, Revision D.01,
 Gaussian 09:  ES64L-G09RevD.01 24-Apr-2013

 --------------------
 #p B2PLYPD3/Def2QZVP
 --------------------

 ---------
 butadiene
 ---------
 Symbolic Z-matrix:
 Charge =  0 Multiplicity = 1

                         Standard orientation:
 ---------------------------------------------------------------------
 Center     Atomic      Atomic             Coordinates (Angstroms)
 Number     Number       Type             X           Y           Z
 ---------------------------------------------------------------------
      1          6           0       -1.840644    0.103059   -0.031362
      2          6           0       -0.593484   -0.405943    0.024693
      3          6           0        0.600922    0.422955    0.010497
      4          6           0        1.827685   -0.119053   -0.015395
      5          1           0       -2.728277   -0.522443    0.022378
      6          1           0       -2.022938    1.169703   -0.045686
      7          1           0       -0.434068   -1.462612    0.075576
      8          1           0        0.500560    1.506068    0.099358
      9          1           0        1.965360   -1.198444   -0.064216
     10          1           0        2.752486    0.501624   -0.018001
 ---------------------------------------------------------------------

 SCF Done:  E(RB2PLYPD3) =  -155.699047796     A.U. after   11 cycles
 E2(B2PLYPD3) =    -0.2263486992D+00 E(B2PLYPD3) =    -0.15592539649468D+03

 The electronic state is 1-A.
 Alpha  occ. eigenvalues --  -10.62729 -10.62648 -10.61991 -10.61705  -0.92884
 Alpha  occ. eigenvalues --   -0.84463  -0.69840  -0.64336  -0.54243  -0.53790
 Alpha  occ. eigenvalues --   -0.46444  -0.45425  -0.41416  -0.37948  -0.27470
 Alpha virt. eigenvalues --    0.01627   0.07014   0.07375   0.07989   0.09318
 Alpha virt. eigenvalues --    0.11650   0.12461   0.14601   0.15810   0.16216
 Alpha virt. eigenvalues --    0.18765   0.20318   0.21689   0.22904   0.23643

 Mulliken charges:
               1
     1  C   -0.174013
     2  C   -0.038284
     3  C   -0.028797
     4  C   -0.174925
     5  H    0.082529
     6  H    0.065888
     7  H    0.061404
     8  H    0.060454
     9  H    0.064493
    10  H    0.081253
 Sum of Mulliken charges =   0.00000

 Dipole moment (field-independent basis, Debye):
    X=              0.0221    Y=              0.0015    Z=              0.0883  Tot=              0.0911
 Quadrupole moment (field-independent basis, Debye-Ang):
   XX=            -23.5690   YY=            -23.0532   ZZ=            -29.3737
   XY=             -0.2030   XZ=             -0.1353   YZ=              0.0364

 1\1\GINC-NODE10\SP\RB2PLYPD3-FC\def2QZVP\C4H6\BOITTIER\26-Aug-2020\0\\
 #p B2PLYPD3/Def2QZVP\\butadiene\\0,1\C,0,-3.843243,0.218923,-0.008603\
 C,0,-2.708698,-0.506077,0.0608\C,0,-1.38398,0.09215,0.027248\C,0,-0.27
 5775,-0.663585,0.01552\H,0,-4.829279,-0.233951,0.059741\H,0,-3.829388,
 1.30028,-0.049117\H,0,-2.74311,-1.572599,0.137602\H,0,-1.286185,1.1773
 5,0.089546\H,0,-0.336052,-1.750917,-0.006813\H,0,0.746129,-0.220953,-0
 .00156\\Version=ES64L-G09RevD.01\State=1-A\HF=-155.6990478\MP2=-155.92
 53965\RMSD=4.350e-09\PG=C01 [X(C4H6)]\\@

 Normal termination of Gaussian 09 at Wed Aug 26 18:57:03 2020.
