 Gaussian 09, Revision D.01,
 Gaussian 09:  ES64L-G09RevD.01 24-Apr-2013

 --------------------
 #p B2PLYPD3/Def2QZVP
 --------------------

 ---------
 butadiene
 ---------
 Symbolic Z-matrix:
 Charge =  0 Multiplicity = 1

                         Standard orientation:
 ---------------------------------------------------------------------
 Center     Atomic      Atomic             Coordinates (Angstroms)
 Number     Number       Type             X           Y           Z
 ---------------------------------------------------------------------
      1          6           0       -1.848936    0.106680    0.007497
      2          6           0       -0.621862   -0.379724   -0.044416
      3          6           0        0.620984    0.416128   -0.020402
      4          6           0        1.857975   -0.131165   -0.003734
      5          1           0       -2.678480   -0.579268    0.117693
      6          1           0       -2.023438    1.184719    0.003260
      7          1           0       -0.558035   -1.467470    0.049292
      8          1           0        0.487464    1.524845    0.054256
      9          1           0        1.953368   -1.219520    0.042758
     10          1           0        2.770157    0.485175    0.099076
 ---------------------------------------------------------------------

 SCF Done:  E(RB2PLYPD3) =  -155.696079616     A.U. after   11 cycles
 E2(B2PLYPD3) =    -0.2263853456D+00 E(B2PLYPD3) =    -0.15592246496213D+03

 The electronic state is 1-A.
 Alpha  occ. eigenvalues --  -10.63520 -10.62504 -10.62286 -10.61381  -0.92553
 Alpha  occ. eigenvalues --   -0.84942  -0.69523  -0.63441  -0.54205  -0.53759
 Alpha  occ. eigenvalues --   -0.46444  -0.45311  -0.40898  -0.37817  -0.27895
 Alpha virt. eigenvalues --    0.01735   0.06987   0.07288   0.07890   0.09464
 Alpha virt. eigenvalues --    0.11643   0.12306   0.14476   0.15805   0.16054
 Alpha virt. eigenvalues --    0.18834   0.20247   0.21245   0.22733   0.24078

 Mulliken charges:
               1
     1  C   -0.176408
     2  C   -0.016760
     3  C   -0.044849
     4  C   -0.169669
     5  H    0.086046
     6  H    0.065011
     7  H    0.048879
     8  H    0.052428
     9  H    0.067923
    10  H    0.087399
 Sum of Mulliken charges =   0.00000

 Dipole moment (field-independent basis, Debye):
    X=             -0.0169    Y=             -0.0131    Z=              0.2904  Tot=              0.2912
 Quadrupole moment (field-independent basis, Debye-Ang):
   XX=            -23.6380   YY=            -23.0906   ZZ=            -29.3895
   XY=              0.0822   XZ=              0.0188   YZ=             -0.0825

 1\1\GINC-NODE10\SP\RB2PLYPD3-FC\def2QZVP\C4H6\BOITTIER\26-Aug-2020\0\\
 #p B2PLYPD3/Def2QZVP\\butadiene\\0,1\C,0,-3.856048,0.208698,0.031975\C
 ,0,-2.731505,-0.483673,0.000053\C,0,-1.369912,0.086138,-0.001907\C,0,-
 0.24582,-0.665436,0.03691\H,0,-4.791022,-0.319456,0.164971\H,0,-3.8419
 8,1.299831,-0.011248\H,0,-2.85589,-1.562075,0.132809\H,0,-1.309857,1.2
 0321,0.032699\H,0,-0.339414,-1.751567,0.122568\H,0,0.75943,-0.212466,0
 .119447\\Version=ES64L-G09RevD.01\State=1-A\HF=-155.6960796\MP2=-155.9
 22465\RMSD=6.362e-09\PG=C01 [X(C4H6)]\\@

 Normal termination of Gaussian 09 at Wed Aug 26 11:01:15 2020.
