 Gaussian 09, Revision D.01,
 Gaussian 09:  ES64L-G09RevD.01 24-Apr-2013

 --------------------
 #p B2PLYPD3/Def2QZVP
 --------------------

 ---------
 butadiene
 ---------
 Symbolic Z-matrix:
 Charge =  0 Multiplicity = 1

                         Standard orientation:
 ---------------------------------------------------------------------
 Center     Atomic      Atomic             Coordinates (Angstroms)
 Number     Number       Type             X           Y           Z
 ---------------------------------------------------------------------
      1          6           0       -1.835928   -0.102185    0.001240
      2          6           0       -0.596157    0.387420   -0.016224
      3          6           0        0.602756   -0.416014   -0.026803
      4          6           0        1.832994    0.114135    0.010061
      5          1           0       -2.720303    0.534928    0.044688
      6          1           0       -1.997592   -1.168350    0.046244
      7          1           0       -0.475536    1.495350    0.043570
      8          1           0        0.460969   -1.493274   -0.000059
      9          1           0        1.941792    1.202490   -0.026338
     10          1           0        2.768679   -0.471282    0.082255
 ---------------------------------------------------------------------

 SCF Done:  E(RB2PLYPD3) =  -155.698892470     A.U. after   11 cycles
 E2(B2PLYPD3) =    -0.2262547999D+00 E(B2PLYPD3) =    -0.15592514727022D+03

 The electronic state is 1-A.
 Alpha  occ. eigenvalues --  -10.62742 -10.62677 -10.62073 -10.61500  -0.93107
 Alpha  occ. eigenvalues --   -0.84742  -0.69937  -0.63815  -0.54482  -0.53739
 Alpha  occ. eigenvalues --   -0.46664  -0.45054  -0.41129  -0.38265  -0.27611
 Alpha virt. eigenvalues --    0.01633   0.07002   0.07309   0.07957   0.09573
 Alpha virt. eigenvalues --    0.11637   0.12517   0.14524   0.15853   0.16172
 Alpha virt. eigenvalues --    0.18729   0.20428   0.21593   0.22761   0.23766

 Mulliken charges:
               1
     1  C   -0.177289
     2  C   -0.019959
     3  C   -0.033656
     4  C   -0.170142
     5  H    0.086258
     6  H    0.062438
     7  H    0.047644
     8  H    0.055490
     9  H    0.063186
    10  H    0.086028
 Sum of Mulliken charges =   0.00000

 Dipole moment (field-independent basis, Debye):
    X=              0.0205    Y=             -0.0170    Z=              0.1443  Tot=              0.1468
 Quadrupole moment (field-independent basis, Debye-Ang):
   XX=            -23.4082   YY=            -23.2277   ZZ=            -29.3319
   XY=              0.0635   XZ=             -0.0425   YZ=             -0.0599

 1\1\GINC-NODE27\SP\RB2PLYPD3-FC\def2QZVP\C4H6\BOITTIER\26-Aug-2020\0\\
 #p B2PLYPD3/Def2QZVP\\butadiene\\0,1\C,0,-3.840636,0.213765,0.01242\C,
 0,-2.709013,-0.489954,0.047923\C,0,-1.385182,0.084804,0.036329\C,0,-0.
 270405,-0.658746,0.018766\H,0,-4.825266,-0.255023,-0.013275\H,0,-3.808
 171,1.289712,-0.066017\H,0,-2.789706,-1.60283,0.022814\H,0,-1.33111,1.
 168652,-0.024155\H,0,-0.358891,-1.747274,0.089169\H,0,0.755024,-0.2535
 88,-0.069403\\Version=ES64L-G09RevD.01\State=1-A\HF=-155.6988925\MP2=-
 155.9251473\RMSD=4.816e-09\PG=C01 [X(C4H6)]\\@

 Normal termination of Gaussian 09 at Wed Aug 26 20:10:48 2020.
