 Gaussian 09, Revision D.01,
 Gaussian 09:  ES64L-G09RevD.01 24-Apr-2013

 --------------------
 #p B2PLYPD3/Def2QZVP
 --------------------

 ---------
 butadiene
 ---------
 Symbolic Z-matrix:
 Charge =  0 Multiplicity = 1

                         Standard orientation:
 ---------------------------------------------------------------------
 Center     Atomic      Atomic             Coordinates (Angstroms)
 Number     Number       Type             X           Y           Z
 ---------------------------------------------------------------------
      1          6           0        1.843844    0.048431    0.072014
      2          6           0        0.591106   -0.377506   -0.097017
      3          6           0       -0.591646    0.469206   -0.075052
      4          6           0       -1.831026   -0.150614    0.050344
      5          1           0        2.715997   -0.543362    0.157890
      6          1           0        1.916183    1.196066   -0.107205
      7          1           0        0.329919   -1.342836   -0.030833
      8          1           0       -0.429815    1.543552    0.144771
      9          1           0       -1.876482   -1.234854    0.056050
     10          1           0       -2.729471    0.444328    0.077589
 ---------------------------------------------------------------------

 SCF Done:  E(RB2PLYPD3) =  -155.676154219     A.U. after   12 cycles
 E2(B2PLYPD3) =    -0.2279789623D+00 E(B2PLYPD3) =    -0.15590413318077D+03

 The electronic state is 1-A.
 Alpha  occ. eigenvalues --  -10.63640 -10.62611 -10.62039 -10.61537  -0.93070
 Alpha  occ. eigenvalues --   -0.84073  -0.70221  -0.64835  -0.55151  -0.52957
 Alpha  occ. eigenvalues --   -0.46607  -0.45308  -0.41456  -0.37676  -0.27145
 Alpha virt. eigenvalues --    0.00959   0.07107   0.07338   0.08230   0.08559
 Alpha virt. eigenvalues --    0.11740   0.12662   0.14286   0.15338   0.16177
 Alpha virt. eigenvalues --    0.18543   0.19317   0.21699   0.23924   0.24235

 Mulliken charges:
               1
     1  C   -0.180783
     2  C   -0.019132
     3  C   -0.040413
     4  C   -0.185377
     5  H    0.092966
     6  H    0.050896
     7  H    0.059330
     8  H    0.062300
     9  H    0.069782
    10  H    0.090430
 Sum of Mulliken charges =   0.00000

 Dipole moment (field-independent basis, Debye):
    X=             -0.0853    Y=             -0.1222    Z=              0.1739  Tot=              0.2291
 Quadrupole moment (field-independent basis, Debye-Ang):
   XX=            -23.7264   YY=            -23.3049   ZZ=            -29.3771
   XY=             -0.1111   XZ=             -0.1120   YZ=             -0.0730

 1\1\GINC-NODE24\SP\RB2PLYPD3-FC\def2QZVP\C4H6\BOITTIER\26-Aug-2020\0\\
 #p B2PLYPD3/Def2QZVP\\butadiene\\0,1\C,0,-3.853652,0.17603,-0.055181\C
 ,0,-2.701589,-0.472788,0.12126\C,0,-1.382067,0.138755,0.086841\C,0,-0.
 279854,-0.702601,-0.028094\H,0,-4.820835,-0.244499,-0.132369\H,0,-3.71
 0909,1.319725,0.106077\H,0,-2.624619,-1.470756,0.070301\H,0,-1.341794,
 1.220931,-0.149808\H,0,-0.436827,-1.776337,-0.016865\H,0,0.713489,-0.2
 85615,-0.064046\\Version=ES64L-G09RevD.01\State=1-A\HF=-155.6761542\MP
 2=-155.9041332\RMSD=3.011e-09\PG=C01 [X(C4H6)]\\@

 Normal termination of Gaussian 09 at Wed Aug 26 12:43:46 2020.
