 Gaussian 09, Revision D.01,
 Gaussian 09:  ES64L-G09RevD.01 24-Apr-2013

 --------------------
 #p B2PLYPD3/Def2QZVP
 --------------------

 ---------
 butadiene
 ---------
 Symbolic Z-matrix:
 Charge =  0 Multiplicity = 1

                         Standard orientation:
 ---------------------------------------------------------------------
 Center     Atomic      Atomic             Coordinates (Angstroms)
 Number     Number       Type             X           Y           Z
 ---------------------------------------------------------------------
      1          6           0       -1.848817   -0.121109    0.049818
      2          6           0       -0.628303    0.393580   -0.050502
      3          6           0        0.615188   -0.404433   -0.017448
      4          6           0        1.847445    0.116227    0.023097
      5          1           0       -2.701174    0.538460   -0.068609
      6          1           0       -2.053036   -1.131361    0.100811
      7          1           0       -0.520434    1.452515   -0.079180
      8          1           0        0.573076   -1.495839   -0.103353
      9          1           0        1.997836    1.197327    0.159059
     10          1           0        2.790652   -0.466696   -0.038516
 ---------------------------------------------------------------------

 SCF Done:  E(RB2PLYPD3) =  -155.695668006     A.U. after   11 cycles
 E2(B2PLYPD3) =    -0.2255987746D+00 E(B2PLYPD3) =    -0.15592126678013D+03

 The electronic state is 1-A.
 Alpha  occ. eigenvalues --  -10.62891 -10.62588 -10.62010 -10.60922  -0.92647
 Alpha  occ. eigenvalues --   -0.85109  -0.69929  -0.64311  -0.54390  -0.54211
 Alpha  occ. eigenvalues --   -0.46941  -0.45343  -0.40919  -0.37744  -0.27932
 Alpha virt. eigenvalues --    0.01786   0.06973   0.07602   0.07914   0.09485
 Alpha virt. eigenvalues --    0.11589   0.12465   0.14635   0.15825   0.16355
 Alpha virt. eigenvalues --    0.19029   0.20130   0.21768   0.22385   0.23729

 Mulliken charges:
               1
     1  C   -0.165570
     2  C   -0.042039
     3  C   -0.036082
     4  C   -0.170762
     5  H    0.077941
     6  H    0.072752
     7  H    0.064984
     8  H    0.058019
     9  H    0.058463
    10  H    0.082295
 Sum of Mulliken charges =   0.00000

 Dipole moment (field-independent basis, Debye):
    X=             -0.0126    Y=             -0.0138    Z=             -0.0659  Tot=              0.0685
 Quadrupole moment (field-independent basis, Debye-Ang):
   XX=            -23.2879   YY=            -23.1754   ZZ=            -29.2280
   XY=              0.1169   XZ=              0.1396   YZ=              0.0831

 1\1\GINC-NODE09\SP\RB2PLYPD3-FC\def2QZVP\C4H6\BOITTIER\26-Aug-2020\0\\
 #p B2PLYPD3/Def2QZVP\\butadiene\\0,1\C,0,-3.851113,0.220463,-0.026464\
 C,0,-2.737326,-0.494919,0.084575\C,0,-1.374955,0.075795,0.035402\C,0,-
 0.251104,-0.650337,0.005729\H,0,-4.804049,-0.279658,0.105296\H,0,-3.87
 8206,1.24956,-0.098159\H,0,-2.813611,-1.555789,0.134941\H,0,-1.227913,
 1.159613,0.098941\H,0,-0.289881,-1.743695,-0.10805\H,0,0.778707,-0.237
 734,0.055555\\Version=ES64L-G09RevD.01\State=1-A\HF=-155.695668\MP2=-1
 55.9212668\RMSD=6.731e-09\PG=C01 [X(C4H6)]\\@

 Normal termination of Gaussian 09 at Wed Aug 26 11:18:48 2020.
