 Gaussian 09, Revision D.01,
 Gaussian 09:  ES64L-G09RevD.01 24-Apr-2013

 --------------------
 #p B2PLYPD3/Def2QZVP
 --------------------

 ---------
 butadiene
 ---------
 Symbolic Z-matrix:
 Charge =  0 Multiplicity = 1

                         Standard orientation:
 ---------------------------------------------------------------------
 Center     Atomic      Atomic             Coordinates (Angstroms)
 Number     Number       Type             X           Y           Z
 ---------------------------------------------------------------------
      1          6           0       -1.835474   -0.117093   -0.023872
      2          6           0       -0.616468    0.401901    0.033742
      3          6           0        0.603292   -0.390247    0.013106
      4          6           0        1.844285    0.110231   -0.024349
      5          1           0       -2.706059    0.527833   -0.056777
      6          1           0       -1.968172   -1.205254   -0.007398
      7          1           0       -0.510314    1.506779    0.033889
      8          1           0        0.489668   -1.481158    0.076122
      9          1           0        2.051594    1.170055    0.006302
     10          1           0        2.669470   -0.547008   -0.043906
 ---------------------------------------------------------------------

 SCF Done:  E(RB2PLYPD3) =  -155.699706594     A.U. after   11 cycles
 E2(B2PLYPD3) =    -0.2257118185D+00 E(B2PLYPD3) =    -0.15592541841206D+03

 The electronic state is 1-A.
 Alpha  occ. eigenvalues --  -10.62711 -10.62596 -10.61560 -10.61213  -0.92922
 Alpha  occ. eigenvalues --   -0.85098  -0.70110  -0.63553  -0.54554  -0.54079
 Alpha  occ. eigenvalues --   -0.46513  -0.45611  -0.41104  -0.38068  -0.27764
 Alpha virt. eigenvalues --    0.01811   0.07032   0.07316   0.08002   0.09671
 Alpha virt. eigenvalues --    0.11668   0.12346   0.14731   0.15766   0.16195
 Alpha virt. eigenvalues --    0.18754   0.20400   0.21539   0.22708   0.24022

 Mulliken charges:
               1
     1  C   -0.173379
     2  C   -0.027139
     3  C   -0.029869
     4  C   -0.179313
     5  H    0.088024
     6  H    0.065447
     7  H    0.049945
     8  H    0.050902
     9  H    0.068506
    10  H    0.086875
 Sum of Mulliken charges =   0.00000

 Dipole moment (field-independent basis, Debye):
    X=             -0.0046    Y=              0.0098    Z=              0.0413  Tot=              0.0427
 Quadrupole moment (field-independent basis, Debye-Ang):
   XX=            -23.5592   YY=            -23.0313   ZZ=            -29.2799
   XY=              0.0397   XZ=              0.1090   YZ=             -0.0557

 1\1\GINC-NODE17\SP\RB2PLYPD3-FC\def2QZVP\C4H6\BOITTIER\26-Aug-2020\0\\
 #p B2PLYPD3/Def2QZVP\\butadiene\\0,1\C,0,-3.836654,0.228077,0.042427\C
 ,0,-2.729766,-0.501246,0.003228\C,0,-1.388414,0.061336,-0.000937\C,0,-
 0.256137,-0.650592,0.054295\H,0,-4.80795,-0.250133,0.095627\H,0,-3.773
 651,1.321354,-0.010011\H,0,-2.821944,-1.60678,0.039577\H,0,-1.306377,1
 .152405,-0.099962\H,0,-0.240905,-1.73082,0.05878\H,0,0.672928,-0.15048
 ,0.053075\\Version=ES64L-G09RevD.01\State=1-A\HF=-155.6997066\MP2=-155
 .9254184\RMSD=5.305e-09\PG=C01 [X(C4H6)]\\@

 Normal termination of Gaussian 09 at Wed Aug 26 18:40:53 2020.
