 Gaussian 09, Revision D.01,
 Gaussian 09:  ES64L-G09RevD.01 24-Apr-2013

 --------------------
 #p B2PLYPD3/Def2QZVP
 --------------------

 ---------
 butadiene
 ---------
 Symbolic Z-matrix:
 Charge =  0 Multiplicity = 1

                         Standard orientation:
 ---------------------------------------------------------------------
 Center     Atomic      Atomic             Coordinates (Angstroms)
 Number     Number       Type             X           Y           Z
 ---------------------------------------------------------------------
      1          6           0        1.859118   -0.127702   -0.015075
      2          6           0        0.607886    0.435958    0.050699
      3          6           0       -0.611331   -0.360280    0.011832
      4          6           0       -1.872962    0.092317   -0.048303
      5          1           0        2.855406    0.357159    0.009300
      6          1           0        1.890117   -1.178196   -0.125771
      7          1           0        0.468419    1.557252    0.024284
      8          1           0       -0.365860   -1.368958    0.000709
      9          1           0       -2.114941    1.079165   -0.120934
     10          1           0       -2.629412   -0.688180    0.217497
 ---------------------------------------------------------------------

 SCF Done:  E(RB2PLYPD3) =  -155.682023439     A.U. after   11 cycles
 E2(B2PLYPD3) =    -0.2272360252D+00 E(B2PLYPD3) =    -0.15590925946414D+03

 The electronic state is 1-A.
 Alpha  occ. eigenvalues --  -10.63681 -10.62454 -10.62269 -10.61420  -0.92783
 Alpha  occ. eigenvalues --   -0.84517  -0.70760  -0.64588  -0.54226  -0.53922
 Alpha  occ. eigenvalues --   -0.47279  -0.45709  -0.41190  -0.37371  -0.27303
 Alpha virt. eigenvalues --    0.00782   0.06894   0.07529   0.08065   0.09343
 Alpha virt. eigenvalues --    0.11639   0.12449   0.14752   0.15757   0.15948
 Alpha virt. eigenvalues --    0.18996   0.20278   0.21310   0.22676   0.23888

 Mulliken charges:
               1
     1  C   -0.172552
     2  C   -0.035460
     3  C   -0.023845
     4  C   -0.184178
     5  H    0.089008
     6  H    0.058138
     7  H    0.047163
     8  H    0.062569
     9  H    0.078275
    10  H    0.080882
 Sum of Mulliken charges =   0.00000

 Dipole moment (field-independent basis, Debye):
    X=              0.1458    Y=             -0.0189    Z=              0.0382  Tot=              0.1519
 Quadrupole moment (field-independent basis, Debye-Ang):
   XX=            -23.4785   YY=            -23.3546   ZZ=            -29.3201
   XY=             -0.4886   XZ=             -0.5818   YZ=             -0.1849

 1\1\GINC-NODE22\SP\RB2PLYPD3-FC\def2QZVP\C4H6\BOITTIER\26-Aug-2020\0\\
 #p B2PLYPD3/Def2QZVP\\butadiene\\0,1\C,0,-3.85873,0.25022,-0.003823\C,
 0,-2.73024,-0.528668,0.08257\C,0,-1.387018,0.032761,0.032071\C,0,-0.22
 8017,-0.641866,-0.009968\H,0,-4.926339,-0.045728,0.026147\H,0,-3.69897
 4,1.285996,-0.13946\H,0,-2.795923,-1.657,0.083443\H,0,-1.445909,1.0686
 28,-0.004293\H,0,-0.168484,-1.657671,-0.057869\H,0,0.656773,-0.004827,
 0.241768\\Version=ES64L-G09RevD.01\State=1-A\HF=-155.6820234\MP2=-155.
 9092595\RMSD=7.544e-09\PG=C01 [X(C4H6)]\\@

 Normal termination of Gaussian 09 at Wed Aug 26 11:47:16 2020.
