 Gaussian 09, Revision D.01,
 Gaussian 09:  ES64L-G09RevD.01 24-Apr-2013

 --------------------
 #p B2PLYPD3/Def2QZVP
 --------------------

 ---------
 butadiene
 ---------
 Symbolic Z-matrix:
 Charge =  0 Multiplicity = 1

                         Standard orientation:
 ---------------------------------------------------------------------
 Center     Atomic      Atomic             Coordinates (Angstroms)
 Number     Number       Type             X           Y           Z
 ---------------------------------------------------------------------
      1          6           0        1.819328    0.102806   -0.010880
      2          6           0        0.605971   -0.379797    0.027651
      3          6           0       -0.584606    0.400022    0.024956
      4          6           0       -1.813844   -0.115642   -0.042517
      5          1           0        2.717023   -0.539702   -0.076666
      6          1           0        1.964740    1.147984   -0.143652
      7          1           0        0.393861   -1.471739    0.182419
      8          1           0       -0.534392    1.500976    0.124883
      9          1           0       -1.996778   -1.197699   -0.132654
     10          1           0       -2.705545    0.515842    0.050411
 ---------------------------------------------------------------------

 SCF Done:  E(RB2PLYPD3) =  -155.695161352     A.U. after   11 cycles
 E2(B2PLYPD3) =    -0.2257963067D+00 E(B2PLYPD3) =    -0.15592095765898D+03

 The electronic state is 1-A.
 Alpha  occ. eigenvalues --  -10.62405 -10.62286 -10.61782 -10.61181  -0.93701
 Alpha  occ. eigenvalues --   -0.85163  -0.70113  -0.63477  -0.54577  -0.54054
 Alpha  occ. eigenvalues --   -0.46701  -0.44972  -0.40835  -0.38462  -0.27869
 Alpha virt. eigenvalues --    0.01801   0.07068   0.07251   0.07865   0.09807
 Alpha virt. eigenvalues --    0.11704   0.12413   0.14789   0.15496   0.16282
 Alpha virt. eigenvalues --    0.18724   0.19854   0.21721   0.22515   0.23722

 Mulliken charges:
               1
     1  C   -0.172069
     2  C   -0.021077
     3  C   -0.025969
     4  C   -0.177119
     5  H    0.084035
     6  H    0.067067
     7  H    0.051195
     8  H    0.050113
     9  H    0.060937
    10  H    0.082886
 Sum of Mulliken charges =   0.00000

 Dipole moment (field-independent basis, Debye):
    X=             -0.0179    Y=              0.0243    Z=              0.0227  Tot=              0.0378
 Quadrupole moment (field-independent basis, Debye-Ang):
   XX=            -23.5464   YY=            -23.3005   ZZ=            -29.1118
   XY=              0.1311   XZ=             -0.4214   YZ=              0.0098

 1\1\GINC-NODE29\SP\RB2PLYPD3-FC\def2QZVP\C4H6\BOITTIER\26-Aug-2020\0\\
 #p B2PLYPD3/Def2QZVP\\butadiene\\0,1\C,0,-3.819571,0.215825,0.034649\C
 ,0,-2.71428,-0.480068,0.008371\C,0,-1.401935,0.070249,-0.013987\C,0,-0
 .286286,-0.657977,0.066644\H,0,-4.818501,-0.250757,0.120907\H,0,-3.771
 901,1.273409,0.136703\H,0,-2.705005,-1.596367,-0.114398\H,0,-1.25216,1
 .158668,-0.146338\H,0,-0.302188,-1.752213,0.188429\H,0,0.704558,-0.201
 923,-0.046408\\Version=ES64L-G09RevD.01\State=1-A\HF=-155.6951614\MP2=
 -155.9209577\RMSD=6.408e-09\PG=C01 [X(C4H6)]\\@

 Normal termination of Gaussian 09 at Wed Aug 26 09:45:31 2020.
