 Gaussian 09, Revision D.01,
 Gaussian 09:  ES64L-G09RevD.01 24-Apr-2013

 --------------------
 #p B2PLYPD3/Def2QZVP
 --------------------

 ---------
 butadiene
 ---------
 Symbolic Z-matrix:
 Charge =  0 Multiplicity = 1

                         Standard orientation:
 ---------------------------------------------------------------------
 Center     Atomic      Atomic             Coordinates (Angstroms)
 Number     Number       Type             X           Y           Z
 ---------------------------------------------------------------------
      1          6           0       -1.881814    0.111003    0.039405
      2          6           0       -0.633438   -0.419771   -0.062814
      3          6           0        0.600903    0.380439   -0.079033
      4          6           0        1.884877   -0.093598    0.068651
      5          1           0       -2.747727   -0.519188    0.019693
      6          1           0       -1.955373    1.194286    0.150814
      7          1           0       -0.335120   -1.435219    0.051638
      8          1           0        0.481243    1.513497   -0.059257
      9          1           0        2.056591   -1.142225   -0.004615
     10          1           0        2.677215    0.520413    0.044470
 ---------------------------------------------------------------------

 SCF Done:  E(RB2PLYPD3) =  -155.682517008     A.U. after   11 cycles
 E2(B2PLYPD3) =    -0.2275702467D+00 E(B2PLYPD3) =    -0.15591008725449D+03

 The electronic state is 1-A.
 Alpha  occ. eigenvalues --  -10.63685 -10.63155 -10.62452 -10.61173  -0.92255
 Alpha  occ. eigenvalues --   -0.84544  -0.71312  -0.63701  -0.55073  -0.53512
 Alpha  occ. eigenvalues --   -0.47709  -0.45772  -0.40917  -0.37238  -0.27328
 Alpha virt. eigenvalues --    0.00658   0.07051   0.07421   0.08202   0.09100
 Alpha virt. eigenvalues --    0.11661   0.12476   0.14604   0.15480   0.16109
 Alpha virt. eigenvalues --    0.19024   0.20114   0.21361   0.23055   0.24121

 Mulliken charges:
               1
     1  C   -0.172960
     2  C   -0.041818
     3  C   -0.022087
     4  C   -0.184004
     5  H    0.096682
     6  H    0.074837
     7  H    0.060744
     8  H    0.036347
     9  H    0.059479
    10  H    0.092779
 Sum of Mulliken charges =   0.00000

 Dipole moment (field-independent basis, Debye):
    X=             -0.0235    Y=             -0.0302    Z=              0.0904  Tot=              0.0981
 Quadrupole moment (field-independent basis, Debye-Ang):
   XX=            -23.2402   YY=            -23.3754   ZZ=            -29.4555
   XY=             -0.1840   XZ=             -0.2794   YZ=              0.1212

 1\1\GINC-NODE35\SP\RB2PLYPD3-FC\def2QZVP\C4H6\BOITTIER\26-Aug-2020\0\\
 #p B2PLYPD3/Def2QZVP\\butadiene\\0,1\C,0,-3.878099,0.238856,0.065902\C
 ,0,-2.747367,-0.512022,-0.024867\C,0,-1.38828,0.050028,-0.059202\C,0,-
 0.211157,-0.646097,0.0986\H,0,-4.844162,-0.223776,0.060435\H,0,-3.7531
 65,1.319636,0.153255\H,0,-2.637986,-1.562035,0.112015\H,0,-1.300033,1.
 186124,-0.064552\H,0,-0.23311,-1.709812,0.048583\H,0,0.679426,-0.18695
 8,0.060565\\Version=ES64L-G09RevD.01\State=1-A\HF=-155.682517\MP2=-155
 .9100873\RMSD=6.608e-09\PG=C01 [X(C4H6)]\\@

 Normal termination of Gaussian 09 at Wed Aug 26 13:51:41 2020.
