 Gaussian 09, Revision D.01,
 Gaussian 09:  ES64L-G09RevD.01 24-Apr-2013

 --------------------
 #p B2PLYPD3/Def2QZVP
 --------------------

 ---------
 butadiene
 ---------
 Symbolic Z-matrix:
 Charge =  0 Multiplicity = 1

                         Standard orientation:
 ---------------------------------------------------------------------
 Center     Atomic      Atomic             Coordinates (Angstroms)
 Number     Number       Type             X           Y           Z
 ---------------------------------------------------------------------
      1          6           0       -1.827951    0.113167    0.012291
      2          6           0       -0.595174   -0.418282   -0.020350
      3          6           0        0.600136    0.405283   -0.051029
      4          6           0        1.823558   -0.112782    0.036061
      5          1           0       -2.728730   -0.520974    0.112463
      6          1           0       -1.945368    1.220257    0.087644
      7          1           0       -0.442773   -1.458575   -0.098806
      8          1           0        0.520195    1.513764   -0.094530
      9          1           0        1.957182   -1.223220    0.018012
     10          1           0        2.636083    0.544429    0.113377
 ---------------------------------------------------------------------

 SCF Done:  E(RB2PLYPD3) =  -155.694640486     A.U. after   11 cycles
 E2(B2PLYPD3) =    -0.2262973642D+00 E(B2PLYPD3) =    -0.15592093785025D+03

 The electronic state is 1-A.
 Alpha  occ. eigenvalues --  -10.62540 -10.62368 -10.62143 -10.61314  -0.93099
 Alpha  occ. eigenvalues --   -0.84772  -0.69640  -0.63916  -0.54430  -0.53728
 Alpha  occ. eigenvalues --   -0.46401  -0.45058  -0.41625  -0.37997  -0.27566
 Alpha virt. eigenvalues --    0.01848   0.07042   0.07241   0.08006   0.09354
 Alpha virt. eigenvalues --    0.11735   0.12318   0.14497   0.15761   0.16067
 Alpha virt. eigenvalues --    0.18609   0.20338   0.21262   0.22857   0.24153

 Mulliken charges:
               1
     1  C   -0.171881
     2  C   -0.038255
     3  C   -0.022340
     4  C   -0.181598
     5  H    0.082852
     6  H    0.064690
     7  H    0.063899
     8  H    0.049463
     9  H    0.063718
    10  H    0.089450
 Sum of Mulliken charges =   0.00000

 Dipole moment (field-independent basis, Debye):
    X=              0.0348    Y=             -0.0046    Z=              0.0792  Tot=              0.0867
 Quadrupole moment (field-independent basis, Debye-Ang):
   XX=            -24.0158   YY=            -22.8948   ZZ=            -29.3152
   XY=              0.1055   XZ=             -0.1257   YZ=              0.1232

 1\1\GINC-NODE35\SP\RB2PLYPD3-FC\def2QZVP\C4H6\BOITTIER\26-Aug-2020\0\\
 #p B2PLYPD3/Def2QZVP\\butadiene\\0,1\C,0,-3.829523,0.227165,0.036427\C
 ,0,-2.712754,-0.518237,0.015348\C,0,-1.388776,0.075696,-0.032544\C,0,-
 0.278366,-0.652353,0.065795\H,0,-4.82942,-0.23209,0.149841\H,0,-3.7453
 47,1.338625,0.088233\H,0,-2.750499,-1.570375,-0.040971\H,0,-1.267915,1
 .179286,-0.099587\H,0,-0.346997,-1.768827,0.071354\H,0,0.639517,-0.150
 798,0.12932\\Version=ES64L-G09RevD.01\State=1-A\HF=-155.6946405\MP2=-1
 55.9209379\RMSD=5.724e-09\PG=C01 [X(C4H6)]\\@

 Normal termination of Gaussian 09 at Wed Aug 26 08:32:07 2020.
