 Gaussian 09, Revision D.01,
 Gaussian 09:  ES64L-G09RevD.01 24-Apr-2013

 --------------------
 #p B2PLYPD3/Def2QZVP
 --------------------

 ---------
 butadiene
 ---------
 Symbolic Z-matrix:
 Charge =  0 Multiplicity = 1

                         Standard orientation:
 ---------------------------------------------------------------------
 Center     Atomic      Atomic             Coordinates (Angstroms)
 Number     Number       Type             X           Y           Z
 ---------------------------------------------------------------------
      1          6           0       -1.834752   -0.116799   -0.014462
      2          6           0       -0.589724    0.429992    0.004207
      3          6           0        0.602078   -0.385600   -0.006839
      4          6           0        1.841270    0.087649    0.001326
      5          1           0       -2.722288    0.494993   -0.043596
      6          1           0       -1.995660   -1.230702    0.132096
      7          1           0       -0.445205    1.496750    0.037994
      8          1           0        0.400367   -1.464991   -0.053768
      9          1           0        1.970009    1.178996    0.013405
     10          1           0        2.679544   -0.566499    0.008474
 ---------------------------------------------------------------------

 SCF Done:  E(RB2PLYPD3) =  -155.695951020     A.U. after   11 cycles
 E2(B2PLYPD3) =    -0.2265525216D+00 E(B2PLYPD3) =    -0.15592250354155D+03

 The electronic state is 1-A.
 Alpha  occ. eigenvalues --  -10.62832 -10.62464 -10.62321 -10.61345  -0.93059
 Alpha  occ. eigenvalues --   -0.84559  -0.70122  -0.63842  -0.54777  -0.53343
 Alpha  occ. eigenvalues --   -0.46721  -0.45270  -0.41293  -0.38091  -0.27436
 Alpha virt. eigenvalues --    0.01457   0.07020   0.07221   0.08120   0.09447
 Alpha virt. eigenvalues --    0.11715   0.12362   0.14590   0.15685   0.16210
 Alpha virt. eigenvalues --    0.18661   0.20354   0.21431   0.23021   0.23805

 Mulliken charges:
               1
     1  C   -0.175837
     2  C   -0.039192
     3  C   -0.013312
     4  C   -0.182691
     5  H    0.085533
     6  H    0.064128
     7  H    0.056350
     8  H    0.048574
     9  H    0.063068
    10  H    0.093380
 Sum of Mulliken charges =   0.00000

 Dipole moment (field-independent basis, Debye):
    X=             -0.0228    Y=              0.0209    Z=              0.0896  Tot=              0.0948
 Quadrupole moment (field-independent basis, Debye-Ang):
   XX=            -23.6656   YY=            -23.1069   ZZ=            -29.3592
   XY=              0.0860   XZ=             -0.1173   YZ=             -0.0836

 1\1\GINC-NODE40\SP\RB2PLYPD3-FC\def2QZVP\C4H6\BOITTIER\26-Aug-2020\0\\
 #p B2PLYPD3/Def2QZVP\\butadiene\\0,1\C,0,-3.835186,0.241357,0.028007\C
 ,0,-2.712973,-0.526793,0.031014\C,0,-1.39075,0.053976,0.019227\C,0,-0.
 260626,-0.64052,0.030321\H,0,-4.820553,-0.194267,0.074269\H,0,-3.78752
 1,1.360422,-0.155216\H,0,-2.76855,-1.60239,0.032404\H,0,-1.388999,1.15
 2997,0.030383\H,0,-0.336198,-1.73664,0.054159\H,0,0.684238,-0.153459,0
 .004503\\Version=ES64L-G09RevD.01\State=1-A\HF=-155.695951\MP2=-155.92
 25035\RMSD=6.776e-09\PG=C01 [X(C4H6)]\\@

 Normal termination of Gaussian 09 at Wed Aug 26 10:02:06 2020.
