 Gaussian 09, Revision D.01,
 Gaussian 09:  ES64L-G09RevD.01 24-Apr-2013

 --------------------
 #p B2PLYPD3/Def2QZVP
 --------------------

 ---------
 butadiene
 ---------
 Symbolic Z-matrix:
 Charge =  0 Multiplicity = 1

                         Standard orientation:
 ---------------------------------------------------------------------
 Center     Atomic      Atomic             Coordinates (Angstroms)
 Number     Number       Type             X           Y           Z
 ---------------------------------------------------------------------
      1          6           0        1.858383   -0.101255   -0.016491
      2          6           0        0.610887    0.369851    0.005554
      3          6           0       -0.630506   -0.416600    0.003555
      4          6           0       -1.841930    0.126356    0.002137
      5          1           0        2.715920    0.530181    0.111416
      6          1           0        2.092306   -1.129217   -0.071935
      7          1           0        0.495667    1.452976   -0.005424
      8          1           0       -0.550828   -1.466247    0.044339
      9          1           0       -1.916348    1.198183   -0.062802
     10          1           0       -2.817717   -0.455990    0.015875
 ---------------------------------------------------------------------

 SCF Done:  E(RB2PLYPD3) =  -155.696459330     A.U. after   11 cycles
 E2(B2PLYPD3) =    -0.2254343761D+00 E(B2PLYPD3) =    -0.15592189370603D+03

 The electronic state is 1-A.
 Alpha  occ. eigenvalues --  -10.62767 -10.62335 -10.62002 -10.61097  -0.92863
 Alpha  occ. eigenvalues --   -0.85169  -0.69995  -0.64540  -0.54558  -0.54023
 Alpha  occ. eigenvalues --   -0.47056  -0.45316  -0.40999  -0.37957  -0.27926
 Alpha virt. eigenvalues --    0.01777   0.06926   0.07618   0.07988   0.09624
 Alpha virt. eigenvalues --    0.11575   0.12579   0.14563   0.15779   0.16363
 Alpha virt. eigenvalues --    0.18975   0.20155   0.21879   0.22517   0.23861

 Mulliken charges:
               1
     1  C   -0.173916
     2  C   -0.033059
     3  C   -0.038298
     4  C   -0.164744
     5  H    0.083071
     6  H    0.064696
     7  H    0.053796
     8  H    0.063122
     9  H    0.062664
    10  H    0.082669
 Sum of Mulliken charges =   0.00000

 Dipole moment (field-independent basis, Debye):
    X=             -0.0234    Y=             -0.0386    Z=              0.0306  Tot=              0.0545
 Quadrupole moment (field-independent basis, Debye-Ang):
   XX=            -23.1182   YY=            -23.3055   ZZ=            -29.2123
   XY=             -0.0700   XZ=              0.2264   YZ=              0.0064

 1\1\GINC-NODE15\SP\RB2PLYPD3-FC\def2QZVP\C4H6\BOITTIER\26-Aug-2020\0\\
 #p B2PLYPD3/Def2QZVP\\butadiene\\0,1\C,0,-3.865954,0.20401,0.006333\C,
 0,-2.718766,-0.47525,0.041542\C,0,-1.359987,0.083961,0.017719\C,0,-0.2
 60877,-0.660432,0.031473\H,0,-4.81924,-0.265616,0.15172\H,0,-3.918638,
 1.255039,-0.077709\H,0,-2.792858,-1.561849,0.060717\H,0,-1.256544,1.13
 2263,0.029273\H,0,-0.373456,-1.730321,-0.003609\H,0,0.801049,-0.255731
 ,0.029048\\Version=ES64L-G09RevD.01\State=1-A\HF=-155.6964593\MP2=-155
 .9218937\RMSD=3.701e-09\PG=C01 [X(C4H6)]\\@

 Normal termination of Gaussian 09 at Wed Aug 26 11:13:37 2020.
