 Gaussian 09, Revision D.01,
 Gaussian 09:  ES64L-G09RevD.01 24-Apr-2013

 --------------------
 #p B2PLYPD3/Def2QZVP
 --------------------

 ---------
 butadiene
 ---------
 Symbolic Z-matrix:
 Charge =  0 Multiplicity = 1

                         Standard orientation:
 ---------------------------------------------------------------------
 Center     Atomic      Atomic             Coordinates (Angstroms)
 Number     Number       Type             X           Y           Z
 ---------------------------------------------------------------------
      1          6           0       -1.862607    0.079418    0.010613
      2          6           0       -0.612867   -0.372572   -0.010292
      3          6           0        0.607521    0.422090   -0.028885
      4          6           0        1.839303   -0.116462   -0.003173
      5          1           0       -2.730985   -0.555436    0.090408
      6          1           0       -2.065035    1.137543   -0.050544
      7          1           0       -0.366356   -1.416523   -0.027141
      8          1           0        0.516664    1.512075    0.056063
      9          1           0        2.045752   -1.214729    0.017210
     10          1           0        2.771861    0.462227    0.104432
 ---------------------------------------------------------------------

 SCF Done:  E(RB2PLYPD3) =  -155.696463211     A.U. after   11 cycles
 E2(B2PLYPD3) =    -0.2261686781D+00 E(B2PLYPD3) =    -0.15592263188925D+03

 The electronic state is 1-A.
 Alpha  occ. eigenvalues --  -10.63006 -10.62478 -10.62450 -10.61513  -0.92887
 Alpha  occ. eigenvalues --   -0.84741  -0.70365  -0.63991  -0.54980  -0.53248
 Alpha  occ. eigenvalues --   -0.47385  -0.44998  -0.40539  -0.38100  -0.27774
 Alpha virt. eigenvalues --    0.01494   0.06968   0.07366   0.08102   0.09567
 Alpha virt. eigenvalues --    0.11554   0.12475   0.14555   0.15724   0.16291
 Alpha virt. eigenvalues --    0.18973   0.20267   0.21921   0.22908   0.23185

 Mulliken charges:
               1
     1  C   -0.173798
     2  C   -0.029540
     3  C   -0.030932
     4  C   -0.168071
     5  H    0.088757
     6  H    0.065607
     7  H    0.055607
     8  H    0.055715
     9  H    0.056164
    10  H    0.080491
 Sum of Mulliken charges =   0.00000

 Dipole moment (field-independent basis, Debye):
    X=              0.0501    Y=              0.0006    Z=              0.1447  Tot=              0.1532
 Quadrupole moment (field-independent basis, Debye-Ang):
   XX=            -23.0442   YY=            -23.4235   ZZ=            -29.3042
   XY=             -0.3746   XZ=              0.2466   YZ=              0.0231

 1\1\GINC-NODE33\SP\RB2PLYPD3-FC\def2QZVP\C4H6\BOITTIER\26-Aug-2020\0\\
 #p B2PLYPD3/Def2QZVP\\butadiene\\0,1\C,0,-3.865819,0.203126,0.029747\C
 ,0,-2.720044,-0.470497,0.026367\C,0,-1.374768,0.086384,-0.009658\C,0,-
 0.262443,-0.667699,0.03591\H,0,-4.83569,-0.259454,0.12386\H,0,-3.87108
 1,1.278276,-0.061749\H,0,-2.668948,-1.54199,0.039665\H,0,-1.264325,1.1
 76528,0.044438\H,0,-0.260633,-1.784182,0.087786\H,0,0.760473,-0.266782
 ,0.130943\\Version=ES64L-G09RevD.01\State=1-A\HF=-155.6964632\MP2=-155
 .9226319\RMSD=4.430e-09\PG=C01 [X(C4H6)]\\@

 Normal termination of Gaussian 09 at Wed Aug 26 11:12:02 2020.
