 Gaussian 09, Revision D.01,
 Gaussian 09:  ES64L-G09RevD.01 24-Apr-2013

 --------------------
 #p B2PLYPD3/Def2QZVP
 --------------------

 ---------
 butadiene
 ---------
 Symbolic Z-matrix:
 Charge =  0 Multiplicity = 1

                         Standard orientation:
 ---------------------------------------------------------------------
 Center     Atomic      Atomic             Coordinates (Angstroms)
 Number     Number       Type             X           Y           Z
 ---------------------------------------------------------------------
      1          6           0        1.824297   -0.128095    0.019765
      2          6           0        0.614147    0.416512   -0.014552
      3          6           0       -0.599492   -0.390437   -0.029881
      4          6           0       -1.840641    0.103433    0.006989
      5          1           0        2.710314    0.504617   -0.017230
      6          1           0        1.927908   -1.197393    0.091562
      7          1           0        0.508011    1.509554   -0.065516
      8          1           0       -0.452297   -1.453875   -0.049547
      9          1           0       -1.989921    1.157735    0.118618
     10          1           0       -2.693879   -0.529111    0.028187
 ---------------------------------------------------------------------

 SCF Done:  E(RB2PLYPD3) =  -155.700524452     A.U. after   11 cycles
 E2(B2PLYPD3) =    -0.2254355682D+00 E(B2PLYPD3) =    -0.15592596001988D+03

 The electronic state is 1-A.
 Alpha  occ. eigenvalues --  -10.62504 -10.62342 -10.61401 -10.61073  -0.93070
 Alpha  occ. eigenvalues --   -0.85084  -0.70026  -0.64146  -0.54510  -0.54258
 Alpha  occ. eigenvalues --   -0.46584  -0.45818  -0.41293  -0.38104  -0.27732
 Alpha virt. eigenvalues --    0.01894   0.07051   0.07419   0.08070   0.09542
 Alpha virt. eigenvalues --    0.11758   0.12471   0.14754   0.15873   0.16092
 Alpha virt. eigenvalues --    0.18720   0.20489   0.21482   0.22951   0.24002

 Mulliken charges:
               1
     1  C   -0.177446
     2  C   -0.027553
     3  C   -0.031044
     4  C   -0.178645
     5  H    0.086484
     6  H    0.067816
     7  H    0.053415
     8  H    0.053934
     9  H    0.065676
    10  H    0.087365
 Sum of Mulliken charges =   0.00000

 Dipole moment (field-independent basis, Debye):
    X=              0.0327    Y=             -0.0075    Z=              0.0757  Tot=              0.0828
 Quadrupole moment (field-independent basis, Debye-Ang):
   XX=            -23.6429   YY=            -23.0294   ZZ=            -29.2038
   XY=             -0.0051   XZ=             -0.2310   YZ=             -0.0281

 1\1\GINC-NODE30\SP\RB2PLYPD3-FC\def2QZVP\C4H6\BOITTIER\26-Aug-2020\0\\
 #p B2PLYPD3/Def2QZVP\\butadiene\\0,1\C,0,-3.824561,0.235844,0.036167\C
 ,0,-2.730547,-0.5159,0.020352\C,0,-1.392796,0.061797,-0.01145\C,0,-0.2
 59183,-0.643687,0.042696\H,0,-4.808987,-0.230052,0.012343\H,0,-3.73634
 6,1.308035,0.079888\H,0,-2.820477,-1.611354,-0.00192\H,0,-1.348606,1.1
 33582,-0.059168\H,0,-0.299603,-1.704454,0.182116\H,0,0.692939,-0.17254
 3,0.050614\\Version=ES64L-G09RevD.01\State=1-A\HF=-155.7005245\MP2=-15
 5.92596\RMSD=2.888e-09\PG=C01 [X(C4H6)]\\@

 Normal termination of Gaussian 09 at Wed Aug 26 19:01:43 2020.
