 Gaussian 09, Revision D.01,
 Gaussian 09:  ES64L-G09RevD.01 24-Apr-2013

 --------------------
 #p B2PLYPD3/Def2QZVP
 --------------------

 ---------
 butadiene
 ---------
 Symbolic Z-matrix:
 Charge =  0 Multiplicity = 1

                         Standard orientation:
 ---------------------------------------------------------------------
 Center     Atomic      Atomic             Coordinates (Angstroms)
 Number     Number       Type             X           Y           Z
 ---------------------------------------------------------------------
      1          6           0       -1.845301   -0.115273    0.013274
      2          6           0       -0.611584    0.407168   -0.025025
      3          6           0        0.612346   -0.392075   -0.004768
      4          6           0        1.837219    0.106086    0.003051
      5          1           0       -2.751608    0.474284   -0.001819
      6          1           0       -1.975236   -1.181933    0.064208
      7          1           0       -0.480862    1.499234   -0.029638
      8          1           0        0.519273   -1.463456   -0.038195
      9          1           0        2.031257    1.162742    0.099373
     10          1           0        2.701093   -0.526304   -0.013120
 ---------------------------------------------------------------------

 SCF Done:  E(RB2PLYPD3) =  -155.700753871     A.U. after   11 cycles
 E2(B2PLYPD3) =    -0.2253946892D+00 E(B2PLYPD3) =    -0.15592614856030D+03

 The electronic state is 1-A.
 Alpha  occ. eigenvalues --  -10.62893 -10.62295 -10.61563 -10.61106  -0.92912
 Alpha  occ. eigenvalues --   -0.85102  -0.70154  -0.64103  -0.54759  -0.54038
 Alpha  occ. eigenvalues --   -0.46909  -0.45455  -0.41064  -0.38074  -0.27826
 Alpha virt. eigenvalues --    0.01831   0.07024   0.07471   0.08052   0.09605
 Alpha virt. eigenvalues --    0.11632   0.12525   0.14677   0.15887   0.16272
 Alpha virt. eigenvalues --    0.18840   0.20492   0.21770   0.22657   0.23802

 Mulliken charges:
               1
     1  C   -0.172018
     2  C   -0.036111
     3  C   -0.027604
     4  C   -0.172907
     5  H    0.087267
     6  H    0.064295
     7  H    0.054607
     8  H    0.055447
     9  H    0.063832
    10  H    0.083191
 Sum of Mulliken charges =   0.00000

 Dipole moment (field-independent basis, Debye):
    X=              0.0076    Y=             -0.0172    Z=              0.0593  Tot=              0.0622
 Quadrupole moment (field-independent basis, Debye-Ang):
   XX=            -23.2641   YY=            -23.1793   ZZ=            -29.2217
   XY=              0.0960   XZ=              0.0262   YZ=              0.0680

 1\1\GINC-NODE30\SP\RB2PLYPD3-FC\def2QZVP\C4H6\BOITTIER\26-Aug-2020\0\\
 #p B2PLYPD3/Def2QZVP\\butadiene\\0,1\C,0,-3.846831,0.225758,0.004885\C
 ,0,-2.725249,-0.506161,0.057956\C,0,-1.379016,0.062491,0.019279\C,0,-0
 .261975,-0.645124,0.025625\H,0,-4.843298,-0.193083,0.03356\H,0,-3.7856
 39,1.29694,-0.072999\H,0,-2.790319,-1.603634,0.090172\H,0,-1.280445,1.
 133882,0.025661\H,0,-0.258768,-1.721512,-0.043865\H,0,0.700429,-0.1758
 34,0.027071\\Version=ES64L-G09RevD.01\State=1-A\HF=-155.7007539\MP2=-1
 55.9261486\RMSD=4.943e-09\PG=C01 [X(C4H6)]\\@

 Normal termination of Gaussian 09 at Wed Aug 26 21:10:57 2020.
