 Gaussian 09, Revision D.01,
 Gaussian 09:  ES64L-G09RevD.01 24-Apr-2013

 --------------------
 #p B2PLYPD3/Def2QZVP
 --------------------

 ---------
 butadiene
 ---------
 Symbolic Z-matrix:
 Charge =  0 Multiplicity = 1

                         Standard orientation:
 ---------------------------------------------------------------------
 Center     Atomic      Atomic             Coordinates (Angstroms)
 Number     Number       Type             X           Y           Z
 ---------------------------------------------------------------------
      1          6           0        1.846116   -0.137540   -0.033387
      2          6           0        0.625472    0.410050    0.037869
      3          6           0       -0.636652   -0.368632    0.055058
      4          6           0       -1.889005    0.107812   -0.058061
      5          1           0        2.845768    0.449745   -0.007870
      6          1           0        2.005840   -1.216372   -0.340254
      7          1           0        0.701912    1.568623    0.191619
      8          1           0       -0.503352   -1.517305    0.380482
      9          1           0       -2.002791    1.180837   -0.128006
     10          1           0       -2.722964   -0.535668   -0.104846
 ---------------------------------------------------------------------

 SCF Done:  E(RB2PLYPD3) =  -155.672011218     A.U. after   12 cycles
 E2(B2PLYPD3) =    -0.2283281091D+00 E(B2PLYPD3) =    -0.15590033932699D+03

 The electronic state is 1-A.
 Alpha  occ. eigenvalues --  -10.64491 -10.64113 -10.63028 -10.61719  -0.92020
 Alpha  occ. eigenvalues --   -0.84842  -0.69312  -0.61816  -0.54329  -0.53052
 Alpha  occ. eigenvalues --   -0.46636  -0.44179  -0.40160  -0.36858  -0.28066
 Alpha virt. eigenvalues --    0.01398   0.06616   0.07028   0.07538   0.09058
 Alpha virt. eigenvalues --    0.11253   0.12268   0.13976   0.15214   0.16554
 Alpha virt. eigenvalues --    0.18783   0.19565   0.21149   0.22012   0.23136

 Mulliken charges:
               1
     1  C   -0.162253
     2  C   -0.038039
     3  C   -0.040963
     4  C   -0.179094
     5  H    0.074306
     6  H    0.062358
     7  H    0.053117
     8  H    0.057790
     9  H    0.073197
    10  H    0.099580
 Sum of Mulliken charges =   0.00000

 Dipole moment (field-independent basis, Debye):
    X=             -0.0146    Y=              0.0485    Z=              0.0166  Tot=              0.0533
 Quadrupole moment (field-independent basis, Debye-Ang):
   XX=            -23.1731   YY=            -23.6538   ZZ=            -29.4179
   XY=              0.2565   XZ=             -0.1442   YZ=              0.0905

 1\1\GINC-NODE22\SP\RB2PLYPD3-FC\def2QZVP\C4H6\BOITTIER\26-Aug-2020\0\\
 #p B2PLYPD3/Def2QZVP\\butadiene\\0,1\C,0,-3.856336,0.225111,-0.017835\
 C,0,-2.742336,-0.513029,0.07734\C,0,-1.369151,0.047239,0.069542\C,0,-0
 .212729,-0.632819,-0.022066\H,0,-4.938979,-0.188156,0.026356\H,0,-3.83
 7143,1.303416,-0.364892\H,0,-3.008075,-1.636697,0.273618\H,0,-1.310432
 ,1.213421,0.351837\H,0,-0.277444,-1.711774,-0.051916\H,0,0.715675,-0.1
 37661,-0.090093\\Version=ES64L-G09RevD.01\State=1-A\HF=-155.6720112\MP
 2=-155.9003393\RMSD=2.972e-09\PG=C01 [X(C4H6)]\\@

 Normal termination of Gaussian 09 at Wed Aug 26 14:14:56 2020.
