 Gaussian 09, Revision D.01,
 Gaussian 09:  ES64L-G09RevD.01 24-Apr-2013

 --------------------
 #p B2PLYPD3/Def2QZVP
 --------------------

 ---------
 butadiene
 ---------
 Symbolic Z-matrix:
 Charge =  0 Multiplicity = 1

                         Standard orientation:
 ---------------------------------------------------------------------
 Center     Atomic      Atomic             Coordinates (Angstroms)
 Number     Number       Type             X           Y           Z
 ---------------------------------------------------------------------
      1          6           0       -1.816441    0.054180    0.069455
      2          6           0       -0.590265   -0.356356   -0.096719
      3          6           0        0.599022    0.443609   -0.041442
      4          6           0        1.814387   -0.130539    0.030017
      5          1           0       -2.809972   -0.431851    0.103455
      6          1           0       -1.924239    1.106706   -0.026441
      7          1           0       -0.464394   -1.378357    0.010609
      8          1           0        0.478265    1.488148   -0.041386
      9          1           0        1.921287   -1.270888    0.013979
     10          1           0        2.758833    0.420873    0.171915
 ---------------------------------------------------------------------

 SCF Done:  E(RB2PLYPD3) =  -155.683339536     A.U. after   11 cycles
 E2(B2PLYPD3) =    -0.2259646245D+00 E(B2PLYPD3) =    -0.15590930416012D+03

 The electronic state is 1-A.
 Alpha  occ. eigenvalues --  -10.62748 -10.62528 -10.61289 -10.60903  -0.93892
 Alpha  occ. eigenvalues --   -0.85051  -0.69949  -0.65170  -0.55207  -0.53650
 Alpha  occ. eigenvalues --   -0.47571  -0.44018  -0.40678  -0.38688  -0.27823
 Alpha virt. eigenvalues --    0.01715   0.07008   0.07479   0.08174   0.09499
 Alpha virt. eigenvalues --    0.11519   0.12908   0.14180   0.15472   0.16911
 Alpha virt. eigenvalues --    0.18737   0.19359   0.22289   0.23234   0.23624

 Mulliken charges:
               1
     1  C   -0.163812
     2  C   -0.014313
     3  C   -0.044304
     4  C   -0.165063
     5  H    0.083337
     6  H    0.040627
     7  H    0.057677
     8  H    0.062916
     9  H    0.059554
    10  H    0.083381
 Sum of Mulliken charges =   0.00000

 Dipole moment (field-independent basis, Debye):
    X=             -0.0006    Y=              0.0449    Z=              0.1135  Tot=              0.1220
 Quadrupole moment (field-independent basis, Debye-Ang):
   XX=            -22.9618   YY=            -23.5940   ZZ=            -29.0740
   XY=             -0.0114   XZ=              0.2348   YZ=             -0.1193

 1\1\GINC-NODE18\SP\RB2PLYPD3-FC\def2QZVP\C4H6\BOITTIER\26-Aug-2020\0\\
 #p B2PLYPD3/Def2QZVP\\butadiene\\0,1\C,0,-3.829724,0.171077,0.08845\C,
 0,-2.699277,-0.462972,-0.052027\C,0,-1.384286,0.109558,-0.031808\C,0,-
 0.292974,-0.671393,0.073161\H,0,-4.894786,-0.124224,0.142554\H,0,-3.74
 5175,1.219588,-0.060223\H,0,-2.760457,-1.484216,0.106617\H,0,-1.313448
 ,1.157351,-0.084304\H,0,-0.394908,-1.811563,0.114412\H,0,0.736568,-0.2
 94218,0.191275\\Version=ES64L-G09RevD.01\State=1-A\HF=-155.6833395\MP2
 =-155.9093042\RMSD=8.694e-09\PG=C01 [X(C4H6)]\\@

 Normal termination of Gaussian 09 at Wed Aug 26 14:34:37 2020.
