 Gaussian 09, Revision D.01,
 Gaussian 09:  ES64L-G09RevD.01 24-Apr-2013

 --------------------
 #p B2PLYPD3/Def2QZVP
 --------------------

 ---------
 butadiene
 ---------
 Symbolic Z-matrix:
 Charge =  0 Multiplicity = 1

                         Standard orientation:
 ---------------------------------------------------------------------
 Center     Atomic      Atomic             Coordinates (Angstroms)
 Number     Number       Type             X           Y           Z
 ---------------------------------------------------------------------
      1          6           0        1.847803   -0.102647    0.001871
      2          6           0        0.600059    0.384531    0.000552
      3          6           0       -0.604702   -0.410777   -0.013883
      4          6           0       -1.839265    0.108109    0.003416
      5          1           0        2.663991    0.589579   -0.038710
      6          1           0        2.068311   -1.148398    0.074519
      7          1           0        0.434665    1.445464   -0.021491
      8          1           0       -0.462448   -1.480261   -0.013535
      9          1           0       -1.987167    1.216515    0.062129
     10          1           0       -2.740720   -0.498203   -0.014642
 ---------------------------------------------------------------------

 SCF Done:  E(RB2PLYPD3) =  -155.699625792     A.U. after   11 cycles
 E2(B2PLYPD3) =    -0.2259109693D+00 E(B2PLYPD3) =    -0.15592553676146D+03

 The electronic state is 1-A.
 Alpha  occ. eigenvalues --  -10.62453 -10.62323 -10.62097 -10.61354  -0.93069
 Alpha  occ. eigenvalues --   -0.84766  -0.70362  -0.64151  -0.54639  -0.53819
 Alpha  occ. eigenvalues --   -0.46772  -0.45664  -0.41138  -0.38141  -0.27561
 Alpha virt. eigenvalues --    0.01527   0.06983   0.07403   0.08111   0.09666
 Alpha virt. eigenvalues --    0.11686   0.12341   0.14784   0.15894   0.16039
 Alpha virt. eigenvalues --    0.18768   0.20591   0.21482   0.22728   0.23844

 Mulliken charges:
               1
     1  C   -0.182653
     2  C   -0.026079
     3  C   -0.032024
     4  C   -0.172368
     5  H    0.085650
     6  H    0.071505
     7  H    0.054377
     8  H    0.054832
     9  H    0.059324
    10  H    0.087438
 Sum of Mulliken charges =   0.00000

 Dipole moment (field-independent basis, Debye):
    X=             -0.0184    Y=             -0.0231    Z=              0.0403  Tot=              0.0499
 Quadrupole moment (field-independent basis, Debye-Ang):
   XX=            -23.4875   YY=            -23.1168   ZZ=            -29.2871
   XY=             -0.2045   XZ=             -0.0426   YZ=             -0.0530

 1\1\GINC-NODE32\SP\RB2PLYPD3-FC\def2QZVP\C4H6\BOITTIER\26-Aug-2020\0\\
 #p B2PLYPD3/Def2QZVP\\butadiene\\0,1\C,0,-3.849845,0.22244,0.020831\C,
 0,-2.712517,-0.485014,0.035111\C,0,-1.382461,0.075363,0.001957\C,0,-0.
 263848,-0.66034,0.035668\H,0,-4.779177,-0.309314,-0.002955\H,0,-3.8747
 72,1.292448,0.065079\H,0,-2.744409,-1.558494,0.04174\H,0,-1.326316,1.1
 52427,-0.026539\H,0,-0.321405,-1.775116,0.124255\H,0,0.733395,-0.23020
 1,0.003307\\Version=ES64L-G09RevD.01\State=1-A\HF=-155.6996258\MP2=-15
 5.9255368\RMSD=4.870e-09\PG=C01 [X(C4H6)]\\@

 Normal termination of Gaussian 09 at Wed Aug 26 18:54:46 2020.
