 Gaussian 09, Revision D.01,
 Gaussian 09:  ES64L-G09RevD.01 24-Apr-2013

 --------------------
 #p B2PLYPD3/Def2QZVP
 --------------------

 ---------
 butadiene
 ---------
 Symbolic Z-matrix:
 Charge =  0 Multiplicity = 1

                         Standard orientation:
 ---------------------------------------------------------------------
 Center     Atomic      Atomic             Coordinates (Angstroms)
 Number     Number       Type             X           Y           Z
 ---------------------------------------------------------------------
      1          6           0        1.861580   -0.093309   -0.003096
      2          6           0        0.602753    0.365478   -0.016720
      3          6           0       -0.624780   -0.417643   -0.043029
      4          6           0       -1.838690    0.128565    0.006359
      5          1           0        2.720831    0.550691    0.092768
      6          1           0        1.996169   -1.168752    0.046088
      7          1           0        0.426603    1.472902    0.023848
      8          1           0       -0.547379   -1.505716    0.051809
      9          1           0       -1.904536    1.242248    0.016634
     10          1           0       -2.696865   -0.489917    0.107770
 ---------------------------------------------------------------------

 SCF Done:  E(RB2PLYPD3) =  -155.696429692     A.U. after   11 cycles
 E2(B2PLYPD3) =    -0.2263015551D+00 E(B2PLYPD3) =    -0.15592273124710D+03

 The electronic state is 1-A.
 Alpha  occ. eigenvalues --  -10.63002 -10.62634 -10.61784 -10.61591  -0.92898
 Alpha  occ. eigenvalues --   -0.85039  -0.70037  -0.63367  -0.54814  -0.53639
 Alpha  occ. eigenvalues --   -0.46807  -0.45231  -0.40913  -0.38061  -0.27814
 Alpha virt. eigenvalues --    0.01605   0.07033   0.07258   0.07999   0.09639
 Alpha virt. eigenvalues --    0.11677   0.12422   0.14494   0.15732   0.16123
 Alpha virt. eigenvalues --    0.18776   0.20198   0.21368   0.22903   0.23881

 Mulliken charges:
               1
     1  C   -0.177507
     2  C   -0.023113
     3  C   -0.026219
     4  C   -0.174105
     5  H    0.092594
     6  H    0.063079
     7  H    0.040115
     8  H    0.049166
     9  H    0.063550
    10  H    0.092442
 Sum of Mulliken charges =   0.00000

 Dipole moment (field-independent basis, Debye):
    X=             -0.0759    Y=             -0.0435    Z=              0.2765  Tot=              0.2901
 Quadrupole moment (field-independent basis, Debye-Ang):
   XX=            -23.5550   YY=            -23.2204   ZZ=            -29.3215
   XY=              0.1930   XZ=             -0.0231   YZ=             -0.0916

 1\1\GINC-NODE33\SP\RB2PLYPD3-FC\def2QZVP\C4H6\BOITTIER\26-Aug-2020\0\\
 #p B2PLYPD3/Def2QZVP\\butadiene\\0,1\C,0,-3.868911,0.202153,0.023171\C
 ,0,-2.71024,-0.47075,0.02288\C,0,-1.364351,0.083759,-0.020822\C,0,-0.2
 65074,-0.665742,0.043968\H,0,-4.82762,-0.278399,0.133554\H,0,-3.812439
 ,1.285398,0.045559\H,0,-2.731163,-1.59056,0.091073\H,0,-1.249236,1.170
 515,0.046984\H,0,-0.39577,-1.773088,0.081857\H,0,0.688644,-0.205262,0.
 131429\\Version=ES64L-G09RevD.01\State=1-A\HF=-155.6964297\MP2=-155.92
 27312\RMSD=3.648e-09\PG=C01 [X(C4H6)]\\@

 Normal termination of Gaussian 09 at Wed Aug 26 09:57:56 2020.
