 Gaussian 09, Revision D.01,
 Gaussian 09:  ES64L-G09RevD.01 24-Apr-2013

 --------------------
 #p B2PLYPD3/Def2QZVP
 --------------------

 ---------
 butadiene
 ---------
 Symbolic Z-matrix:
 Charge =  0 Multiplicity = 1

                         Standard orientation:
 ---------------------------------------------------------------------
 Center     Atomic      Atomic             Coordinates (Angstroms)
 Number     Number       Type             X           Y           Z
 ---------------------------------------------------------------------
      1          6           0       -1.848460    0.117203    0.013392
      2          6           0       -0.610076   -0.401571   -0.004039
      3          6           0        0.597463    0.407076   -0.006939
      4          6           0        1.848369   -0.108125   -0.014443
      5          1           0       -2.686603   -0.567787    0.011712
      6          1           0       -2.089218    1.136128   -0.001244
      7          1           0       -0.465895   -1.482616   -0.009860
      8          1           0        0.510748    1.528785   -0.061034
      9          1           0        2.023355   -1.184389   -0.006732
     10          1           0        2.783836    0.482378    0.139327
 ---------------------------------------------------------------------

 SCF Done:  E(RB2PLYPD3) =  -155.694893201     A.U. after   11 cycles
 E2(B2PLYPD3) =    -0.2267042985D+00 E(B2PLYPD3) =    -0.15592159749941D+03

 The electronic state is 1-A.
 Alpha  occ. eigenvalues --  -10.63325 -10.62957 -10.62210 -10.61379  -0.92657
 Alpha  occ. eigenvalues --   -0.84544  -0.70247  -0.63865  -0.54249  -0.53942
 Alpha  occ. eigenvalues --   -0.46479  -0.45288  -0.41110  -0.37890  -0.27457
 Alpha virt. eigenvalues --    0.01339   0.06948   0.07374   0.07900   0.09394
 Alpha virt. eigenvalues --    0.11552   0.12459   0.14660   0.15777   0.16286
 Alpha virt. eigenvalues --    0.18824   0.20119   0.22064   0.22776   0.23397

 Mulliken charges:
               1
     1  C   -0.174253
     2  C   -0.035159
     3  C   -0.030952
     4  C   -0.169131
     5  H    0.079954
     6  H    0.076242
     7  H    0.059786
     8  H    0.055138
     9  H    0.057672
    10  H    0.080705
 Sum of Mulliken charges =   0.00000

 Dipole moment (field-independent basis, Debye):
    X=             -0.0439    Y=             -0.0088    Z=              0.0581  Tot=              0.0733
 Quadrupole moment (field-independent basis, Debye-Ang):
   XX=            -23.4002   YY=            -23.1300   ZZ=            -29.4052
   XY=             -0.3434   XZ=              0.3733   YZ=              0.0147

 1\1\GINC-NODE11\SP\RB2PLYPD3-FC\def2QZVP\C4H6\BOITTIER\26-Aug-2020\0\\
 #p B2PLYPD3/Def2QZVP\\butadiene\\0,1\C,0,-3.848021,0.231624,0.027124\C
 ,0,-2.72324,-0.501775,0.031614\C,0,-1.389886,0.075932,0.009428\C,0,-0.
 252136,-0.655896,0.02379\H,0,-4.79576,-0.291107,0.042658\H,0,-3.901481
 ,1.276274,-0.020159\H,0,-2.775979,-1.590764,0.059913\H,0,-1.273356,1.1
 92688,-0.079743\H,0,-0.2737,-1.745304,0.065612\H,0,0.77447,-0.238817,0
 .163654\\Version=ES64L-G09RevD.01\State=1-A\HF=-155.6948932\MP2=-155.9
 215975\RMSD=6.290e-09\PG=C01 [X(C4H6)]\\@

 Normal termination of Gaussian 09 at Wed Aug 26 08:45:03 2020.
