 Gaussian 09, Revision D.01,
 Gaussian 09:  ES64L-G09RevD.01 24-Apr-2013

 --------------------
 #p B2PLYPD3/Def2QZVP
 --------------------

 ---------
 butadiene
 ---------
 Symbolic Z-matrix:
 Charge =  0 Multiplicity = 1

                         Standard orientation:
 ---------------------------------------------------------------------
 Center     Atomic      Atomic             Coordinates (Angstroms)
 Number     Number       Type             X           Y           Z
 ---------------------------------------------------------------------
      1          6           0        1.856734    0.124736    0.032743
      2          6           0        0.604020   -0.424702   -0.059327
      3          6           0       -0.618453    0.385259   -0.047435
      4          6           0       -1.849831   -0.106502    0.036029
      5          1           0        2.806444   -0.483329    0.156771
      6          1           0        2.026834    1.188219   -0.009316
      7          1           0        0.495256   -1.478834   -0.064015
      8          1           0       -0.526118    1.490797    0.010174
      9          1           0       -2.065250   -1.157188    0.082473
     10          1           0       -2.691987    0.567590    0.051856
 ---------------------------------------------------------------------

 SCF Done:  E(RB2PLYPD3) =  -155.694675128     A.U. after   11 cycles
 E2(B2PLYPD3) =    -0.2266207466D+00 E(B2PLYPD3) =    -0.15592129587459D+03

 The electronic state is 1-A.
 Alpha  occ. eigenvalues --  -10.63184 -10.62857 -10.62669 -10.61266  -0.92514
 Alpha  occ. eigenvalues --   -0.84501  -0.69976  -0.64190  -0.54227  -0.53797
 Alpha  occ. eigenvalues --   -0.46541  -0.45321  -0.41230  -0.37766  -0.27475
 Alpha virt. eigenvalues --    0.01412   0.06923   0.07495   0.07913   0.09317
 Alpha virt. eigenvalues --    0.11557   0.12408   0.14539   0.15816   0.16319
 Alpha virt. eigenvalues --    0.18940   0.20120   0.21715   0.22744   0.23740

 Mulliken charges:
               1
     1  C   -0.170845
     2  C   -0.049945
     3  C   -0.023221
     4  C   -0.175058
     5  H    0.078002
     6  H    0.070379
     7  H    0.067637
     8  H    0.053169
     9  H    0.066558
    10  H    0.083324
 Sum of Mulliken charges =   0.00000

 Dipole moment (field-independent basis, Debye):
    X=             -0.0110    Y=             -0.0029    Z=              0.1288  Tot=              0.1293
 Quadrupole moment (field-independent basis, Debye-Ang):
   XX=            -23.4061   YY=            -23.0989   ZZ=            -29.4182
   XY=              0.2228   XZ=              0.1070   YZ=             -0.0723

 1\1\GINC-NODE34\SP\RB2PLYPD3-FC\def2QZVP\C4H6\BOITTIER\26-Aug-2020\0\\
 #p B2PLYPD3/Def2QZVP\\butadiene\\0,1\C,0,-3.858105,0.236789,-0.02067\C
 ,0,-2.721954,-0.522432,0.090661\C,0,-1.375629,0.058066,0.058215\C,0,-0
 .25075,-0.645776,-0.007654\H,0,-4.900643,-0.197253,-0.129293\H,0,-3.83
 7495,1.314362,-0.010189\H,0,-2.801159,-1.578599,0.126475\H,0,-1.27131,
 1.160356,-0.031959\H,0,-0.224505,-1.718896,-0.022777\H,0,0.697224,-0.1
 31862,-0.041036\\Version=ES64L-G09RevD.01\State=1-A\HF=-155.6946751\MP
 2=-155.9212959\RMSD=8.460e-09\PG=C01 [X(C4H6)]\\@

 Normal termination of Gaussian 09 at Wed Aug 26 09:28:38 2020.
