 Gaussian 09, Revision D.01,
 Gaussian 09:  ES64L-G09RevD.01 24-Apr-2013

 --------------------
 #p B2PLYPD3/Def2QZVP
 --------------------

 ---------
 butadiene
 ---------
 Symbolic Z-matrix:
 Charge =  0 Multiplicity = 1

                         Standard orientation:
 ---------------------------------------------------------------------
 Center     Atomic      Atomic             Coordinates (Angstroms)
 Number     Number       Type             X           Y           Z
 ---------------------------------------------------------------------
      1          6           0       -1.835144    0.117547    0.039080
      2          6           0       -0.590327   -0.429154   -0.077706
      3          6           0        0.592016    0.400253   -0.039693
      4          6           0        1.825351   -0.102216    0.023267
      5          1           0       -2.794125   -0.480754    0.116420
      6          1           0       -1.937274    1.192762    0.036776
      7          1           0       -0.424130   -1.486043    0.025164
      8          1           0        0.484038    1.471887   -0.038182
      9          1           0        2.030575   -1.145159    0.067441
     10          1           0        2.689537    0.528725    0.122693
 ---------------------------------------------------------------------

 SCF Done:  E(RB2PLYPD3) =  -155.695495290     A.U. after   11 cycles
 E2(B2PLYPD3) =    -0.2265625557D+00 E(B2PLYPD3) =    -0.15592205784564D+03

 The electronic state is 1-A.
 Alpha  occ. eigenvalues --  -10.62912 -10.62555 -10.62350 -10.61050  -0.93067
 Alpha  occ. eigenvalues --   -0.84389  -0.70058  -0.64639  -0.54300  -0.53886
 Alpha  occ. eigenvalues --   -0.46336  -0.45492  -0.41584  -0.38107  -0.27296
 Alpha virt. eigenvalues --    0.01444   0.07005   0.07438   0.08036   0.09220
 Alpha virt. eigenvalues --    0.11654   0.12566   0.14645   0.15626   0.16429
 Alpha virt. eigenvalues --    0.18752   0.20013   0.21794   0.23013   0.24048

 Mulliken charges:
               1
     1  C   -0.173072
     2  C   -0.039765
     3  C   -0.023177
     4  C   -0.176662
     5  H    0.081519
     6  H    0.066978
     7  H    0.065066
     8  H    0.056675
     9  H    0.062984
    10  H    0.079454
 Sum of Mulliken charges =   0.00000

 Dipole moment (field-independent basis, Debye):
    X=              0.0112    Y=              0.0120    Z=              0.2196  Tot=              0.2202
 Quadrupole moment (field-independent basis, Debye-Ang):
   XX=            -23.5394   YY=            -23.1136   ZZ=            -29.3291
   XY=             -0.2446   XZ=              0.0139   YZ=             -0.1200

 1\1\GINC-NODE31\SP\RB2PLYPD3-FC\def2QZVP\C4H6\BOITTIER\26-Aug-2020\0\\
 #p B2PLYPD3/Def2QZVP\\butadiene\\0,1\C,0,-3.833427,0.238454,0.061966\C
 ,0,-2.709965,-0.530285,-0.032717\C,0,-1.395837,0.069915,-0.021606\C,0,
 -0.274795,-0.646933,0.061751\H,0,-4.885227,-0.171429,0.15842\H,0,-3.73
 7409,1.313467,0.021336\H,0,-2.739206,-1.595456,0.107902\H,0,-1.306207,
 1.142613,-0.058309\H,0,-0.263375,-1.707601,0.1433\H,0,0.690544,-0.1814
 29,0.140593\\Version=ES64L-G09RevD.01\State=1-A\HF=-155.6954953\MP2=-1
 55.9220578\RMSD=8.755e-09\PG=C01 [X(C4H6)]\\@

 Normal termination of Gaussian 09 at Wed Aug 26 09:48:58 2020.
