 Gaussian 09, Revision D.01,
 Gaussian 09:  ES64L-G09RevD.01 24-Apr-2013

 --------------------
 #p B2PLYPD3/Def2QZVP
 --------------------

 ---------
 butadiene
 ---------
 Symbolic Z-matrix:
 Charge =  0 Multiplicity = 1

                         Standard orientation:
 ---------------------------------------------------------------------
 Center     Atomic      Atomic             Coordinates (Angstroms)
 Number     Number       Type             X           Y           Z
 ---------------------------------------------------------------------
      1          6           0        1.833076   -0.118265   -0.017330
      2          6           0        0.605081    0.419271    0.029810
      3          6           0       -0.605445   -0.394596    0.023597
      4          6           0       -1.833923    0.105827   -0.026048
      5          1           0        2.748872    0.472262   -0.029646
      6          1           0        1.924173   -1.210618   -0.034746
      7          1           0        0.502982    1.509754   -0.007775
      8          1           0       -0.470697   -1.472946    0.029461
      9          1           0       -2.024802    1.183256    0.001435
     10          1           0       -2.673264   -0.555136   -0.018896
 ---------------------------------------------------------------------

 SCF Done:  E(RB2PLYPD3) =  -155.700204222     A.U. after   11 cycles
 E2(B2PLYPD3) =    -0.2258658089D+00 E(B2PLYPD3) =    -0.15592607003051D+03

 The electronic state is 1-A.
 Alpha  occ. eigenvalues --  -10.62734 -10.62468 -10.61803 -10.61307  -0.92938
 Alpha  occ. eigenvalues --   -0.84900  -0.69787  -0.63908  -0.54486  -0.53915
 Alpha  occ. eigenvalues --   -0.46530  -0.45330  -0.41249  -0.38105  -0.27711
 Alpha virt. eigenvalues --    0.01865   0.07036   0.07329   0.08035   0.09491
 Alpha virt. eigenvalues --    0.11685   0.12430   0.14584   0.15843   0.16174
 Alpha virt. eigenvalues --    0.18736   0.20417   0.21469   0.22865   0.24003

 Mulliken charges:
               1
     1  C   -0.173529
     2  C   -0.031508
     3  C   -0.029407
     4  C   -0.175615
     5  H    0.087691
     6  H    0.060817
     7  H    0.055081
     8  H    0.053821
     9  H    0.067338
    10  H    0.085311
 Sum of Mulliken charges =   0.00000

 Dipole moment (field-independent basis, Debye):
    X=              0.0063    Y=              0.0027    Z=             -0.0157  Tot=              0.0171
 Quadrupole moment (field-independent basis, Debye-Ang):
   XX=            -23.5868   YY=            -23.0349   ZZ=            -29.3173
   XY=             -0.0098   XZ=             -0.1378   YZ=             -0.0101

 1\1\GINC-NODE02\SP\RB2PLYPD3-FC\def2QZVP\C4H6\BOITTIER\26-Aug-2020\0\\
 #p B2PLYPD3/Def2QZVP\\butadiene\\0,1\C,0,-3.834572,0.229257,-0.002317\
 C,0,-2.722222,-0.517356,0.063913\C,0,-1.385816,0.066694,0.037528\C,0,-
 0.266593,-0.646318,0.005938\H,0,-4.841141,-0.188318,-0.000096\H,0,-3.7
 29142,1.319341,-0.0517\H,0,-2.816623,-1.609165,0.058296\H,0,-1.325781,
 1.15148,0.011697\H,0,-0.271155,-1.739253,0.065235\H,0,0.67732,-0.14596
 5,-0.003708\\Version=ES64L-G09RevD.01\State=1-A\HF=-155.7002042\MP2=-1
 55.92607\RMSD=4.573e-09\PG=C01 [X(C4H6)]\\@

 Normal termination of Gaussian 09 at Wed Aug 26 16:19:46 2020.
