 Gaussian 09, Revision D.01,
 Gaussian 09:  ES64L-G09RevD.01 24-Apr-2013

 --------------------
 #p B2PLYPD3/Def2QZVP
 --------------------

 ---------
 butadiene
 ---------
 Symbolic Z-matrix:
 Charge =  0 Multiplicity = 1

                         Standard orientation:
 ---------------------------------------------------------------------
 Center     Atomic      Atomic             Coordinates (Angstroms)
 Number     Number       Type             X           Y           Z
 ---------------------------------------------------------------------
      1          6           0       -1.848161   -0.106749    0.019766
      2          6           0       -0.604146    0.384370   -0.022568
      3          6           0        0.608563   -0.404629   -0.021791
      4          6           0        1.843725    0.115909    0.002756
      5          1           0       -2.662850    0.579994    0.044464
      6          1           0       -2.056474   -1.162585    0.012739
      7          1           0       -0.465896    1.478295   -0.010772
      8          1           0        0.445988   -1.477601   -0.044502
      9          1           0        2.001086    1.179653    0.010312
     10          1           0        2.738257   -0.531163    0.118778
 ---------------------------------------------------------------------

 SCF Done:  E(RB2PLYPD3) =  -155.699490097     A.U. after   11 cycles
 E2(B2PLYPD3) =    -0.2260109176D+00 E(B2PLYPD3) =    -0.15592550101499D+03

 The electronic state is 1-A.
 Alpha  occ. eigenvalues --  -10.62636 -10.62575 -10.61928 -10.61341  -0.92963
 Alpha  occ. eigenvalues --   -0.84838  -0.70342  -0.63895  -0.54405  -0.53966
 Alpha  occ. eigenvalues --   -0.46676  -0.45804  -0.41017  -0.38102  -0.27601
 Alpha virt. eigenvalues --    0.01523   0.06966   0.07398   0.08028   0.09675
 Alpha virt. eigenvalues --    0.11700   0.12333   0.14824   0.15755   0.16073
 Alpha virt. eigenvalues --    0.18788   0.20365   0.21678   0.22758   0.23835

 Mulliken charges:
               1
     1  C   -0.182830
     2  C   -0.023192
     3  C   -0.031684
     4  C   -0.173905
     5  H    0.087812
     6  H    0.069093
     7  H    0.047251
     8  H    0.054999
     9  H    0.068482
    10  H    0.083975
 Sum of Mulliken charges =   0.00000

 Dipole moment (field-independent basis, Debye):
    X=             -0.0067    Y=              0.0000    Z=              0.0884  Tot=              0.0887
 Quadrupole moment (field-independent basis, Debye-Ang):
   XX=            -23.5827   YY=            -23.0787   ZZ=            -29.3024
   XY=              0.2438   XZ=              0.2139   YZ=             -0.0056

 1\1\GINC-NODE30\SP\RB2PLYPD3-FC\def2QZVP\C4H6\BOITTIER\26-Aug-2020\0\\
 #p B2PLYPD3/Def2QZVP\\butadiene\\0,1\C,0,-3.850736,0.22314,-0.000475\C
 ,0,-2.716066,-0.483929,0.055585\C,0,-1.380519,0.071936,0.032997\C,0,-0
 .260216,-0.664277,0.023019\H,0,-4.776456,-0.305021,-0.006159\H,0,-3.86
 4312,1.299036,-0.022791\H,0,-2.778316,-1.584703,0.074186\H,0,-1.345933
 ,1.156818,0.025887\H,0,-0.298184,-1.738728,0.045022\H,0,0.736142,-0.19
 3429,-0.110854\\Version=ES64L-G09RevD.01\State=1-A\HF=-155.6994901\MP2
 =-155.925501\RMSD=3.089e-09\PG=C01 [X(C4H6)]\\@

 Normal termination of Gaussian 09 at Wed Aug 26 14:19:49 2020.
