 Gaussian 09, Revision D.01,
 Gaussian 09:  ES64L-G09RevD.01 24-Apr-2013

 --------------------
 #p B2PLYPD3/Def2QZVP
 --------------------

 ---------
 butadiene
 ---------
 Symbolic Z-matrix:
 Charge =  0 Multiplicity = 1

                         Standard orientation:
 ---------------------------------------------------------------------
 Center     Atomic      Atomic             Coordinates (Angstroms)
 Number     Number       Type             X           Y           Z
 ---------------------------------------------------------------------
      1          6           0        1.860002    0.113748   -0.023423
      2          6           0        0.602680   -0.412321    0.031226
      3          6           0       -0.600673    0.345925    0.048253
      4          6           0       -1.862356   -0.099405   -0.045954
      5          1           0        2.836098   -0.427402   -0.033626
      6          1           0        1.972613    1.221622   -0.316369
      7          1           0        0.492875   -1.477899    0.174519
      8          1           0       -0.460698    1.362621    0.373047
      9          1           0       -2.199226   -1.025727   -0.152870
     10          1           0       -2.639581    0.659101   -0.105315
 ---------------------------------------------------------------------

 SCF Done:  E(RB2PLYPD3) =  -155.678999511     A.U. after   11 cycles
 E2(B2PLYPD3) =    -0.2270800722D+00 E(B2PLYPD3) =    -0.15590607958307D+03

 The electronic state is 1-A.
 Alpha  occ. eigenvalues --  -10.63222 -10.62892 -10.62430 -10.60905  -0.93148
 Alpha  occ. eigenvalues --   -0.84567  -0.71243  -0.64283  -0.54996  -0.53850
 Alpha  occ. eigenvalues --   -0.47274  -0.45178  -0.41182  -0.37115  -0.27424
 Alpha virt. eigenvalues --    0.00734   0.06970   0.07572   0.07795   0.09362
 Alpha virt. eigenvalues --    0.11449   0.12543   0.14572   0.15384   0.16356
 Alpha virt. eigenvalues --    0.18798   0.19726   0.21964   0.22078   0.23315

 Mulliken charges:
               1
     1  C   -0.169696
     2  C   -0.046508
     3  C   -0.030379
     4  C   -0.178509
     5  H    0.085600
     6  H    0.056104
     7  H    0.060889
     8  H    0.072351
     9  H    0.075302
    10  H    0.074846
 Sum of Mulliken charges =   0.00000

 Dipole moment (field-independent basis, Debye):
    X=             -0.0460    Y=             -0.1121    Z=             -0.0192  Tot=              0.1226
 Quadrupole moment (field-independent basis, Debye-Ang):
   XX=            -23.0784   YY=            -23.6917   ZZ=            -29.0541
   XY=              0.2835   XZ=             -0.0799   YZ=             -0.0557

 1\1\GINC-NODE03\SP\RB2PLYPD3-FC\def2QZVP\C4H6\BOITTIER\26-Aug-2020\0\\
 #p B2PLYPD3/Def2QZVP\\butadiene\\0,1\C,0,-3.859388,0.23991,0.04524\C,0
 ,-2.718607,-0.506466,-0.00099\C,0,-1.397631,0.020339,-0.028977\C,0,-0.
 237553,-0.645224,0.072417\H,0,-4.917485,-0.114799,0.06322\H,0,-3.76829
 2,1.354052,0.321413\H,0,-2.804431,-1.576283,-0.128165\H,0,-1.351454,1.
 0406,-0.36911\H,0,-0.074212,-1.615619,0.193411\H,0,0.664606,-0.039652,
 0.120641\\Version=ES64L-G09RevD.01\State=1-A\HF=-155.6789995\MP2=-155.
 9060796\RMSD=7.814e-09\PG=C01 [X(C4H6)]\\@

 Normal termination of Gaussian 09 at Wed Aug 26 12:05:53 2020.
