 Gaussian 09, Revision D.01,
 Gaussian 09:  ES64L-G09RevD.01 24-Apr-2013

 --------------------
 #p B2PLYPD3/Def2QZVP
 --------------------

 ---------
 butadiene
 ---------
 Symbolic Z-matrix:
 Charge =  0 Multiplicity = 1

                         Standard orientation:
 ---------------------------------------------------------------------
 Center     Atomic      Atomic             Coordinates (Angstroms)
 Number     Number       Type             X           Y           Z
 ---------------------------------------------------------------------
      1          6           0        1.845723    0.094711    0.020203
      2          6           0        0.587202   -0.400692   -0.015777
      3          6           0       -0.606472    0.429697   -0.028249
      4          6           0       -1.841034   -0.115406   -0.004361
      5          1           0        2.687681   -0.547963   -0.044669
      6          1           0        2.062722    1.155228    0.014513
      7          1           0        0.390179   -1.407382    0.093057
      8          1           0       -0.433920    1.496943    0.021017
      9          1           0       -1.850225   -1.227092   -0.022102
     10          1           0       -2.768953    0.480405    0.107291
 ---------------------------------------------------------------------

 SCF Done:  E(RB2PLYPD3) =  -155.693252814     A.U. after   11 cycles
 E2(B2PLYPD3) =    -0.2266309927D+00 E(B2PLYPD3) =    -0.15591988380717D+03

 The electronic state is 1-A.
 Alpha  occ. eigenvalues --  -10.62634 -10.62391 -10.62254 -10.61574  -0.92988
 Alpha  occ. eigenvalues --   -0.84381  -0.70191  -0.64756  -0.54589  -0.53406
 Alpha  occ. eigenvalues --   -0.46896  -0.45596  -0.41604  -0.37793  -0.27334
 Alpha virt. eigenvalues --    0.01364   0.07023   0.07392   0.08191   0.09193
 Alpha virt. eigenvalues --    0.11716   0.12552   0.14577   0.15616   0.16117
 Alpha virt. eigenvalues --    0.18486   0.19989   0.21843   0.23105   0.24275

 Mulliken charges:
               1
     1  C   -0.180820
     2  C   -0.036022
     3  C   -0.027172
     4  C   -0.177335
     5  H    0.084423
     6  H    0.066153
     7  H    0.063799
     8  H    0.055713
     9  H    0.059538
    10  H    0.091722
 Sum of Mulliken charges =   0.00000

 Dipole moment (field-independent basis, Debye):
    X=              0.0155    Y=              0.0321    Z=              0.1270  Tot=              0.1319
 Quadrupole moment (field-independent basis, Debye-Ang):
   XX=            -23.5970   YY=            -23.1598   ZZ=            -29.3538
   XY=              0.1166   XZ=             -0.4033   YZ=              0.0660

 1\1\GINC-NODE06\SP\RB2PLYPD3-FC\def2QZVP\C4H6\BOITTIER\26-Aug-2020\0\\
 #p B2PLYPD3/Def2QZVP\\butadiene\\0,1\C,0,-3.850981,0.216458,0.000291\C
 ,0,-2.704782,-0.500746,0.049696\C,0,-1.378733,0.095882,0.036012\C,0,-0
 .265616,-0.667493,0.02709\H,0,-4.796297,-0.258185,0.085283\H,0,-3.8692
 64,1.298501,-0.025512\H,0,-2.696917,-1.529242,-0.029188\H,0,-1.352452,
 1.174755,-0.044972\H,0,-0.460847,-1.760896,0.078071\H,0,0.755271,-0.25
 6073,-0.103354\\Version=ES64L-G09RevD.01\State=1-A\HF=-155.6932528\MP2
 =-155.9198838\RMSD=5.105e-09\PG=C01 [X(C4H6)]\\@

 Normal termination of Gaussian 09 at Wed Aug 26 08:56:27 2020.
