 Gaussian 09, Revision D.01,
 Gaussian 09:  ES64L-G09RevD.01 24-Apr-2013

 --------------------
 #p B2PLYPD3/Def2QZVP
 --------------------

 ---------
 butadiene
 ---------
 Symbolic Z-matrix:
 Charge =  0 Multiplicity = 1

                         Standard orientation:
 ---------------------------------------------------------------------
 Center     Atomic      Atomic             Coordinates (Angstroms)
 Number     Number       Type             X           Y           Z
 ---------------------------------------------------------------------
      1          6           0       -1.845159   -0.126754    0.045619
      2          6           0       -0.612855    0.414882   -0.041128
      3          6           0        0.609790   -0.372910   -0.021805
      4          6           0        1.869588    0.088834    0.021891
      5          1           0       -2.786727    0.444483    0.051439
      6          1           0       -1.978003   -1.170276   -0.069029
      7          1           0       -0.536506    1.526544   -0.027185
      8          1           0        0.411665   -1.416159   -0.053998
      9          1           0        2.039495    1.161939   -0.012285
     10          1           0        2.721885   -0.570840    0.083597
 ---------------------------------------------------------------------

 SCF Done:  E(RB2PLYPD3) =  -155.696489531     A.U. after   11 cycles
 E2(B2PLYPD3) =    -0.2263524486D+00 E(B2PLYPD3) =    -0.15592284197947D+03

 The electronic state is 1-A.
 Alpha  occ. eigenvalues --  -10.63191 -10.62544 -10.61807 -10.61789  -0.92799
 Alpha  occ. eigenvalues --   -0.84730  -0.70465  -0.64119  -0.54687  -0.53633
 Alpha  occ. eigenvalues --   -0.46927  -0.45547  -0.41103  -0.37895  -0.27593
 Alpha virt. eigenvalues --    0.01298   0.06972   0.07495   0.08021   0.09522
 Alpha virt. eigenvalues --    0.11609   0.12513   0.14605   0.15824   0.16272
 Alpha virt. eigenvalues --    0.18930   0.20120   0.21756   0.23016   0.23583

 Mulliken charges:
               1
     1  C   -0.169168
     2  C   -0.029894
     3  C   -0.031104
     4  C   -0.178721
     5  H    0.080736
     6  H    0.062342
     7  H    0.050237
     8  H    0.055722
     9  H    0.068093
    10  H    0.091757
 Sum of Mulliken charges =   0.00000

 Dipole moment (field-independent basis, Debye):
    X=             -0.0535    Y=             -0.0364    Z=             -0.0740  Tot=              0.0983
 Quadrupole moment (field-independent basis, Debye-Ang):
   XX=            -23.1640   YY=            -23.3305   ZZ=            -29.3364
   XY=              0.1203   XZ=              0.1987   YZ=              0.0776

 1\1\GINC-NODE02\SP\RB2PLYPD3-FC\def2QZVP\C4H6\BOITTIER\26-Aug-2020\0\\
 #p B2PLYPD3/Def2QZVP\\butadiene\\0,1\C,0,-3.847809,0.237333,-0.023548\
 C,0,-2.731156,-0.512551,0.077582\C,0,-1.387946,0.044236,0.037269\C,0,-
 0.230641,-0.635373,0.005874\H,0,-4.876016,-0.157125,-0.01414\H,0,-3.79
 2297,1.290477,0.063267\H,0,-2.853909,-1.620026,0.093252\H,0,-1.397112,
 1.10657,0.041666\H,0,-0.25424,-1.720314,0.068618\H,0,0.725136,-0.13979
 9,-0.07339\\Version=ES64L-G09RevD.01\State=1-A\HF=-155.6964895\MP2=-15
 5.922842\RMSD=5.311e-09\PG=C01 [X(C4H6)]\\@

 Normal termination of Gaussian 09 at Wed Aug 26 09:58:16 2020.
