 Gaussian 09, Revision D.01,
 Gaussian 09:  ES64L-G09RevD.01 24-Apr-2013

 --------------------
 #p B2PLYPD3/Def2QZVP
 --------------------

 ---------
 butadiene
 ---------
 Symbolic Z-matrix:
 Charge =  0 Multiplicity = 1

                         Standard orientation:
 ---------------------------------------------------------------------
 Center     Atomic      Atomic             Coordinates (Angstroms)
 Number     Number       Type             X           Y           Z
 ---------------------------------------------------------------------
      1          6           0        1.858629    0.124613    0.001730
      2          6           0        0.608759   -0.461154   -0.054797
      3          6           0       -0.590349    0.365253   -0.069497
      4          6           0       -1.837354   -0.069835    0.062749
      5          1           0        2.810286   -0.467871    0.334765
      6          1           0        1.838098    1.264872    0.024903
      7          1           0        0.302733   -1.449331   -0.106444
      8          1           0       -0.407759    1.447888   -0.027215
      9          1           0       -2.126639   -1.172600    0.026133
     10          1           0       -2.654824    0.623778    0.106750
 ---------------------------------------------------------------------

 SCF Done:  E(RB2PLYPD3) =  -155.676020590     A.U. after   12 cycles
 E2(B2PLYPD3) =    -0.2284193305D+00 E(B2PLYPD3) =    -0.15590443992095D+03

 The electronic state is 1-A.
 Alpha  occ. eigenvalues --  -10.64070 -10.63117 -10.62489 -10.62001  -0.92991
 Alpha  occ. eigenvalues --   -0.84008  -0.69903  -0.64194  -0.54026  -0.52382
 Alpha  occ. eigenvalues --   -0.47040  -0.44820  -0.40690  -0.37878  -0.27422
 Alpha virt. eigenvalues --    0.00960   0.06806   0.07153   0.08062   0.09089
 Alpha virt. eigenvalues --    0.11639   0.12286   0.14353   0.15325   0.16060
 Alpha virt. eigenvalues --    0.18538   0.19572   0.21636   0.22691   0.24113

 Mulliken charges:
               1
     1  C   -0.160670
     2  C   -0.044943
     3  C   -0.010293
     4  C   -0.180562
     5  H    0.084806
     6  H    0.062335
     7  H    0.064994
     8  H    0.043289
     9  H    0.055019
    10  H    0.086025
 Sum of Mulliken charges =   0.00000

 Dipole moment (field-independent basis, Debye):
    X=             -0.1365    Y=             -0.0216    Z=              0.2428  Tot=              0.2794
 Quadrupole moment (field-independent basis, Debye-Ang):
   XX=            -23.9727   YY=            -23.3416   ZZ=            -29.4457
   XY=              0.2548   XZ=              0.7410   YZ=              0.0005

 1\1\GINC-NODE31\SP\RB2PLYPD3-FC\def2QZVP\C4H6\BOITTIER\26-Aug-2020\0\\
 #p B2PLYPD3/Def2QZVP\\butadiene\\0,1\C,0,-3.848662,0.25885,-0.004105\C
 ,0,-2.731054,-0.548073,0.087108\C,0,-1.398074,0.038514,0.076793\C,0,-0
 .254967,-0.628086,-0.026948\H,0,-4.894638,-0.158238,-0.319656\H,0,-3.6
 14338,1.372949,-0.074995\H,0,-2.616071,-1.572989,0.182702\H,0,-1.37407
 8,1.133362,-0.012413\H,0,-0.177948,-1.76295,0.058308\H,0,0.678229,-0.1
 02712,-0.093423\\Version=ES64L-G09RevD.01\State=1-A\HF=-155.6760206\MP
 2=-155.9044399\RMSD=5.248e-09\PG=C01 [X(C4H6)]\\@

 Normal termination of Gaussian 09 at Wed Aug 26 12:46:02 2020.
