 Gaussian 09, Revision D.01,
 Gaussian 09:  ES64L-G09RevD.01 24-Apr-2013

 --------------------
 #p B2PLYPD3/Def2QZVP
 --------------------

 ---------
 butadiene
 ---------
 Symbolic Z-matrix:
 Charge =  0 Multiplicity = 1

                         Standard orientation:
 ---------------------------------------------------------------------
 Center     Atomic      Atomic             Coordinates (Angstroms)
 Number     Number       Type             X           Y           Z
 ---------------------------------------------------------------------
      1          6           0       -1.830237    0.095295    0.047776
      2          6           0       -0.615305   -0.332805   -0.048222
      3          6           0        0.602240    0.429535   -0.081401
      4          6           0        1.837644   -0.149338    0.051340
      5          1           0       -2.614124   -0.698490   -0.072631
      6          1           0       -1.990954    1.157406    0.356600
      7          1           0       -0.497439   -1.466990   -0.193691
      8          1           0        0.503126    1.549100   -0.205571
      9          1           0        1.889433   -1.250893    0.253625
     10          1           0        2.743907    0.453746    0.044706
 ---------------------------------------------------------------------

 SCF Done:  E(RB2PLYPD3) =  -155.682881746     A.U. after   11 cycles
 E2(B2PLYPD3) =    -0.2272940214D+00 E(B2PLYPD3) =    -0.15591017576704D+03

 The electronic state is 1-A.
 Alpha  occ. eigenvalues --  -10.63498 -10.62734 -10.62151 -10.61510  -0.93208
 Alpha  occ. eigenvalues --   -0.84889  -0.69645  -0.62258  -0.53979  -0.53514
 Alpha  occ. eigenvalues --   -0.46179  -0.45125  -0.40356  -0.38101  -0.27743
 Alpha virt. eigenvalues --    0.01433   0.06839   0.07137   0.07633   0.09700
 Alpha virt. eigenvalues --    0.11642   0.11953   0.14756   0.15720   0.15796
 Alpha virt. eigenvalues --    0.18674   0.19845   0.20409   0.21920   0.24218

 Mulliken charges:
               1
     1  C   -0.186474
     2  C    0.006435
     3  C   -0.054827
     4  C   -0.172950
     5  H    0.087054
     6  H    0.071702
     7  H    0.035163
     8  H    0.052784
     9  H    0.068231
    10  H    0.092881
 Sum of Mulliken charges =   0.00000

 Dipole moment (field-independent basis, Debye):
    X=              0.0873    Y=              0.0081    Z=              0.1203  Tot=              0.1488
 Quadrupole moment (field-independent basis, Debye-Ang):
   XX=            -24.2149   YY=            -23.1710   ZZ=            -29.2299
   XY=              0.2890   XZ=              0.1216   YZ=              0.1469

 1\1\GINC-NODE36\SP\RB2PLYPD3-FC\def2QZVP\C4H6\BOITTIER\26-Aug-2020\0\\
 #p B2PLYPD3/Def2QZVP\\butadiene\\0,1\C,0,-3.837941,0.194968,0.067941\C
 ,0,-2.716355,-0.440697,-0.012815\C,0,-1.384815,0.096774,-0.065778\C,0,
 -0.268626,-0.684151,0.086583\H,0,-4.748378,-0.453441,-0.030759\H,0,-3.
 810419,1.277434,0.345055\H,0,-2.798128,-1.581855,-0.124618\H,0,-1.2879
 31,1.21237,-0.223027\H,0,-0.408743,-1.771492,0.321281\H,0,0.728747,-0.
 248476,0.064167\\Version=ES64L-G09RevD.01\State=1-A\HF=-155.6828817\MP
 2=-155.9101758\RMSD=9.709e-09\PG=C01 [X(C4H6)]\\@

 Normal termination of Gaussian 09 at Wed Aug 26 11:53:43 2020.
