 Gaussian 09, Revision D.01,
 Gaussian 09:  ES64L-G09RevD.01 24-Apr-2013

 --------------------
 #p B2PLYPD3/Def2QZVP
 --------------------

 ---------
 butadiene
 ---------
 Symbolic Z-matrix:
 Charge =  0 Multiplicity = 1

                         Standard orientation:
 ---------------------------------------------------------------------
 Center     Atomic      Atomic             Coordinates (Angstroms)
 Number     Number       Type             X           Y           Z
 ---------------------------------------------------------------------
      1          6           0       -1.885306    0.094443    0.040075
      2          6           0       -0.641181   -0.370249   -0.083293
      3          6           0        0.613546    0.393342   -0.088018
      4          6           0        1.858521   -0.128825    0.054137
      5          1           0       -2.681493   -0.528932    0.238142
      6          1           0       -1.941729    1.172719    0.152875
      7          1           0       -0.409297   -1.350959   -0.071816
      8          1           0        0.636452    1.492948   -0.174223
      9          1           0        1.968096   -1.228378    0.006036
     10          1           0        2.754488    0.510333    0.311581
 ---------------------------------------------------------------------

 SCF Done:  E(RB2PLYPD3) =  -155.681673879     A.U. after   11 cycles
 E2(B2PLYPD3) =    -0.2266229355D+00 E(B2PLYPD3) =    -0.15590829681433D+03

 The electronic state is 1-A.
 Alpha  occ. eigenvalues --  -10.63139 -10.62742 -10.62110 -10.61221  -0.92873
 Alpha  occ. eigenvalues --   -0.85015  -0.70566  -0.64234  -0.55270  -0.53488
 Alpha  occ. eigenvalues --   -0.46974  -0.45580  -0.41265  -0.37447  -0.27666
 Alpha virt. eigenvalues --    0.01224   0.06899   0.07656   0.08001   0.09452
 Alpha virt. eigenvalues --    0.11600   0.12591   0.14269   0.15685   0.16188
 Alpha virt. eigenvalues --    0.18778   0.20352   0.21044   0.22930   0.23532

 Mulliken charges:
               1
     1  C   -0.168356
     2  C   -0.040412
     3  C   -0.025467
     4  C   -0.183477
     5  H    0.093325
     6  H    0.067432
     7  H    0.060695
     8  H    0.048518
     9  H    0.059084
    10  H    0.088659
 Sum of Mulliken charges =   0.00000

 Dipole moment (field-independent basis, Debye):
    X=              0.0552    Y=             -0.0514    Z=              0.3235  Tot=              0.3322
 Quadrupole moment (field-independent basis, Debye-Ang):
   XX=            -23.6427   YY=            -23.3936   ZZ=            -29.1311
   XY=              0.3566   XZ=             -0.1619   YZ=              0.1070

 1\1\GINC-NODE27\SP\RB2PLYPD3-FC\def2QZVP\C4H6\BOITTIER\26-Aug-2020\0\\
 #p B2PLYPD3/Def2QZVP\\butadiene\\0,1\C,0,-3.886812,0.202983,0.069314\C
 ,0,-2.741177,-0.471443,-0.038741\C,0,-1.374337,0.065567,-0.067055\C,0,
 -0.236378,-0.65731,0.092097\H,0,-4.776926,-0.268404,0.286643\H,0,-3.75
 7339,1.277991,0.147931\H,0,-2.680467,-1.476528,0.003849\H,0,-1.164046,
 1.141784,-0.187983\H,0,-0.316803,-1.760348,0.078844\H,0,0.75701,-0.173
 233,0.329597\\Version=ES64L-G09RevD.01\State=1-A\HF=-155.6816739\MP2=-
 155.9082968\RMSD=5.832e-09\PG=C01 [X(C4H6)]\\@

 Normal termination of Gaussian 09 at Wed Aug 26 12:19:52 2020.
