 Gaussian 09, Revision D.01,
 Gaussian 09:  ES64L-G09RevD.01 24-Apr-2013

 --------------------
 #p B2PLYPD3/Def2QZVP
 --------------------

 ---------
 butadiene
 ---------
 Symbolic Z-matrix:
 Charge =  0 Multiplicity = 1

                         Standard orientation:
 ---------------------------------------------------------------------
 Center     Atomic      Atomic             Coordinates (Angstroms)
 Number     Number       Type             X           Y           Z
 ---------------------------------------------------------------------
      1          6           0        1.835584   -0.113161    0.010605
      2          6           0        0.605482    0.404732   -0.003552
      3          6           0       -0.605477   -0.387345   -0.007756
      4          6           0       -1.850069    0.102350   -0.000975
      5          1           0        2.749021    0.481934    0.000228
      6          1           0        1.976411   -1.181975    0.030507
      7          1           0        0.525129    1.482406   -0.073819
      8          1           0       -0.452786   -1.469655   -0.035133
      9          1           0       -1.999118    1.163250    0.081996
     10          1           0       -2.711780   -0.515422    0.006286
 ---------------------------------------------------------------------

 SCF Done:  E(RB2PLYPD3) =  -155.700584840     A.U. after   11 cycles
 E2(B2PLYPD3) =    -0.2256463106D+00 E(B2PLYPD3) =    -0.15592623115031D+03

 The electronic state is 1-A.
 Alpha  occ. eigenvalues --  -10.62653 -10.62467 -10.61582 -10.61256  -0.93061
 Alpha  occ. eigenvalues --   -0.84995  -0.70383  -0.64111  -0.54861  -0.54028
 Alpha  occ. eigenvalues --   -0.46909  -0.45410  -0.41225  -0.38167  -0.27671
 Alpha virt. eigenvalues --    0.01617   0.07035   0.07482   0.08042   0.09664
 Alpha virt. eigenvalues --    0.11640   0.12585   0.14646   0.15858   0.16273
 Alpha virt. eigenvalues --    0.18828   0.20484   0.21724   0.22830   0.23670

 Mulliken charges:
               1
     1  C   -0.173056
     2  C   -0.027447
     3  C   -0.030595
     4  C   -0.176549
     5  H    0.084996
     6  H    0.061105
     7  H    0.054982
     8  H    0.051372
     9  H    0.065490
    10  H    0.089701
 Sum of Mulliken charges =   0.00000

 Dipole moment (field-independent basis, Debye):
    X=              0.0317    Y=             -0.0007    Z=              0.0067  Tot=              0.0324
 Quadrupole moment (field-independent basis, Debye-Ang):
   XX=            -23.2327   YY=            -23.2439   ZZ=            -29.2330
   XY=             -0.0359   XZ=             -0.1601   YZ=              0.0102

 1\1\GINC-NODE27\SP\RB2PLYPD3-FC\def2QZVP\C4H6\BOITTIER\26-Aug-2020\0\\
 #p B2PLYPD3/Def2QZVP\\butadiene\\0,1\C,0,-3.839444,0.225091,0.026164\C
 ,0,-2.721599,-0.504267,0.030971\C,0,-1.388696,0.058441,0.00742\C,0,-0.
 251514,-0.645158,0.032378\H,0,-4.84447,-0.197425,0.030316\H,0,-3.78714
 8,1.301993,0.014412\H,0,-2.835087,-1.580562,-0.007551\H,0,-1.345765,1.
 14935,-0.052021\H,0,-0.294087,-1.712732,0.146752\H,0,0.706659,-0.19119
 6,0.024287\\Version=ES64L-G09RevD.01\State=1-A\HF=-155.7005848\MP2=-15
 5.9262312\RMSD=2.950e-09\PG=C01 [X(C4H6)]\\@

 Normal termination of Gaussian 09 at Wed Aug 26 21:27:33 2020.
