 Gaussian 09, Revision D.01,
 Gaussian 09:  ES64L-G09RevD.01 24-Apr-2013

 --------------------
 #p B2PLYPD3/Def2QZVP
 --------------------

 ---------
 butadiene
 ---------
 Symbolic Z-matrix:
 Charge =  0 Multiplicity = 1

                         Standard orientation:
 ---------------------------------------------------------------------
 Center     Atomic      Atomic             Coordinates (Angstroms)
 Number     Number       Type             X           Y           Z
 ---------------------------------------------------------------------
      1          6           0       -1.837950    0.094165    0.020591
      2          6           0       -0.592871   -0.383147   -0.037080
      3          6           0        0.600252    0.416797    0.001811
      4          6           0        1.816023   -0.129466   -0.007892
      5          1           0       -2.673561   -0.542570   -0.042843
      6          1           0       -2.031301    1.167535    0.100089
      7          1           0       -0.471622   -1.425631   -0.018932
      8          1           0        0.582378    1.523915   -0.051610
      9          1           0        1.970638   -1.188923    0.160231
     10          1           0        2.710740    0.475576   -0.011518
 ---------------------------------------------------------------------

 SCF Done:  E(RB2PLYPD3) =  -155.696879242     A.U. after   11 cycles
 E2(B2PLYPD3) =    -0.2256102328D+00 E(B2PLYPD3) =    -0.15592248947498D+03

 The electronic state is 1-A.
 Alpha  occ. eigenvalues --  -10.62579 -10.62014 -10.61342 -10.61177  -0.93329
 Alpha  occ. eigenvalues --   -0.85064  -0.70293  -0.64219  -0.54861  -0.54304
 Alpha  occ. eigenvalues --   -0.46323  -0.45375  -0.41655  -0.38258  -0.27545
 Alpha virt. eigenvalues --    0.01658   0.07072   0.07487   0.07986   0.09575
 Alpha virt. eigenvalues --    0.11687   0.12450   0.14811   0.15790   0.16511
 Alpha virt. eigenvalues --    0.18773   0.20055   0.21953   0.22663   0.23894

 Mulliken charges:
               1
     1  C   -0.175262
     2  C   -0.036280
     3  C   -0.027601
     4  C   -0.170920
     5  H    0.086616
     6  H    0.064813
     7  H    0.062665
     8  H    0.055381
     9  H    0.062726
    10  H    0.077862
 Sum of Mulliken charges =   0.00000

 Dipole moment (field-independent basis, Debye):
    X=              0.0309    Y=             -0.0169    Z=              0.1067  Tot=              0.1124
 Quadrupole moment (field-independent basis, Debye-Ang):
   XX=            -23.5088   YY=            -23.0801   ZZ=            -29.1522
   XY=              0.0533   XZ=              0.1688   YZ=             -0.1104

 1\1\GINC-NODE19\SP\RB2PLYPD3-FC\def2QZVP\C4H6\BOITTIER\26-Aug-2020\0\\
 #p B2PLYPD3/Def2QZVP\\butadiene\\0,1\C,0,-3.841774,0.207837,0.037782\C
 ,0,-2.702535,-0.486648,0.003159\C,0,-1.385302,0.087584,0.01415\C,0,-0.
 287058,-0.667532,0.030098\H,0,-4.778145,-0.270956,-0.003047\H,0,-3.839
 467,1.300775,0.073979\H,0,-2.769865,-1.53244,0.06307\H,0,-1.204833,1.1
 77001,-0.083235\H,0,-0.324015,-1.73004,0.240648\H,0,0.701526,-0.233138
 ,0.005371\\Version=ES64L-G09RevD.01\State=1-A\HF=-155.6968792\MP2=-155
 .9224895\RMSD=3.384e-09\PG=C01 [X(C4H6)]\\@

 Normal termination of Gaussian 09 at Wed Aug 26 09:02:11 2020.
