 Gaussian 09, Revision D.01,
 Gaussian 09:  ES64L-G09RevD.01 24-Apr-2013

 --------------------
 #p B2PLYPD3/Def2QZVP
 --------------------

 ---------
 butadiene
 ---------
 Symbolic Z-matrix:
 Charge =  0 Multiplicity = 1

                         Standard orientation:
 ---------------------------------------------------------------------
 Center     Atomic      Atomic             Coordinates (Angstroms)
 Number     Number       Type             X           Y           Z
 ---------------------------------------------------------------------
      1          6           0       -1.835022    0.070536   -0.044041
      2          6           0       -0.575103   -0.381405    0.041584
      3          6           0        0.618702    0.487040    0.069365
      4          6           0        1.817506   -0.155339   -0.079963
      5          1           0       -2.714577   -0.523142   -0.112138
      6          1           0       -1.960616    1.214186   -0.026502
      7          1           0       -0.496144   -1.451722    0.049843
      8          1           0        0.501466    1.489462    0.146589
      9          1           0        1.799522   -1.265185    0.205383
     10          1           0        2.713853    0.411409   -0.184848
 ---------------------------------------------------------------------

 SCF Done:  E(RB2PLYPD3) =  -155.678353659     A.U. after   12 cycles
 E2(B2PLYPD3) =    -0.2274781782D+00 E(B2PLYPD3) =    -0.15590583183667D+03

 The electronic state is 1-A.
 Alpha  occ. eigenvalues --  -10.62853 -10.62551 -10.62485 -10.61684  -0.92743
 Alpha  occ. eigenvalues --   -0.84349  -0.69402  -0.64948  -0.54781  -0.53472
 Alpha  occ. eigenvalues --   -0.46658  -0.44584  -0.41778  -0.37326  -0.27205
 Alpha virt. eigenvalues --    0.01490   0.06963   0.07273   0.08137   0.08687
 Alpha virt. eigenvalues --    0.11627   0.12603   0.14141   0.15938   0.16386
 Alpha virt. eigenvalues --    0.18529   0.19873   0.20866   0.23061   0.24808

 Mulliken charges:
               1
     1  C   -0.180232
     2  C   -0.020380
     3  C   -0.053040
     4  C   -0.169562
     5  H    0.090932
     6  H    0.043714
     7  H    0.055440
     8  H    0.077035
     9  H    0.073087
    10  H    0.083007
 Sum of Mulliken charges =   0.00000

 Dipole moment (field-independent basis, Debye):
    X=              0.0817    Y=              0.0524    Z=              0.1513  Tot=              0.1797
 Quadrupole moment (field-independent basis, Debye-Ang):
   XX=            -24.0340   YY=            -23.0263   ZZ=            -29.3527
   XY=              0.5152   XZ=              0.2250   YZ=             -0.2065

 1\1\GINC-NODE18\SP\RB2PLYPD3-FC\def2QZVP\C4H6\BOITTIER\26-Aug-2020\0\\
 #p B2PLYPD3/Def2QZVP\\butadiene\\0,1\C,0,-3.84947,0.177117,-0.027548\C
 ,0,-2.689586,-0.488269,0.076895\C,0,-1.360667,0.155207,0.084171\C,0,-0
 .294928,-0.693701,-0.040866\H,0,-4.820431,-0.252988,-0.081881\H,0,-3.7
 70242,1.324922,-0.044397\H,0,-2.801679,-1.554897,0.117158\H,0,-1.29820
 2,1.164387,0.131195\H,0,-0.509171,-1.773746,0.277107\H,0,0.687617,-0.2
 98235,-0.158568\\Version=ES64L-G09RevD.01\State=1-A\HF=-155.6783537\MP
 2=-155.9058318\RMSD=2.988e-09\PG=C01 [X(C4H6)]\\@

 Normal termination of Gaussian 09 at Wed Aug 26 13:02:58 2020.
