 Gaussian 09, Revision D.01,
 Gaussian 09:  ES64L-G09RevD.01 24-Apr-2013

 --------------------
 #p B2PLYPD3/Def2QZVP
 --------------------

 ---------
 butadiene
 ---------
 Symbolic Z-matrix:
 Charge =  0 Multiplicity = 1

                         Standard orientation:
 ---------------------------------------------------------------------
 Center     Atomic      Atomic             Coordinates (Angstroms)
 Number     Number       Type             X           Y           Z
 ---------------------------------------------------------------------
      1          6           0       -1.850547    0.103112   -0.010537
      2          6           0       -0.609263   -0.381714    0.006265
      3          6           0        0.625322    0.424242    0.004292
      4          6           0        1.846192   -0.133460   -0.037040
      5          1           0       -2.759432   -0.536283   -0.002524
      6          1           0       -2.012424    1.156297   -0.055403
      7          1           0       -0.510558   -1.451104    0.146580
      8          1           0        0.539119    1.514954    0.072808
      9          1           0        1.942030   -1.258368   -0.065335
     10          1           0        2.731051    0.501427    0.125999
 ---------------------------------------------------------------------

 SCF Done:  E(RB2PLYPD3) =  -155.695371503     A.U. after   11 cycles
 E2(B2PLYPD3) =    -0.2264183006D+00 E(B2PLYPD3) =    -0.15592178980346D+03

 The electronic state is 1-A.
 Alpha  occ. eigenvalues --  -10.63078 -10.62632 -10.62372 -10.61583  -0.92591
 Alpha  occ. eigenvalues --   -0.84824  -0.69372  -0.63819  -0.54231  -0.53558
 Alpha  occ. eigenvalues --   -0.46420  -0.45199  -0.41095  -0.37705  -0.27851
 Alpha virt. eigenvalues --    0.01731   0.06979   0.07356   0.07852   0.09388
 Alpha virt. eigenvalues --    0.11649   0.12344   0.14384   0.15640   0.16229
 Alpha virt. eigenvalues --    0.18818   0.19806   0.21502   0.22785   0.23925

 Mulliken charges:
               1
     1  C   -0.175374
     2  C   -0.026938
     3  C   -0.044345
     4  C   -0.167533
     5  H    0.083729
     6  H    0.064552
     7  H    0.057566
     8  H    0.057553
     9  H    0.064649
    10  H    0.086140
 Sum of Mulliken charges =   0.00000

 Dipole moment (field-independent basis, Debye):
    X=             -0.0221    Y=              0.0375    Z=              0.2086  Tot=              0.2131
 Quadrupole moment (field-independent basis, Debye-Ang):
   XX=            -23.6404   YY=            -23.1029   ZZ=            -29.3790
   XY=              0.0838   XZ=              0.3575   YZ=              0.0158

 1\1\GINC-NODE38\SP\RB2PLYPD3-FC\def2QZVP\C4H6\BOITTIER\26-Aug-2020\0\\
 #p B2PLYPD3/Def2QZVP\\butadiene\\0,1\C,0,-3.858972,0.204681,0.008023\C
 ,0,-2.719968,-0.486316,0.044321\C,0,-1.364822,0.094164,0.024544\C,0,-0
 .258538,-0.666761,0.004746\H,0,-4.864557,-0.267819,0.03047\H,0,-3.8366
 98,1.268235,-0.067956\H,0,-2.807203,-1.552139,0.215896\H,0,-1.261463,1
 .184923,0.06115\H,0,-0.358282,-1.791676,0.009374\H,0,0.72271,-0.189558
 ,0.153302\\Version=ES64L-G09RevD.01\State=1-A\HF=-155.6953715\MP2=-155
 .9217898\RMSD=6.077e-09\PG=C01 [X(C4H6)]\\@

 Normal termination of Gaussian 09 at Wed Aug 26 09:16:09 2020.
