 Gaussian 09, Revision D.01,
 Gaussian 09:  ES64L-G09RevD.01 24-Apr-2013

 --------------------
 #p B2PLYPD3/Def2QZVP
 --------------------

 ---------
 butadiene
 ---------
 Symbolic Z-matrix:
 Charge =  0 Multiplicity = 1

                         Standard orientation:
 ---------------------------------------------------------------------
 Center     Atomic      Atomic             Coordinates (Angstroms)
 Number     Number       Type             X           Y           Z
 ---------------------------------------------------------------------
      1          6           0       -1.819254   -0.106308   -0.015702
      2          6           0       -0.595995    0.436947    0.011557
      3          6           0        0.595880   -0.410365    0.049157
      4          6           0        1.839112    0.099433   -0.030171
      5          1           0       -2.808412    0.428466   -0.031101
      6          1           0       -1.958092   -1.205275    0.014961
      7          1           0       -0.495240    1.490237   -0.007152
      8          1           0        0.415822   -1.465625   -0.069211
      9          1           0        2.051811    1.175724    0.023972
     10          1           0        2.675651   -0.541762   -0.020516
 ---------------------------------------------------------------------

 SCF Done:  E(RB2PLYPD3) =  -155.694817782     A.U. after   11 cycles
 E2(B2PLYPD3) =    -0.2263432425D+00 E(B2PLYPD3) =    -0.15592116102437D+03

 The electronic state is 1-A.
 Alpha  occ. eigenvalues --  -10.62775 -10.62485 -10.62210 -10.61518  -0.92885
 Alpha  occ. eigenvalues --   -0.84510  -0.69775  -0.64619  -0.54648  -0.53496
 Alpha  occ. eigenvalues --   -0.46768  -0.45011  -0.41221  -0.37975  -0.27551
 Alpha virt. eigenvalues --    0.01718   0.07035   0.07361   0.08136   0.09056
 Alpha virt. eigenvalues --    0.11595   0.12564   0.14479   0.15616   0.16491
 Alpha virt. eigenvalues --    0.18771   0.20028   0.21979   0.23049   0.23722

 Mulliken charges:
               1
     1  C   -0.164724
     2  C   -0.034818
     3  C   -0.037686
     4  C   -0.175762
     5  H    0.077367
     6  H    0.053352
     7  H    0.065636
     8  H    0.065816
     9  H    0.067223
    10  H    0.083597
 Sum of Mulliken charges =   0.00000

 Dipole moment (field-independent basis, Debye):
    X=             -0.0136    Y=              0.0077    Z=             -0.0343  Tot=              0.0377
 Quadrupole moment (field-independent basis, Debye-Ang):
   XX=            -23.4170   YY=            -23.1263   ZZ=            -29.3493
   XY=              0.3113   XZ=              0.0048   YZ=              0.1059

 1\1\GINC-NODE35\SP\RB2PLYPD3-FC\def2QZVP\C4H6\BOITTIER\26-Aug-2020\0\\
 #p B2PLYPD3/Def2QZVP\\butadiene\\0,1\C,0,-3.822424,0.22739,0.03734\C,0
 ,-2.72033,-0.532489,0.023034\C,0,-1.392778,0.079653,-0.029923\C,0,-0.2
 6465,-0.648872,0.061687\H,0,-4.893171,-0.115454,0.062064\H,0,-3.756374
 ,1.332266,-0.01587\H,0,-2.815417,-1.585703,0.063305\H,0,-1.374968,1.15
 2198,0.066691\H,0,-0.254113,-1.746799,0.029763\H,0,0.675724,-0.173203,
 0.040305\\Version=ES64L-G09RevD.01\State=1-A\HF=-155.6948178\MP2=-155.
 921161\RMSD=6.585e-09\PG=C01 [X(C4H6)]\\@

 Normal termination of Gaussian 09 at Wed Aug 26 09:50:26 2020.
