 Gaussian 09, Revision D.01,
 Gaussian 09:  ES64L-G09RevD.01 24-Apr-2013

 --------------------
 #p B2PLYPD3/Def2QZVP
 --------------------

 ---------
 butadiene
 ---------
 Symbolic Z-matrix:
 Charge =  0 Multiplicity = 1

                         Standard orientation:
 ---------------------------------------------------------------------
 Center     Atomic      Atomic             Coordinates (Angstroms)
 Number     Number       Type             X           Y           Z
 ---------------------------------------------------------------------
      1          6           0       -1.831688   -0.109048    0.016140
      2          6           0       -0.602543    0.408284   -0.009970
      3          6           0        0.609431   -0.397930   -0.019593
      4          6           0        1.835035    0.102466    0.004515
      5          1           0       -2.734480    0.497108   -0.017772
      6          1           0       -1.954212   -1.226533    0.062520
      7          1           0       -0.485654    1.491110   -0.067889
      8          1           0        0.430080   -1.446925   -0.033090
      9          1           0        1.966780    1.182886    0.106483
     10          1           0        2.716076   -0.520275    0.003192
 ---------------------------------------------------------------------

 SCF Done:  E(RB2PLYPD3) =  -155.699367489     A.U. after   11 cycles
 E2(B2PLYPD3) =    -0.2256851055D+00 E(B2PLYPD3) =    -0.15592505259462D+03

 The electronic state is 1-A.
 Alpha  occ. eigenvalues --  -10.62512 -10.62164 -10.61998 -10.61449  -0.93146
 Alpha  occ. eigenvalues --   -0.84948  -0.69840  -0.64061  -0.54735  -0.53585
 Alpha  occ. eigenvalues --   -0.47028  -0.45118  -0.40983  -0.38219  -0.27840
 Alpha virt. eigenvalues --    0.01897   0.07025   0.07324   0.08088   0.09588
 Alpha virt. eigenvalues --    0.11696   0.12448   0.14529   0.15822   0.16128
 Alpha virt. eigenvalues --    0.18717   0.20469   0.21383   0.22902   0.23825

 Mulliken charges:
               1
     1  C   -0.174971
     2  C   -0.027971
     3  C   -0.029371
     4  C   -0.173390
     5  H    0.088786
     6  H    0.056962
     7  H    0.052216
     8  H    0.055800
     9  H    0.064163
    10  H    0.087775
 Sum of Mulliken charges =   0.00000

 Dipole moment (field-independent basis, Debye):
    X=             -0.0020    Y=              0.0030    Z=              0.0298  Tot=              0.0300
 Quadrupole moment (field-independent basis, Debye-Ang):
   XX=            -23.4984   YY=            -23.1891   ZZ=            -29.2552
   XY=             -0.0126   XZ=              0.1896   YZ=             -0.0043

 1\1\GINC-NODE38\SP\RB2PLYPD3-FC\def2QZVP\C4H6\BOITTIER\26-Aug-2020\0\\
 #p B2PLYPD3/Def2QZVP\\butadiene\\0,1\C,0,-3.835362,0.222133,0.004073\C
 ,0,-2.719372,-0.507165,0.04651\C,0,-1.38198,0.067392,0.031655\C,0,-0.2
 66685,-0.646143,0.023375\H,0,-4.832373,-0.210121,0.056372\H,0,-3.75485
 9,1.341471,-0.076778\H,0,-2.799115,-1.591062,0.137824\H,0,-1.369395,1.
 131452,0.012746\H,0,-0.332221,-1.735209,-0.045191\H,0,0.712102,-0.1925
 93,0.005776\\Version=ES64L-G09RevD.01\State=1-A\HF=-155.6993675\MP2=-1
 55.9250526\RMSD=2.709e-09\PG=C01 [X(C4H6)]\\@

 Normal termination of Gaussian 09 at Wed Aug 26 18:37:04 2020.
