 Gaussian 09, Revision D.01,
 Gaussian 09:  ES64L-G09RevD.01 24-Apr-2013

 --------------------
 #p B2PLYPD3/Def2QZVP
 --------------------

 ---------
 butadiene
 ---------
 Symbolic Z-matrix:
 Charge =  0 Multiplicity = 1

                         Standard orientation:
 ---------------------------------------------------------------------
 Center     Atomic      Atomic             Coordinates (Angstroms)
 Number     Number       Type             X           Y           Z
 ---------------------------------------------------------------------
      1          6           0        1.821553    0.056415    0.055789
      2          6           0        0.574491   -0.361768   -0.052215
      3          6           0       -0.571724    0.476898   -0.098362
      4          6           0       -1.790208   -0.137114    0.034939
      5          1           0        2.654362   -0.591155    0.040386
      6          1           0        2.048250    1.088590   -0.012776
      7          1           0        0.366738   -1.413492    0.058867
      8          1           0       -0.462667    1.469598    0.117556
      9          1           0       -2.105521   -1.208462   -0.034211
     10          1           0       -2.705833    0.448341    0.189273
 ---------------------------------------------------------------------

 SCF Done:  E(RB2PLYPD3) =  -155.682453379     A.U. after   12 cycles
 E2(B2PLYPD3) =    -0.2265401064D+00 E(B2PLYPD3) =    -0.15590899348504D+03

 The electronic state is 1-A.
 Alpha  occ. eigenvalues --  -10.62900 -10.62426 -10.61643 -10.60243  -0.93711
 Alpha  occ. eigenvalues --   -0.84484  -0.70704  -0.65136  -0.55258  -0.53886
 Alpha  occ. eigenvalues --   -0.47317  -0.44283  -0.41592  -0.38245  -0.27178
 Alpha virt. eigenvalues --    0.01204   0.07084   0.07488   0.08214   0.09036
 Alpha virt. eigenvalues --    0.11679   0.12590   0.14993   0.15421   0.16361
 Alpha virt. eigenvalues --    0.18694   0.19527   0.22645   0.23364   0.23585

 Mulliken charges:
               1
     1  C   -0.181641
     2  C   -0.014188
     3  C   -0.050855
     4  C   -0.166419
     5  H    0.081876
     6  H    0.056685
     7  H    0.056418
     8  H    0.081338
     9  H    0.072537
    10  H    0.064249
 Sum of Mulliken charges =   0.00000

 Dipole moment (field-independent basis, Debye):
    X=             -0.1964    Y=             -0.0286    Z=              0.2029  Tot=              0.2838
 Quadrupole moment (field-independent basis, Debye-Ang):
   XX=            -23.4329   YY=            -23.2042   ZZ=            -29.1038
   XY=              0.6782   XZ=             -0.4775   YZ=              0.1918

 1\1\GINC-NODE32\SP\RB2PLYPD3-FC\def2QZVP\C4H6\BOITTIER\26-Aug-2020\0\\
 #p B2PLYPD3/Def2QZVP\\butadiene\\0,1\C,0,-3.825511,0.19066,-0.036858\C
 ,0,-2.683262,-0.459719,0.081383\C,0,-1.395117,0.13995,0.10082\C,0,-0.3
 20895,-0.70374,-0.016303\H,0,-4.768538,-0.281108,-0.000941\H,0,-3.8459
 19,1.248764,0.001552\H,0,-2.685562,-1.534507,0.001084\H,0,-1.309958,1.
 128232,-0.144157\H,0,-0.220202,-1.813605,0.083952\H,0,0.690205,-0.3130
 19,-0.189393\\Version=ES64L-G09RevD.01\State=1-A\HF=-155.6824534\MP2=-
 155.9089935\RMSD=4.446e-09\PG=C01 [X(C4H6)]\\@

 Normal termination of Gaussian 09 at Wed Aug 26 15:09:03 2020.
