 Gaussian 09, Revision D.01,
 Gaussian 09:  ES64L-G09RevD.01 24-Apr-2013

 --------------------
 #p B2PLYPD3/Def2QZVP
 --------------------

 ---------
 butadiene
 ---------
 Symbolic Z-matrix:
 Charge =  0 Multiplicity = 1

                         Standard orientation:
 ---------------------------------------------------------------------
 Center     Atomic      Atomic             Coordinates (Angstroms)
 Number     Number       Type             X           Y           Z
 ---------------------------------------------------------------------
      1          6           0       -1.829224    0.097940    0.010029
      2          6           0       -0.600470   -0.384456   -0.019029
      3          6           0        0.596894    0.413318   -0.004865
      4          6           0        1.832744   -0.117088   -0.002125
      5          1           0       -2.663675   -0.579984    0.072964
      6          1           0       -2.001239    1.185666   -0.026213
      7          1           0       -0.460266   -1.442741   -0.040579
      8          1           0        0.450427    1.500421    0.002923
      9          1           0        1.942607   -1.211628    0.041904
     10          1           0        2.732478    0.489981    0.044942
 ---------------------------------------------------------------------

 SCF Done:  E(RB2PLYPD3) =  -155.699501247     A.U. after   11 cycles
 E2(B2PLYPD3) =    -0.2258326241D+00 E(B2PLYPD3) =    -0.15592533387100D+03

 The electronic state is 1-A.
 Alpha  occ. eigenvalues --  -10.62647 -10.61930 -10.61863 -10.61373  -0.93329
 Alpha  occ. eigenvalues --   -0.84892  -0.70038  -0.64013  -0.54590  -0.53813
 Alpha  occ. eigenvalues --   -0.46612  -0.45452  -0.41262  -0.38326  -0.27630
 Alpha virt. eigenvalues --    0.01724   0.07019   0.07324   0.08067   0.09699
 Alpha virt. eigenvalues --    0.11740   0.12379   0.14658   0.15846   0.16056
 Alpha virt. eigenvalues --    0.18665   0.20544   0.21370   0.22768   0.24074

 Mulliken charges:
               1
     1  C   -0.179723
     2  C   -0.019611
     3  C   -0.031314
     4  C   -0.175887
     5  H    0.087408
     6  H    0.065150
     7  H    0.052267
     8  H    0.050820
     9  H    0.062845
    10  H    0.088045
 Sum of Mulliken charges =   0.00000

 Dipole moment (field-independent basis, Debye):
    X=              0.0020    Y=             -0.0163    Z=              0.0730  Tot=              0.0748
 Quadrupole moment (field-independent basis, Debye-Ang):
   XX=            -23.6835   YY=            -23.0754   ZZ=            -29.2581
   XY=             -0.0135   XZ=              0.0737   YZ=             -0.0688

 1\1\GINC-NODE04\SP\RB2PLYPD3-FC\def2QZVP\C4H6\BOITTIER\26-Aug-2020\0\\
 #p B2PLYPD3/Def2QZVP\\butadiene\\0,1\C,0,-3.833173,0.213505,0.0285\C,0
 ,-2.712726,-0.48499,0.018981\C,0,-1.390222,0.081767,0.009337\C,0,-0.27
 1413,-0.664128,0.033237\H,0,-4.77675,-0.298865,0.112105\H,0,-3.80467,1
 .312527,-0.044912\H,0,-2.767363,-1.551241,0.033557\H,0,-1.336553,1.177
 014,-0.019983\H,0,-0.362243,-1.758282,0.114499\H,0,0.723866,-0.229556,
 0.062137\\Version=ES64L-G09RevD.01\State=1-A\HF=-155.6995012\MP2=-155.
 9253339\RMSD=5.360e-09\PG=C01 [X(C4H6)]\\@

 Normal termination of Gaussian 09 at Wed Aug 26 19:25:49 2020.
