 Gaussian 09, Revision D.01,
 Gaussian 09:  ES64L-G09RevD.01 24-Apr-2013

 --------------------
 #p B2PLYPD3/Def2QZVP
 --------------------

 ---------
 butadiene
 ---------
 Symbolic Z-matrix:
 Charge =  0 Multiplicity = 1

                         Standard orientation:
 ---------------------------------------------------------------------
 Center     Atomic      Atomic             Coordinates (Angstroms)
 Number     Number       Type             X           Y           Z
 ---------------------------------------------------------------------
      1          6           0       -1.828581   -0.117442    0.010846
      2          6           0       -0.600788    0.421002   -0.024161
      3          6           0        0.589861   -0.399261   -0.000430
      4          6           0        1.843293    0.097580   -0.002661
      5          1           0       -2.739127    0.504679    0.069436
      6          1           0       -1.970650   -1.190596   -0.005438
      7          1           0       -0.477717    1.484784   -0.017364
      8          1           0        0.420462   -1.446873   -0.046960
      9          1           0        2.017176    1.154629    0.021926
     10          1           0        2.727140   -0.517895    0.076840
 ---------------------------------------------------------------------

 SCF Done:  E(RB2PLYPD3) =  -155.699466837     A.U. after   11 cycles
 E2(B2PLYPD3) =    -0.2260292027D+00 E(B2PLYPD3) =    -0.15592549603983D+03

 The electronic state is 1-A.
 Alpha  occ. eigenvalues --  -10.62466 -10.62405 -10.61868 -10.61509  -0.93087
 Alpha  occ. eigenvalues --   -0.84553  -0.70226  -0.64713  -0.54521  -0.53880
 Alpha  occ. eigenvalues --   -0.46646  -0.45656  -0.41570  -0.38063  -0.27401
 Alpha virt. eigenvalues --    0.01525   0.07002   0.07467   0.08123   0.09398
 Alpha virt. eigenvalues --    0.11688   0.12556   0.14687   0.15801   0.16225
 Alpha virt. eigenvalues --    0.18758   0.20383   0.21858   0.23071   0.23642

 Mulliken charges:
               1
     1  C   -0.175274
     2  C   -0.030317
     3  C   -0.032942
     4  C   -0.177427
     5  H    0.082126
     6  H    0.065637
     7  H    0.060295
     8  H    0.060333
     9  H    0.063837
    10  H    0.083732
 Sum of Mulliken charges =   0.00000

 Dipole moment (field-independent basis, Debye):
    X=             -0.0329    Y=              0.0084    Z=              0.0751  Tot=              0.0824
 Quadrupole moment (field-independent basis, Debye-Ang):
   XX=            -23.4884   YY=            -23.1022   ZZ=            -29.2930
   XY=              0.2305   XZ=              0.0564   YZ=              0.0749

 1\1\GINC-NODE10\SP\RB2PLYPD3-FC\def2QZVP\C4H6\BOITTIER\26-Aug-2020\0\\
 #p B2PLYPD3/Def2QZVP\\butadiene\\0,1\C,0,-3.828646,0.2348,0.007084\C,0
 ,-2.719959,-0.518183,0.056613\C,0,-1.399436,0.069595,0.014479\C,0,-0.2
 58038,-0.647977,0.030266\H,0,-4.837815,-0.211461,-0.037536\H,0,-3.7719
 57,1.315909,-0.002793\H,0,-2.793581,-1.586377,0.075723\H,0,-1.37419,1.
 131327,0.035425\H,0,-0.280532,-1.719278,0.031491\H,0,0.72322,-0.206681
 ,-0.063037\\Version=ES64L-G09RevD.01\State=1-A\HF=-155.6994668\MP2=-15
 5.925496\RMSD=2.922e-09\PG=C01 [X(C4H6)]\\@

 Normal termination of Gaussian 09 at Wed Aug 26 16:09:51 2020.
