 Gaussian 09, Revision D.01,
 Gaussian 09:  ES64L-G09RevD.01 24-Apr-2013

 --------------------
 #p B2PLYPD3/Def2QZVP
 --------------------

 ---------
 butadiene
 ---------
 Symbolic Z-matrix:
 Charge =  0 Multiplicity = 1

                         Standard orientation:
 ---------------------------------------------------------------------
 Center     Atomic      Atomic             Coordinates (Angstroms)
 Number     Number       Type             X           Y           Z
 ---------------------------------------------------------------------
      1          6           0        1.838696    0.100027   -0.007997
      2          6           0        0.599229   -0.385722    0.009995
      3          6           0       -0.599356    0.407201    0.008189
      4          6           0       -1.836461   -0.112591   -0.019132
      5          1           0        2.659908   -0.574510    0.014931
      6          1           0        2.047839    1.173040   -0.032247
      7          1           0        0.482477   -1.455090    0.039890
      8          1           0       -0.446795    1.485642    0.000020
      9          1           0       -2.008641   -1.186433   -0.049554
     10          1           0       -2.747435    0.503855    0.080630
 ---------------------------------------------------------------------

 SCF Done:  E(RB2PLYPD3) =  -155.699760634     A.U. after   11 cycles
 E2(B2PLYPD3) =    -0.2258660429D+00 E(B2PLYPD3) =    -0.15592562667733D+03

 The electronic state is 1-A.
 Alpha  occ. eigenvalues --  -10.62621 -10.62137 -10.61988 -10.61325  -0.93197
 Alpha  occ. eigenvalues --   -0.84825  -0.70319  -0.64068  -0.54705  -0.53810
 Alpha  occ. eigenvalues --   -0.46695  -0.45492  -0.41200  -0.38255  -0.27564
 Alpha virt. eigenvalues --    0.01542   0.06991   0.07406   0.08044   0.09731
 Alpha virt. eigenvalues --    0.11678   0.12377   0.14779   0.15809   0.16160
 Alpha virt. eigenvalues --    0.18810   0.20405   0.21709   0.22561   0.23877

 Mulliken charges:
               1
     1  C   -0.179865
     2  C   -0.023213
     3  C   -0.033515
     4  C   -0.171776
     5  H    0.086501
     6  H    0.065489
     7  H    0.052833
     8  H    0.056023
     9  H    0.064822
    10  H    0.082700
 Sum of Mulliken charges =   0.00000

 Dipole moment (field-independent basis, Debye):
    X=              0.0037    Y=             -0.0261    Z=              0.0600  Tot=              0.0655
 Quadrupole moment (field-independent basis, Debye-Ang):
   XX=            -23.5040   YY=            -23.1090   ZZ=            -29.2649
   XY=              0.2074   XZ=             -0.1541   YZ=              0.0137

 1\1\GINC-NODE19\SP\RB2PLYPD3-FC\def2QZVP\C4H6\BOITTIER\26-Aug-2020\0\\
 #p B2PLYPD3/Def2QZVP\\butadiene\\0,1\C,0,-3.841421,0.218976,0.027489\C
 ,0,-2.711765,-0.485595,0.024461\C,0,-1.38841,0.074443,0.003861\C,0,-0.
 267085,-0.661845,0.04712\H,0,-4.772224,-0.294355,0.023754\H,0,-3.85072
 8,1.312387,0.020266\H,0,-2.792651,-1.558688,0.025877\H,0,-1.341172,1.1
 62375,-0.019558\H,0,-0.294012,-1.747734,0.108992\H,0,0.740763,-0.22555
 5,-0.070031\\Version=ES64L-G09RevD.01\State=1-A\HF=-155.6997606\MP2=-1
 55.9256267\RMSD=4.465e-09\PG=C01 [X(C4H6)]\\@

 Normal termination of Gaussian 09 at Wed Aug 26 18:48:50 2020.
