 Gaussian 09, Revision D.01,
 Gaussian 09:  ES64L-G09RevD.01 24-Apr-2013

 --------------------
 #p B2PLYPD3/Def2QZVP
 --------------------

 ---------
 butadiene
 ---------
 Symbolic Z-matrix:
 Charge =  0 Multiplicity = 1

                         Standard orientation:
 ---------------------------------------------------------------------
 Center     Atomic      Atomic             Coordinates (Angstroms)
 Number     Number       Type             X           Y           Z
 ---------------------------------------------------------------------
      1          6           0       -1.838630   -0.116385    0.021698
      2          6           0       -0.614875    0.411352   -0.032192
      3          6           0        0.602106   -0.386680   -0.020054
      4          6           0        1.841289    0.106589    0.008497
      5          1           0       -2.722750    0.480996    0.082241
      6          1           0       -1.995389   -1.190495   -0.001582
      7          1           0       -0.492417    1.485025   -0.028827
      8          1           0        0.518126   -1.450930   -0.049029
      9          1           0        2.070032    1.145979    0.026600
     10          1           0        2.683058   -0.559828    0.102902
 ---------------------------------------------------------------------

 SCF Done:  E(RB2PLYPD3) =  -155.700696249     A.U. after   11 cycles
 E2(B2PLYPD3) =    -0.2252933648D+00 E(B2PLYPD3) =    -0.15592598961416D+03

 The electronic state is 1-A.
 Alpha  occ. eigenvalues --  -10.62548 -10.62274 -10.61431 -10.61134  -0.92984
 Alpha  occ. eigenvalues --   -0.85077  -0.70330  -0.64402  -0.54733  -0.54239
 Alpha  occ. eigenvalues --   -0.46727  -0.45703  -0.41320  -0.38048  -0.27703
 Alpha virt. eigenvalues --    0.01770   0.07005   0.07541   0.08085   0.09624
 Alpha virt. eigenvalues --    0.11650   0.12495   0.14795   0.15878   0.16275
 Alpha virt. eigenvalues --    0.18877   0.20453   0.21775   0.22683   0.23956

 Mulliken charges:
               1
     1  C   -0.170721
     2  C   -0.038544
     3  C   -0.028388
     4  C   -0.176121
     5  H    0.085252
     6  H    0.064852
     7  H    0.058898
     8  H    0.058273
     9  H    0.066344
    10  H    0.080155
 Sum of Mulliken charges =   0.00000

 Dipole moment (field-independent basis, Debye):
    X=             -0.0302    Y=              0.0068    Z=              0.0841  Tot=              0.0896
 Quadrupole moment (field-independent basis, Debye-Ang):
   XX=            -23.3839   YY=            -23.0749   ZZ=            -29.1888
   XY=              0.1693   XZ=              0.0959   YZ=              0.0444

 1\1\GINC-NODE21\SP\RB2PLYPD3-FC\def2QZVP\C4H6\BOITTIER\26-Aug-2020\0\\
 #p B2PLYPD3/Def2QZVP\\butadiene\\0,1\C,0,-3.838796,0.22927,-0.004102\C
 ,0,-2.729057,-0.507378,0.065295\C,0,-1.388946,0.059243,0.032288\C,0,-0
 .258196,-0.648509,0.018342\H,0,-4.815805,-0.201587,-0.048974\H,0,-3.80
 0667,1.31432,-0.010449\H,0,-2.800773,-1.585317,0.091509\H,0,-1.280956,
 1.12172,0.031966\H,0,-0.219268,-1.71216,0.028973\H,0,0.688872,-0.14638
 4,-0.093607\\Version=ES64L-G09RevD.01\State=1-A\HF=-155.7006962\MP2=-1
 55.9259896\RMSD=2.695e-09\PG=C01 [X(C4H6)]\\@

 Normal termination of Gaussian 09 at Wed Aug 26 22:08:24 2020.
