 Gaussian 09, Revision D.01,
 Gaussian 09:  ES64L-G09RevD.01 24-Apr-2013

 --------------------
 #p B2PLYPD3/Def2QZVP
 --------------------

 ---------
 butadiene
 ---------
 Symbolic Z-matrix:
 Charge =  0 Multiplicity = 1

                         Standard orientation:
 ---------------------------------------------------------------------
 Center     Atomic      Atomic             Coordinates (Angstroms)
 Number     Number       Type             X           Y           Z
 ---------------------------------------------------------------------
      1          6           0        1.879269   -0.132434   -0.065177
      2          6           0        0.628824    0.425364    0.046733
      3          6           0       -0.596484   -0.359121    0.081393
      4          6           0       -1.860453    0.088187   -0.046101
      5          1           0        2.731780    0.532754   -0.054510
      6          1           0        1.932792   -1.229833    0.044315
      7          1           0        0.317503    1.521595    0.087919
      8          1           0       -0.459240   -1.445583   -0.027033
      9          1           0       -2.104369    1.119377   -0.089315
     10          1           0       -2.725398   -0.630290   -0.062470
 ---------------------------------------------------------------------

 SCF Done:  E(RB2PLYPD3) =  -155.685066278     A.U. after   11 cycles
 E2(B2PLYPD3) =    -0.2281659211D+00 E(B2PLYPD3) =    -0.15591323219917D+03

 The electronic state is 1-A.
 Alpha  occ. eigenvalues --  -10.63964 -10.62802 -10.62744 -10.62117  -0.92488
 Alpha  occ. eigenvalues --   -0.84306  -0.70437  -0.63336  -0.54359  -0.52902
 Alpha  occ. eigenvalues --   -0.46427  -0.46030  -0.40297  -0.37750  -0.27446
 Alpha virt. eigenvalues --    0.00828   0.06924   0.07207   0.07994   0.09291
 Alpha virt. eigenvalues --    0.11665   0.12257   0.14653   0.15253   0.15969
 Alpha virt. eigenvalues --    0.18731   0.19585   0.21762   0.22456   0.24175

 Mulliken charges:
               1
     1  C   -0.178342
     2  C   -0.041997
     3  C   -0.010901
     4  C   -0.179779
     5  H    0.096868
     6  H    0.077584
     7  H    0.045198
     8  H    0.044790
     9  H    0.063434
    10  H    0.083144
 Sum of Mulliken charges =   0.00000

 Dipole moment (field-independent basis, Debye):
    X=             -0.0620    Y=              0.0290    Z=             -0.0014  Tot=              0.0685
 Quadrupole moment (field-independent basis, Debye-Ang):
   XX=            -23.5739   YY=            -23.3225   ZZ=            -29.5743
   XY=             -0.2778   XZ=              0.3695   YZ=             -0.0075

 1\1\GINC-NODE05\SP\RB2PLYPD3-FC\def2QZVP\C4H6\BOITTIER\26-Aug-2020\0\\
 #p B2PLYPD3/Def2QZVP\\butadiene\\0,1\C,0,-3.870016,0.255383,-0.045419\
 C,0,-2.74082,-0.515722,0.087205\C,0,-1.39315,0.033622,0.089416\C,0,-0.
 232561,-0.640671,-0.021573\H,0,-4.829059,-0.242774,-0.007467\H,0,-3.72
 2397,1.347628,0.020508\H,0,-2.633483,-1.647848,0.171518\H,0,-1.331642,
 1.121886,-0.061881\H,0,-0.180387,-1.69991,-0.024103\H,0,0.748342,-0.09
 2637,-0.067351\\Version=ES64L-G09RevD.01\State=1-A\HF=-155.6850663\MP2
 =-155.9132322\RMSD=8.679e-09\PG=C01 [X(C4H6)]\\@

 Normal termination of Gaussian 09 at Wed Aug 26 15:11:40 2020.
