 Gaussian 09, Revision D.01,
 Gaussian 09:  ES64L-G09RevD.01 24-Apr-2013

 --------------------
 #p B2PLYPD3/Def2QZVP
 --------------------

 ---------
 butadiene
 ---------
 Symbolic Z-matrix:
 Charge =  0 Multiplicity = 1

                         Standard orientation:
 ---------------------------------------------------------------------
 Center     Atomic      Atomic             Coordinates (Angstroms)
 Number     Number       Type             X           Y           Z
 ---------------------------------------------------------------------
      1          6           0       -1.827239   -0.119636   -0.000166
      2          6           0       -0.606450    0.417527   -0.019334
      3          6           0        0.610730   -0.398724   -0.022281
      4          6           0        1.840286    0.104169    0.014031
      5          1           0       -2.729779    0.496216    0.066643
      6          1           0       -1.974304   -1.207752    0.028256
      7          1           0       -0.521714    1.490778    0.008373
      8          1           0        0.454163   -1.473102    0.026685
      9          1           0        1.964778    1.200300    0.019324
     10          1           0        2.702897   -0.526449    0.017220
 ---------------------------------------------------------------------

 SCF Done:  E(RB2PLYPD3) =  -155.700102735     A.U. after   11 cycles
 E2(B2PLYPD3) =    -0.2256996516D+00 E(B2PLYPD3) =    -0.15592580238658D+03

 The electronic state is 1-A.
 Alpha  occ. eigenvalues --  -10.62533 -10.62478 -10.61740 -10.61450  -0.92922
 Alpha  occ. eigenvalues --   -0.84964  -0.69649  -0.64065  -0.54578  -0.53783
 Alpha  occ. eigenvalues --   -0.46686  -0.45248  -0.41181  -0.38064  -0.27817
 Alpha virt. eigenvalues --    0.01974   0.07033   0.07340   0.08059   0.09471
 Alpha virt. eigenvalues --    0.11697   0.12419   0.14531   0.15822   0.16186
 Alpha virt. eigenvalues --    0.18737   0.20362   0.21450   0.23018   0.23941

 Mulliken charges:
               1
     1  C   -0.171618
     2  C   -0.032574
     3  C   -0.030355
     4  C   -0.176039
     5  H    0.082277
     6  H    0.062236
     7  H    0.057129
     8  H    0.054684
     9  H    0.063955
    10  H    0.090305
 Sum of Mulliken charges =   0.00000

 Dipole moment (field-independent basis, Debye):
    X=             -0.0214    Y=             -0.0045    Z=              0.1234  Tot=              0.1253
 Quadrupole moment (field-independent basis, Debye-Ang):
   XX=            -23.6094   YY=            -23.0411   ZZ=            -29.2958
   XY=             -0.0114   XZ=             -0.1637   YZ=             -0.0062

 1\1\GINC-NODE15\SP\RB2PLYPD3-FC\def2QZVP\C4H6\BOITTIER\26-Aug-2020\0\\
 #p B2PLYPD3/Def2QZVP\\butadiene\\0,1\C,0,-3.830795,0.228079,0.012258\C
 ,0,-2.724992,-0.516819,0.051808\C,0,-1.382018,0.069597,0.033388\C,0,-0
 .261625,-0.644868,0.016455\H,0,-4.828653,-0.219173,-0.03835\H,0,-3.782
 015,1.323595,-0.050171\H,0,-2.832597,-1.588362,0.057482\H,0,-1.345082,
 1.152656,-0.049182\H,0,-0.334124,-1.745295,0.045362\H,0,0.699399,-0.17
 8154,-0.003482\\Version=ES64L-G09RevD.01\State=1-A\HF=-155.7001027\MP2
 =-155.9258024\RMSD=3.240e-09\PG=C01 [X(C4H6)]\\@

 Normal termination of Gaussian 09 at Wed Aug 26 20:53:25 2020.
