 Gaussian 09, Revision D.01,
 Gaussian 09:  ES64L-G09RevD.01 24-Apr-2013

 --------------------
 #p B2PLYPD3/Def2QZVP
 --------------------

 ---------
 butadiene
 ---------
 Symbolic Z-matrix:
 Charge =  0 Multiplicity = 1

                         Standard orientation:
 ---------------------------------------------------------------------
 Center     Atomic      Atomic             Coordinates (Angstroms)
 Number     Number       Type             X           Y           Z
 ---------------------------------------------------------------------
      1          6           0       -1.831287   -0.118911   -0.005473
      2          6           0       -0.597699    0.431713    0.021133
      3          6           0        0.598730   -0.400401   -0.000008
      4          6           0        1.839147    0.097146   -0.016230
      5          1           0       -2.741905    0.477342    0.002941
      6          1           0       -1.998719   -1.185062   -0.035489
      7          1           0       -0.462934    1.486533   -0.021571
      8          1           0        0.459625   -1.480558    0.017460
      9          1           0        1.994051    1.168547   -0.008104
     10          1           0        2.696536   -0.524081    0.048228
 ---------------------------------------------------------------------

 SCF Done:  E(RB2PLYPD3) =  -155.699748599     A.U. after   11 cycles
 E2(B2PLYPD3) =    -0.2259344932D+00 E(B2PLYPD3) =    -0.15592568309237D+03

 The electronic state is 1-A.
 Alpha  occ. eigenvalues --  -10.62712 -10.62524 -10.61827 -10.61163  -0.92871
 Alpha  occ. eigenvalues --   -0.84645  -0.70182  -0.64473  -0.54731  -0.53817
 Alpha  occ. eigenvalues --   -0.46833  -0.45431  -0.41525  -0.37950  -0.27463
 Alpha virt. eigenvalues --    0.01650   0.07041   0.07418   0.08140   0.09313
 Alpha virt. eigenvalues --    0.11680   0.12553   0.14669   0.15869   0.16231
 Alpha virt. eigenvalues --    0.18783   0.20492   0.21760   0.23086   0.23721

 Mulliken charges:
               1
     1  C   -0.172237
     2  C   -0.040914
     3  C   -0.024852
     4  C   -0.178564
     5  H    0.080559
     6  H    0.066993
     7  H    0.064462
     8  H    0.055592
     9  H    0.061765
    10  H    0.087197
 Sum of Mulliken charges =   0.00000

 Dipole moment (field-independent basis, Debye):
    X=             -0.0365    Y=             -0.0082    Z=              0.0200  Tot=              0.0425
 Quadrupole moment (field-independent basis, Debye-Ang):
   XX=            -23.4894   YY=            -23.0316   ZZ=            -29.3103
   XY=              0.2268   XZ=              0.2406   YZ=             -0.0538

 1\1\GINC-NODE20\SP\RB2PLYPD3-FC\def2QZVP\C4H6\BOITTIER\26-Aug-2020\0\\
 #p B2PLYPD3/Def2QZVP\\butadiene\\0,1\C,0,-3.831579,0.23737,0.02609\C,0
 ,-2.719388,-0.529824,0.017267\C,0,-1.391076,0.070062,0.01186\C,0,-0.26
 2237,-0.644871,0.044143\H,0,-4.835763,-0.182531,0.03669\H,0,-3.801428,
 1.316576,0.021914\H,0,-2.779171,-1.589638,0.093759\H,0,-1.330791,1.156
 362,-0.040221\H,0,-0.305538,-1.726259,0.070365\H,0,0.693752,-0.193006,
 -0.040096\\Version=ES64L-G09RevD.01\State=1-A\HF=-155.6997486\MP2=-155
 .9256831\RMSD=5.524e-09\PG=C01 [X(C4H6)]\\@

 Normal termination of Gaussian 09 at Wed Aug 26 16:12:35 2020.
