 Gaussian 09, Revision D.01,
 Gaussian 09:  ES64L-G09RevD.01 24-Apr-2013

 --------------------
 #p B2PLYPD3/Def2QZVP
 --------------------

 ---------
 butadiene
 ---------
 Symbolic Z-matrix:
 Charge =  0 Multiplicity = 1

                         Standard orientation:
 ---------------------------------------------------------------------
 Center     Atomic      Atomic             Coordinates (Angstroms)
 Number     Number       Type             X           Y           Z
 ---------------------------------------------------------------------
      1          6           0       -1.865463    0.089219    0.065782
      2          6           0       -0.619378   -0.394970   -0.118163
      3          6           0        0.616074    0.449285   -0.071308
      4          6           0        1.850958   -0.122028    0.023322
      5          1           0       -2.625655   -0.598987    0.137496
      6          1           0       -2.194406    1.145971    0.074020
      7          1           0       -0.470910   -1.386838    0.068976
      8          1           0        0.552762    1.534626   -0.003573
      9          1           0        1.990154   -1.176953    0.079824
     10          1           0        2.854911    0.353148    0.245465
 ---------------------------------------------------------------------

 SCF Done:  E(RB2PLYPD3) =  -155.680858446     A.U. after   11 cycles
 E2(B2PLYPD3) =    -0.2269546790D+00 E(B2PLYPD3) =    -0.15590781312531D+03

 The electronic state is 1-A.
 Alpha  occ. eigenvalues --  -10.63632 -10.62652 -10.62262 -10.61593  -0.92207
 Alpha  occ. eigenvalues --   -0.84549  -0.70229  -0.64981  -0.54824  -0.53283
 Alpha  occ. eigenvalues --   -0.46850  -0.45350  -0.41034  -0.37318  -0.27589
 Alpha virt. eigenvalues --    0.01356   0.07018   0.07479   0.08209   0.08598
 Alpha virt. eigenvalues --    0.11339   0.12625   0.14460   0.15574   0.16831
 Alpha virt. eigenvalues --    0.19056   0.19683   0.22002   0.22688   0.24154

 Mulliken charges:
               1
     1  C   -0.166084
     2  C   -0.049122
     3  C   -0.046334
     4  C   -0.161307
     5  H    0.080234
     6  H    0.071777
     7  H    0.076676
     8  H    0.067585
     9  H    0.055561
    10  H    0.071013
 Sum of Mulliken charges =   0.00000

 Dipole moment (field-independent basis, Debye):
    X=             -0.0810    Y=             -0.0480    Z=              0.4176  Tot=              0.4280
 Quadrupole moment (field-independent basis, Debye-Ang):
   XX=            -23.1417   YY=            -23.2474   ZZ=            -29.3208
   XY=             -0.5354   XZ=              0.2885   YZ=             -0.1223

 1\1\GINC-NODE14\SP\RB2PLYPD3-FC\def2QZVP\C4H6\BOITTIER\26-Aug-2020\0\\
 #p B2PLYPD3/Def2QZVP\\butadiene\\0,1\C,0,-3.868937,0.210113,0.088754\C
 ,0,-2.73111,-0.498784,-0.065581\C,0,-1.363666,0.110517,-0.053251\C,0,-
 0.251483,-0.668551,0.074794\H,0,-4.740343,-0.325727,0.189699\H,0,-4.00
 2192,1.30797,0.0446\H,0,-2.762951,-1.490997,0.169717\H,0,-1.230259,1.1
 91504,-0.038043\H,0,-0.304296,-1.727336,0.182591\H,0,0.822459,-0.37174
 8,0.278797\\Version=ES64L-G09RevD.01\State=1-A\HF=-155.6808584\MP2=-15
 5.9078131\RMSD=4.427e-09\PG=C01 [X(C4H6)]\\@

 Normal termination of Gaussian 09 at Wed Aug 26 12:29:00 2020.
