 Gaussian 09, Revision D.01,
 Gaussian 09:  ES64L-G09RevD.01 24-Apr-2013

 --------------------
 #p B2PLYPD3/Def2QZVP
 --------------------

 ---------
 butadiene
 ---------
 Symbolic Z-matrix:
 Charge =  0 Multiplicity = 1

                         Standard orientation:
 ---------------------------------------------------------------------
 Center     Atomic      Atomic             Coordinates (Angstroms)
 Number     Number       Type             X           Y           Z
 ---------------------------------------------------------------------
      1          6           0       -1.884202    0.075280    0.016046
      2          6           0       -0.625206   -0.382211    0.028249
      3          6           0        0.630023    0.455565   -0.034742
      4          6           0        1.858111   -0.157093   -0.021080
      5          1           0       -2.661636   -0.522476   -0.078871
      6          1           0       -2.091320    1.100737   -0.209216
      7          1           0       -0.344315   -1.403163    0.184167
      8          1           0        0.575464    1.590097    0.233700
      9          1           0        1.969205   -1.230052   -0.137359
     10          1           0        2.680248    0.515614    0.076734
 ---------------------------------------------------------------------

 SCF Done:  E(RB2PLYPD3) =  -155.676248741     A.U. after   11 cycles
 E2(B2PLYPD3) =    -0.2271692388D+00 E(B2PLYPD3) =    -0.15590341798016D+03

 The electronic state is 1-A.
 Alpha  occ. eigenvalues --  -10.64188 -10.63092 -10.62199 -10.60352  -0.91895
 Alpha  occ. eigenvalues --   -0.84898  -0.70666  -0.63324  -0.55046  -0.53779
 Alpha  occ. eigenvalues --   -0.46590  -0.46149  -0.40835  -0.36798  -0.27802
 Alpha virt. eigenvalues --    0.01329   0.07151   0.07270   0.07838   0.08718
 Alpha virt. eigenvalues --    0.11614   0.12564   0.14792   0.15271   0.15946
 Alpha virt. eigenvalues --    0.18924   0.19570   0.21742   0.23178   0.23597

 Mulliken charges:
               1
     1  C   -0.164978
     2  C   -0.037362
     3  C   -0.045135
     4  C   -0.187975
     5  H    0.085110
     6  H    0.063183
     7  H    0.059723
     8  H    0.058969
     9  H    0.078447
    10  H    0.090018
 Sum of Mulliken charges =   0.00000

 Dipole moment (field-independent basis, Debye):
    X=              0.1004    Y=             -0.0776    Z=              0.0343  Tot=              0.1315
 Quadrupole moment (field-independent basis, Debye-Ang):
   XX=            -23.6205   YY=            -23.1402   ZZ=            -29.2832
   XY=             -0.2823   XZ=              0.7721   YZ=              0.1693

 1\1\GINC-NODE10\SP\RB2PLYPD3-FC\def2QZVP\C4H6\BOITTIER\26-Aug-2020\0\\
 #p B2PLYPD3/Def2QZVP\\butadiene\\0,1\C,0,-3.890632,0.196055,0.027548\C
 ,0,-2.733382,-0.478096,0.056001\C,0,-1.348651,0.121699,-0.008825\C,0,-
 0.249469,-0.699594,0.023009\H,0,-4.761628,-0.255061,-0.065115\H,0,-3.9
 10536,1.23848,-0.213611\H,0,-2.639721,-1.530274,0.228341\H,0,-1.201586
 ,1.251739,0.243331\H,0,-0.330728,-1.77682,-0.07742\H,0,0.678854,-0.182
 651,0.117873\\Version=ES64L-G09RevD.01\State=1-A\HF=-155.6762487\MP2=-
 155.903418\RMSD=9.955e-09\PG=C01 [X(C4H6)]\\@

 Normal termination of Gaussian 09 at Wed Aug 26 12:34:59 2020.
