 Gaussian 09, Revision D.01,
 Gaussian 09:  ES64L-G09RevD.01 24-Apr-2013

 --------------------
 #p B2PLYPD3/Def2QZVP
 --------------------

 ---------
 butadiene
 ---------
 Symbolic Z-matrix:
 Charge =  0 Multiplicity = 1

                         Standard orientation:
 ---------------------------------------------------------------------
 Center     Atomic      Atomic             Coordinates (Angstroms)
 Number     Number       Type             X           Y           Z
 ---------------------------------------------------------------------
      1          6           0       -1.842260    0.116152   -0.025303
      2          6           0       -0.619961   -0.390710    0.008578
      3          6           0        0.624963    0.379713    0.038215
      4          6           0        1.844977   -0.126007   -0.047710
      5          1           0       -2.723921   -0.499892   -0.014134
      6          1           0       -2.008744    1.160399   -0.060170
      7          1           0       -0.502883   -1.463881    0.152724
      8          1           0        0.544558    1.500552    0.086418
      9          1           0        2.008687   -1.156576   -0.043451
     10          1           0        2.635992    0.584510    0.035933
 ---------------------------------------------------------------------

 SCF Done:  E(RB2PLYPD3) =  -155.696560259     A.U. after   11 cycles
 E2(B2PLYPD3) =    -0.2250620957D+00 E(B2PLYPD3) =    -0.15592162235453D+03

 The electronic state is 1-A.
 Alpha  occ. eigenvalues --  -10.62666 -10.62449 -10.61077 -10.60694  -0.92970
 Alpha  occ. eigenvalues --   -0.85616  -0.70308  -0.63723  -0.54983  -0.54297
 Alpha  occ. eigenvalues --   -0.46748  -0.46006  -0.40797  -0.37901  -0.28105
 Alpha virt. eigenvalues --    0.01954   0.07021   0.07456   0.07992   0.09793
 Alpha virt. eigenvalues --    0.11714   0.12401   0.14876   0.15580   0.16291
 Alpha virt. eigenvalues --    0.18830   0.19913   0.22020   0.22529   0.24198

 Mulliken charges:
               1
     1  C   -0.175162
     2  C   -0.030124
     3  C   -0.025717
     4  C   -0.175934
     5  H    0.085571
     6  H    0.067453
     7  H    0.054155
     8  H    0.042272
     9  H    0.071581
    10  H    0.085906
 Sum of Mulliken charges =   0.00000

 Dipole moment (field-independent basis, Debye):
    X=             -0.0453    Y=             -0.0023    Z=              0.1662  Tot=              0.1723
 Quadrupole moment (field-independent basis, Debye-Ang):
   XX=            -23.5098   YY=            -23.0851   ZZ=            -29.1184
   XY=             -0.0829   XZ=              0.1330   YZ=             -0.0786

 1\1\GINC-NODE18\SP\RB2PLYPD3-FC\def2QZVP\C4H6\BOITTIER\26-Aug-2020\0\\
 #p B2PLYPD3/Def2QZVP\\butadiene\\0,1\C,0,-3.846858,0.220584,-0.006597\
 C,0,-2.730988,-0.489182,0.049406\C,0,-1.371136,0.053996,0.054522\C,0,-
 0.25773,-0.658627,-0.009249\H,0,-4.822026,-0.232232,0.024492\H,0,-3.82
 9671,1.275896,-0.080122\H,0,-2.801475,-1.560391,0.233049\H,0,-1.255595
 ,1.172777,0.061464\H,0,-0.275381,-1.701114,0.033181\H,0,0.644894,-0.09
 3637,0.050687\\Version=ES64L-G09RevD.01\State=1-A\HF=-155.6965603\MP2=
 -155.9216224\RMSD=4.180e-09\PG=C01 [X(C4H6)]\\@

 Normal termination of Gaussian 09 at Wed Aug 26 09:08:15 2020.
