 Gaussian 09, Revision D.01,
 Gaussian 09:  ES64L-G09RevD.01 24-Apr-2013

 --------------------
 #p B2PLYPD3/Def2QZVP
 --------------------

 ---------
 butadiene
 ---------
 Symbolic Z-matrix:
 Charge =  0 Multiplicity = 1

                         Standard orientation:
 ---------------------------------------------------------------------
 Center     Atomic      Atomic             Coordinates (Angstroms)
 Number     Number       Type             X           Y           Z
 ---------------------------------------------------------------------
      1          6           0       -1.863341   -0.160368   -0.001858
      2          6           0       -0.608756    0.451551   -0.061374
      3          6           0        0.615313   -0.354544   -0.018243
      4          6           0        1.870425    0.061794    0.042002
      5          1           0       -2.787441    0.481223    0.027438
      6          1           0       -1.999934   -1.201260    0.279004
      7          1           0       -0.443051    1.520431   -0.026201
      8          1           0        0.406766   -1.341153   -0.107475
      9          1           0        1.988791    1.157598    0.207748
     10          1           0        2.753022   -0.607436   -0.143676
 ---------------------------------------------------------------------

 SCF Done:  E(RB2PLYPD3) =  -155.680009311     A.U. after   12 cycles
 E2(B2PLYPD3) =    -0.2277532832D+00 E(B2PLYPD3) =    -0.15590776259466D+03

 The electronic state is 1-A.
 Alpha  occ. eigenvalues --  -10.63893 -10.63279 -10.62159 -10.61474  -0.92680
 Alpha  occ. eigenvalues --   -0.84062  -0.70021  -0.64773  -0.54160  -0.52856
 Alpha  occ. eigenvalues --   -0.47192  -0.45342  -0.41129  -0.37393  -0.27312
 Alpha virt. eigenvalues --    0.00682   0.06854   0.07375   0.08118   0.09185
 Alpha virt. eigenvalues --    0.11686   0.12223   0.14666   0.15651   0.16001
 Alpha virt. eigenvalues --    0.18779   0.20307   0.20732   0.22732   0.23525

 Mulliken charges:
               1
     1  C   -0.173787
     2  C   -0.056768
     3  C   -0.013270
     4  C   -0.183732
     5  H    0.078532
     6  H    0.075878
     7  H    0.060752
     8  H    0.062806
     9  H    0.056556
    10  H    0.093034
 Sum of Mulliken charges =   0.00000

 Dipole moment (field-independent basis, Debye):
    X=             -0.0367    Y=             -0.0265    Z=              0.1673  Tot=              0.1733
 Quadrupole moment (field-independent basis, Debye-Ang):
   XX=            -23.7461   YY=            -23.3112   ZZ=            -29.3661
   XY=              0.0695   XZ=             -0.8254   YZ=              0.1003

 1\1\GINC-NODE39\SP\RB2PLYPD3-FC\def2QZVP\C4H6\BOITTIER\26-Aug-2020\0\\
 #p B2PLYPD3/Def2QZVP\\butadiene\\0,1\C,0,-3.857965,0.275134,0.004483\C
 ,0,-2.733352,-0.549385,0.090409\C,0,-1.384642,0.023145,0.033984\C,0,-0
 .22421,-0.612569,-0.005248\H,0,-4.88193,-0.191361,-0.01383\H,0,-3.8053
 28,1.315156,-0.306292\H,0,-2.761611,-1.631228,0.086278\H,0,-1.41339,1.
 033297,0.094124\H,0,-0.303554,-1.716177,-0.139501\H,0,0.763501,-0.1069
 71,0.168301\\Version=ES64L-G09RevD.01\State=1-A\HF=-155.6800093\MP2=-1
 55.9077626\RMSD=4.357e-09\PG=C01 [X(C4H6)]\\@

 Normal termination of Gaussian 09 at Wed Aug 26 13:50:30 2020.
