 Gaussian 09, Revision D.01,
 Gaussian 09:  ES64L-G09RevD.01 24-Apr-2013

 --------------------
 #p B2PLYPD3/Def2QZVP
 --------------------

 ---------
 butadiene
 ---------
 Symbolic Z-matrix:
 Charge =  0 Multiplicity = 1

                         Standard orientation:
 ---------------------------------------------------------------------
 Center     Atomic      Atomic             Coordinates (Angstroms)
 Number     Number       Type             X           Y           Z
 ---------------------------------------------------------------------
      1          6           0        1.825880    0.106528   -0.045387
      2          6           0        0.601884   -0.382410    0.020510
      3          6           0       -0.618295    0.425250    0.039294
      4          6           0       -1.835203   -0.129325   -0.019555
      5          1           0        2.707044   -0.566274    0.119258
      6          1           0        2.015969    1.151145   -0.093854
      7          1           0        0.516684   -1.481964    0.050644
      8          1           0       -0.459713    1.538337    0.065939
      9          1           0       -1.896740   -1.232270   -0.095217
     10          1           0       -2.728842    0.470761   -0.015947
 ---------------------------------------------------------------------

 SCF Done:  E(RB2PLYPD3) =  -155.695584358     A.U. after   11 cycles
 E2(B2PLYPD3) =    -0.2261223555D+00 E(B2PLYPD3) =    -0.15592170671373D+03

 The electronic state is 1-A.
 Alpha  occ. eigenvalues --  -10.63166 -10.62441 -10.61908 -10.61285  -0.92920
 Alpha  occ. eigenvalues --   -0.85015  -0.69509  -0.63548  -0.54462  -0.53578
 Alpha  occ. eigenvalues --   -0.46426  -0.45303  -0.40893  -0.38038  -0.27865
 Alpha virt. eigenvalues --    0.01883   0.06981   0.07218   0.07930   0.09526
 Alpha virt. eigenvalues --    0.11727   0.12356   0.14599   0.15787   0.15998
 Alpha virt. eigenvalues --    0.18750   0.20123   0.21459   0.22489   0.24113

 Mulliken charges:
               1
     1  C   -0.174414
     2  C   -0.016272
     3  C   -0.040998
     4  C   -0.171394
     5  H    0.078362
     6  H    0.063772
     7  H    0.050609
     8  H    0.051287
     9  H    0.066908
    10  H    0.092141
 Sum of Mulliken charges =   0.00000

 Dipole moment (field-independent basis, Debye):
    X=             -0.0459    Y=              0.0360    Z=              0.0615  Tot=              0.0848
 Quadrupole moment (field-independent basis, Debye-Ang):
   XX=            -23.7649   YY=            -23.0622   ZZ=            -29.3115
   XY=              0.0348   XZ=              0.4121   YZ=             -0.0682

 1\1\GINC-NODE01\SP\RB2PLYPD3-FC\def2QZVP\C4H6\BOITTIER\26-Aug-2020\0\\
 #p B2PLYPD3/Def2QZVP\\butadiene\\0,1\C,0,-3.834224,0.210727,0.057182\C
 ,0,-2.715358,-0.487547,0.01113\C,0,-1.372118,0.092049,-0.024632\C,0,-0
 .271751,-0.665974,0.055838\H,0,-4.820049,-0.301073,-0.092587\H,0,-3.83
 755,1.273448,0.075069\H,0,-2.824947,-1.585351,0.012618\H,0,-1.332397,1
 .214441,-0.083615\H,0,-0.405208,-1.759908,0.163059\H,0,0.713526,-0.232
 764,0.039548\\Version=ES64L-G09RevD.01\State=1-A\HF=-155.6955844\MP2=-
 155.9217067\RMSD=6.262e-09\PG=C01 [X(C4H6)]\\@

 Normal termination of Gaussian 09 at Wed Aug 26 09:12:18 2020.
