 Gaussian 09, Revision D.01,
 Gaussian 09:  ES64L-G09RevD.01 24-Apr-2013

 --------------------
 #p B2PLYPD3/Def2QZVP
 --------------------

 ---------
 butadiene
 ---------
 Symbolic Z-matrix:
 Charge =  0 Multiplicity = 1

                         Standard orientation:
 ---------------------------------------------------------------------
 Center     Atomic      Atomic             Coordinates (Angstroms)
 Number     Number       Type             X           Y           Z
 ---------------------------------------------------------------------
      1          6           0        1.837596   -0.114496   -0.007754
      2          6           0        0.613796    0.404281   -0.001468
      3          6           0       -0.600332   -0.395269    0.016305
      4          6           0       -1.844323    0.109798   -0.014826
      5          1           0        2.734028    0.492825    0.029183
      6          1           0        1.958548   -1.175802   -0.041990
      7          1           0        0.505420    1.499154    0.032907
      8          1           0       -0.484775   -1.470305    0.024272
      9          1           0       -2.056325    1.161228   -0.017478
     10          1           0       -2.697320   -0.532982    0.019570
 ---------------------------------------------------------------------

 SCF Done:  E(RB2PLYPD3) =  -155.700905423     A.U. after   11 cycles
 E2(B2PLYPD3) =    -0.2255755916D+00 E(B2PLYPD3) =    -0.15592648101510D+03

 The electronic state is 1-A.
 Alpha  occ. eigenvalues --  -10.62661 -10.62566 -10.61357 -10.61289  -0.92942
 Alpha  occ. eigenvalues --   -0.84994  -0.70286  -0.64096  -0.54657  -0.54153
 Alpha  occ. eigenvalues --   -0.46673  -0.45655  -0.41237  -0.38097  -0.27673
 Alpha virt. eigenvalues --    0.01712   0.07023   0.07464   0.08036   0.09620
 Alpha virt. eigenvalues --    0.11658   0.12501   0.14741   0.15903   0.16211
 Alpha virt. eigenvalues --    0.18814   0.20522   0.21746   0.22719   0.23842

 Mulliken charges:
               1
     1  C   -0.174587
     2  C   -0.025329
     3  C   -0.035971
     4  C   -0.175364
     5  H    0.087091
     6  H    0.064140
     7  H    0.053049
     8  H    0.055710
     9  H    0.067642
    10  H    0.083619
 Sum of Mulliken charges =   0.00000

 Dipole moment (field-independent basis, Debye):
    X=              0.0087    Y=             -0.0007    Z=              0.0515  Tot=              0.0522
 Quadrupole moment (field-independent basis, Debye-Ang):
   XX=            -23.3547   YY=            -23.1093   ZZ=            -29.2539
   XY=             -0.1226   XZ=              0.0018   YZ=              0.0541

 1\1\GINC-NODE21\SP\RB2PLYPD3-FC\def2QZVP\C4H6\BOITTIER\26-Aug-2020\0\\
 #p B2PLYPD3/Def2QZVP\\butadiene\\0,1\C,0,-3.838985,0.225549,0.010872\C
 ,0,-2.727345,-0.502765,0.036756\C,0,-1.389996,0.067461,0.030088\C,0,-0
 .256198,-0.652216,0.018155\H,0,-4.829218,-0.210511,0.066395\H,0,-3.768
 809,1.289675,-0.059004\H,0,-2.815882,-1.597653,0.107869\H,0,-1.311889,
 1.145527,0.001942\H,0,-0.235175,-1.7241,0.051004\H,0,0.697917,-0.17116
 9,0.032661\\Version=ES64L-G09RevD.01\State=1-A\HF=-155.7009054\MP2=-15
 5.926481\RMSD=4.813e-09\PG=C01 [X(C4H6)]\\@

 Normal termination of Gaussian 09 at Wed Aug 26 22:02:39 2020.
