 Gaussian 09, Revision D.01,
 Gaussian 09:  ES64L-G09RevD.01 24-Apr-2013

 --------------------
 #p B2PLYPD3/Def2QZVP
 --------------------

 ---------
 butadiene
 ---------
 Symbolic Z-matrix:
 Charge =  0 Multiplicity = 1

                         Standard orientation:
 ---------------------------------------------------------------------
 Center     Atomic      Atomic             Coordinates (Angstroms)
 Number     Number       Type             X           Y           Z
 ---------------------------------------------------------------------
      1          6           0       -1.833997   -0.120528   -0.003050
      2          6           0       -0.612761    0.416290    0.001466
      3          6           0        0.607099   -0.396063   -0.002226
      4          6           0        1.839461    0.103047   -0.018079
      5          1           0       -2.685173    0.512751   -0.015400
      6          1           0       -1.958359   -1.206622   -0.018413
      7          1           0       -0.515447    1.500824    0.082466
      8          1           0        0.433476   -1.479852    0.044727
      9          1           0        2.004284    1.181585   -0.030435
     10          1           0        2.722402   -0.525164    0.068388
 ---------------------------------------------------------------------

 SCF Done:  E(RB2PLYPD3) =  -155.700063421     A.U. after   11 cycles
 E2(B2PLYPD3) =    -0.2257109623D+00 E(B2PLYPD3) =    -0.15592577438333D+03

 The electronic state is 1-A.
 Alpha  occ. eigenvalues --  -10.62692 -10.62568 -10.61557 -10.61360  -0.92863
 Alpha  occ. eigenvalues --   -0.85012  -0.69858  -0.63810  -0.54671  -0.53746
 Alpha  occ. eigenvalues --   -0.46682  -0.45563  -0.41044  -0.37990  -0.27822
 Alpha virt. eigenvalues --    0.01925   0.07055   0.07302   0.08064   0.09496
 Alpha virt. eigenvalues --    0.11707   0.12400   0.14627   0.15756   0.16164
 Alpha virt. eigenvalues --    0.18760   0.20228   0.21632   0.22980   0.23900

 Mulliken charges:
               1
     1  C   -0.178692
     2  C   -0.029388
     3  C   -0.030687
     4  C   -0.173105
     5  H    0.088908
     6  H    0.065723
     7  H    0.054292
     8  H    0.052376
     9  H    0.064530
    10  H    0.086042
 Sum of Mulliken charges =   0.00000

 Dipole moment (field-independent basis, Debye):
    X=             -0.0286    Y=              0.0246    Z=              0.1180  Tot=              0.1239
 Quadrupole moment (field-independent basis, Debye-Ang):
   XX=            -23.6000   YY=            -23.0477   ZZ=            -29.2850
   XY=              0.0810   XZ=              0.2152   YZ=             -0.0215

 1\1\GINC-NODE19\SP\RB2PLYPD3-FC\def2QZVP\C4H6\BOITTIER\26-Aug-2020\0\\
 #p B2PLYPD3/Def2QZVP\\butadiene\\0,1\C,0,-3.834787,0.231872,0.021145\C
 ,0,-2.729304,-0.514718,0.032192\C,0,-1.383809,0.066023,0.012942\C,0,-0
 .260534,-0.644901,0.043276\H,0,-4.78544,-0.238277,0.051393\H,0,-3.7627
 97,1.322686,0.005484\H,0,-2.827949,-1.601002,-0.017807\H,0,-1.361003,1
 .161633,-0.064954\H,0,-0.291229,-1.734744,0.086437\H,0,0.7201,-0.18750
 3,-0.060908\\Version=ES64L-G09RevD.01\State=1-A\HF=-155.7000634\MP2=-1
 55.9257744\RMSD=4.549e-09\PG=C01 [X(C4H6)]\\@

 Normal termination of Gaussian 09 at Wed Aug 26 10:53:59 2020.
