 Gaussian 09, Revision D.01,
 Gaussian 09:  ES64L-G09RevD.01 24-Apr-2013

 --------------------
 #p B2PLYPD3/Def2QZVP
 --------------------

 ---------
 butadiene
 ---------
 Symbolic Z-matrix:
 Charge =  0 Multiplicity = 1

                         Standard orientation:
 ---------------------------------------------------------------------
 Center     Atomic      Atomic             Coordinates (Angstroms)
 Number     Number       Type             X           Y           Z
 ---------------------------------------------------------------------
      1          6           0        1.833241   -0.106322    0.002325
      2          6           0        0.599822    0.415490   -0.001021
      3          6           0       -0.600432   -0.408699   -0.026420
      4          6           0       -1.832620    0.106466    0.013976
      5          1           0        2.746908    0.467244    0.023323
      6          1           0        1.983640   -1.160636   -0.008557
      7          1           0        0.437369    1.484378    0.011738
      8          1           0       -0.470321   -1.486746    0.049035
      9          1           0       -2.006792    1.173884   -0.023357
     10          1           0       -2.690871   -0.519734    0.014656
 ---------------------------------------------------------------------

 SCF Done:  E(RB2PLYPD3) =  -155.700440566     A.U. after   11 cycles
 E2(B2PLYPD3) =    -0.2256243485D+00 E(B2PLYPD3) =    -0.15592606491439D+03

 The electronic state is 1-A.
 Alpha  occ. eigenvalues --  -10.62633 -10.62533 -10.61345 -10.61259  -0.92977
 Alpha  occ. eigenvalues --   -0.84843  -0.70325  -0.64335  -0.54908  -0.53848
 Alpha  occ. eigenvalues --   -0.46829  -0.45619  -0.41306  -0.38071  -0.27600
 Alpha virt. eigenvalues --    0.01761   0.07067   0.07411   0.08150   0.09391
 Alpha virt. eigenvalues --    0.11676   0.12609   0.14710   0.15763   0.16334
 Alpha virt. eigenvalues --    0.18782   0.20284   0.22068   0.23092   0.23717

 Mulliken charges:
               1
     1  C   -0.172376
     2  C   -0.033021
     3  C   -0.028694
     4  C   -0.177687
     5  H    0.083386
     6  H    0.063437
     7  H    0.057860
     8  H    0.057171
     9  H    0.064743
    10  H    0.085180
 Sum of Mulliken charges =   0.00000

 Dipole moment (field-independent basis, Debye):
    X=              0.0010    Y=             -0.0139    Z=              0.0391  Tot=              0.0415
 Quadrupole moment (field-independent basis, Debye-Ang):
   XX=            -23.3504   YY=            -23.1177   ZZ=            -29.2460
   XY=             -0.2703   XZ=              0.0239   YZ=             -0.0744

 1\1\GINC-NODE19\SP\RB2PLYPD3-FC\def2QZVP\C4H6\BOITTIER\26-Aug-2020\0\\
 #p B2PLYPD3/Def2QZVP\\butadiene\\0,1\C,0,-3.834924,0.22545,0.023361\C,
 0,-2.717719,-0.513037,0.034006\C,0,-1.38708,0.076968,-0.008852\C,0,-0.
 269747,-0.653744,0.045367\H,0,-4.837996,-0.170733,0.056392\H,0,-3.7900
 47,1.288948,-0.01234\H,0,-2.753404,-1.593019,0.071941\H,0,-1.317675,1.
 162087,0.041237\H,0,-0.293783,-1.735588,0.033207\H,0,0.688529,-0.19519
 4,0.032698\\Version=ES64L-G09RevD.01\State=1-A\HF=-155.7004406\MP2=-15
 5.9260649\RMSD=2.661e-09\PG=C01 [X(C4H6)]\\@

 Normal termination of Gaussian 09 at Wed Aug 26 14:40:52 2020.
