 Gaussian 09, Revision D.01,
 Gaussian 09:  ES64L-G09RevD.01 24-Apr-2013

 --------------------
 #p B2PLYPD3/Def2QZVP
 --------------------

 ---------
 butadiene
 ---------
 Symbolic Z-matrix:
 Charge =  0 Multiplicity = 1

                         Standard orientation:
 ---------------------------------------------------------------------
 Center     Atomic      Atomic             Coordinates (Angstroms)
 Number     Number       Type             X           Y           Z
 ---------------------------------------------------------------------
      1          6           0        1.855935   -0.117425    0.064644
      2          6           0        0.608867    0.407890   -0.130805
      3          6           0       -0.630902   -0.385021   -0.076980
      4          6           0       -1.867966    0.078710    0.024387
      5          1           0        2.832107    0.438710    0.224203
      6          1           0        2.002305   -1.155152    0.048324
      7          1           0        0.500172    1.578200    0.042626
      8          1           0       -0.305856   -1.386947   -0.010955
      9          1           0       -2.059256    1.153530    0.159510
     10          1           0       -2.765076   -0.533267    0.248814
 ---------------------------------------------------------------------

 SCF Done:  E(RB2PLYPD3) =  -155.676708285     A.U. after   11 cycles
 E2(B2PLYPD3) =    -0.2278787947D+00 E(B2PLYPD3) =    -0.15590458707944D+03

 The electronic state is 1-A.
 Alpha  occ. eigenvalues --  -10.64334 -10.62876 -10.62688 -10.62218  -0.92648
 Alpha  occ. eigenvalues --   -0.84528  -0.70532  -0.63573  -0.54817  -0.52749
 Alpha  occ. eigenvalues --   -0.47511  -0.44579  -0.39782  -0.37833  -0.27885
 Alpha virt. eigenvalues --    0.01050   0.06914   0.07195   0.07918   0.09091
 Alpha virt. eigenvalues --    0.11458   0.12565   0.14317   0.15464   0.16398
 Alpha virt. eigenvalues --    0.19010   0.19476   0.22308   0.22591   0.23570

 Mulliken charges:
               1
     1  C   -0.170427
     2  C   -0.025893
     3  C   -0.034320
     4  C   -0.151429
     5  H    0.083358
     6  H    0.059795
     7  H    0.041276
     8  H    0.055184
     9  H    0.061756
    10  H    0.080699
 Sum of Mulliken charges =   0.00000

 Dipole moment (field-independent basis, Debye):
    X=              0.1249    Y=             -0.1208    Z=              0.4990  Tot=              0.5284
 Quadrupole moment (field-independent basis, Debye-Ang):
   XX=            -22.9124   YY=            -23.8644   ZZ=            -29.3373
   XY=             -0.5722   XZ=             -0.2241   YZ=              0.2161

 1\1\GINC-NODE10\SP\RB2PLYPD3-FC\def2QZVP\C4H6\BOITTIER\26-Aug-2020\0\\
 #p B2PLYPD3/Def2QZVP\\butadiene\\0,1\C,0,-3.860084,0.238296,0.090905\C
 ,0,-2.729603,-0.511785,-0.078586\C,0,-1.366418,0.044632,-0.051036\C,0,
 -0.233669,-0.631384,0.073585\H,0,-4.920427,-0.124829,0.268304\H,0,-3.8
 15857,1.283889,0.03306\H,0,-2.834432,-1.674613,0.141324\H,0,-1.504136,
 1.090707,-0.025916\H,0,-0.240075,-1.716876,0.251786\H,0,0.760263,-0.18
 3868,0.277345\\Version=ES64L-G09RevD.01\State=1-A\HF=-155.6767083\MP2=
 -155.9045871\RMSD=7.080e-09\PG=C01 [X(C4H6)]\\@

 Normal termination of Gaussian 09 at Wed Aug 26 14:42:30 2020.
