 Gaussian 09, Revision D.01,
 Gaussian 09:  ES64L-G09RevD.01 24-Apr-2013

 --------------------
 #p B2PLYPD3/Def2QZVP
 --------------------

 ---------
 butadiene
 ---------
 Symbolic Z-matrix:
 Charge =  0 Multiplicity = 1

                         Standard orientation:
 ---------------------------------------------------------------------
 Center     Atomic      Atomic             Coordinates (Angstroms)
 Number     Number       Type             X           Y           Z
 ---------------------------------------------------------------------
      1          6           0        1.867183    0.078185    0.036090
      2          6           0        0.602027   -0.372306   -0.092533
      3          6           0       -0.641969    0.453292   -0.002550
      4          6           0       -1.831826   -0.167886    0.002932
      5          1           0        2.776987   -0.524579   -0.007864
      6          1           0        2.048661    1.139091    0.202518
      7          1           0        0.495824   -1.451155   -0.004278
      8          1           0       -0.526002    1.591979   -0.098163
      9          1           0       -2.016288   -1.203214    0.246925
     10          1           0       -2.751667    0.500170   -0.002772
 ---------------------------------------------------------------------

 SCF Done:  E(RB2PLYPD3) =  -155.684714036     A.U. after   11 cycles
 E2(B2PLYPD3) =    -0.2275072231D+00 E(B2PLYPD3) =    -0.15591222125933D+03

 The electronic state is 1-A.
 Alpha  occ. eigenvalues --  -10.64110 -10.63019 -10.62412 -10.61844  -0.92104
 Alpha  occ. eigenvalues --   -0.84538  -0.69338  -0.63549  -0.53944  -0.53311
 Alpha  occ. eigenvalues --   -0.47016  -0.44397  -0.40669  -0.37314  -0.27721
 Alpha virt. eigenvalues --    0.01463   0.06921   0.07239   0.07767   0.08796
 Alpha virt. eigenvalues --    0.11538   0.12275   0.14566   0.15305   0.16625
 Alpha virt. eigenvalues --    0.18782   0.19361   0.22145   0.22558   0.23328

 Mulliken charges:
               1
     1  C   -0.172096
     2  C   -0.031537
     3  C   -0.046452
     4  C   -0.164713
     5  H    0.086952
     6  H    0.055180
     7  H    0.059722
     8  H    0.062947
     9  H    0.080814
    10  H    0.069182
 Sum of Mulliken charges =   0.00000

 Dipole moment (field-independent basis, Debye):
    X=             -0.0166    Y=             -0.0109    Z=              0.2654  Tot=              0.2661
 Quadrupole moment (field-independent basis, Debye-Ang):
   XX=            -23.5794   YY=            -23.1612   ZZ=            -29.4391
   XY=              0.2147   XZ=             -0.0330   YZ=             -0.2698

 1\1\GINC-NODE37\SP\RB2PLYPD3-FC\def2QZVP\C4H6\BOITTIER\26-Aug-2020\0\\
 #p B2PLYPD3/Def2QZVP\\butadiene\\0,1\C,0,-3.878402,0.1868,-0.020154\C,
 0,-2.710535,-0.475455,0.112549\C,0,-1.342231,0.121577,0.02017\C,0,-0.2
 78034,-0.69643,0.019525\H,0,-4.878927,-0.248931,0.025548\H,0,-3.87318,
 1.262219,-0.192201\H,0,-2.792868,-1.556831,0.0299\H,0,-1.259148,1.2636
 15,0.10986\H,0,-0.275668,-1.749321,-0.218969\H,0,0.743665,-0.197876,0.
 023165\\Version=ES64L-G09RevD.01\State=1-A\HF=-155.684714\MP2=-155.912
 2213\RMSD=8.124e-09\PG=C01 [X(C4H6)]\\@

 Normal termination of Gaussian 09 at Wed Aug 26 14:31:23 2020.
