 Gaussian 09, Revision D.01,
 Gaussian 09:  ES64L-G09RevD.01 24-Apr-2013

 --------------------
 #p B2PLYPD3/Def2QZVP
 --------------------

 ---------
 butadiene
 ---------
 Symbolic Z-matrix:
 Charge =  0 Multiplicity = 1

                         Standard orientation:
 ---------------------------------------------------------------------
 Center     Atomic      Atomic             Coordinates (Angstroms)
 Number     Number       Type             X           Y           Z
 ---------------------------------------------------------------------
      1          6           0        1.814097   -0.130511    0.003033
      2          6           0        0.603621    0.441251   -0.007826
      3          6           0       -0.581172   -0.408534   -0.085454
      4          6           0       -1.822002    0.088090    0.037129
      5          1           0        2.677900    0.416929    0.232519
      6          1           0        1.873941   -1.220087    0.082809
      7          1           0        0.600924    1.578518   -0.165454
      8          1           0       -0.458484   -1.442614   -0.059371
      9          1           0       -1.977892    1.156260    0.045321
     10          1           0       -2.803657   -0.430778    0.182885
 ---------------------------------------------------------------------

 SCF Done:  E(RB2PLYPD3) =  -155.684658153     A.U. after   11 cycles
 E2(B2PLYPD3) =    -0.2268653238D+00 E(B2PLYPD3) =    -0.15591152347668D+03

 The electronic state is 1-A.
 Alpha  occ. eigenvalues --  -10.63414 -10.62559 -10.61922 -10.61090  -0.93077
 Alpha  occ. eigenvalues --   -0.84753  -0.69753  -0.64290  -0.54883  -0.53705
 Alpha  occ. eigenvalues --   -0.46385  -0.44326  -0.41721  -0.37906  -0.27536
 Alpha virt. eigenvalues --    0.01679   0.07076   0.07342   0.07875   0.08841
 Alpha virt. eigenvalues --    0.11538   0.12850   0.14211   0.15317   0.16917
 Alpha virt. eigenvalues --    0.18770   0.19621   0.22187   0.23229   0.23715

 Mulliken charges:
               1
     1  C   -0.167301
     2  C   -0.028316
     3  C   -0.044544
     4  C   -0.163405
     5  H    0.082095
     6  H    0.053465
     7  H    0.062520
     8  H    0.070963
     9  H    0.057771
    10  H    0.076752
 Sum of Mulliken charges =   0.00000

 Dipole moment (field-independent basis, Debye):
    X=             -0.0311    Y=              0.0266    Z=              0.2314  Tot=              0.2350
 Quadrupole moment (field-independent basis, Debye-Ang):
   XX=            -23.5480   YY=            -23.2276   ZZ=            -29.2028
   XY=              0.0078   XZ=              0.0811   YZ=             -0.1960

 1\1\GINC-NODE10\SP\RB2PLYPD3-FC\def2QZVP\C4H6\BOITTIER\26-Aug-2020\0\\
 #p B2PLYPD3/Def2QZVP\\butadiene\\0,1\C,0,-3.812429,0.234614,0.029849\C
 ,0,-2.722957,-0.543405,0.025651\C,0,-1.405921,0.081378,-0.057762\C,0,-
 0.273187,-0.626924,0.070863\H,0,-4.759786,-0.148408,0.262916\H,0,-3.67
 7501,1.318122,0.100025\H,0,-2.922619,-1.664366,-0.122036\H,0,-1.342716
 ,1.120981,-0.040879\H,0,-0.309776,-1.705674,0.088597\H,0,0.785134,-0.2
 89663,0.213435\\Version=ES64L-G09RevD.01\State=1-A\HF=-155.6846582\MP2
 =-155.9115235\RMSD=5.781e-09\PG=C01 [X(C4H6)]\\@

 Normal termination of Gaussian 09 at Wed Aug 26 14:03:14 2020.
