 Gaussian 09, Revision D.01,
 Gaussian 09:  ES64L-G09RevD.01 24-Apr-2013

 --------------------
 #p B2PLYPD3/Def2QZVP
 --------------------

 ---------
 butadiene
 ---------
 Symbolic Z-matrix:
 Charge =  0 Multiplicity = 1

                         Standard orientation:
 ---------------------------------------------------------------------
 Center     Atomic      Atomic             Coordinates (Angstroms)
 Number     Number       Type             X           Y           Z
 ---------------------------------------------------------------------
      1          6           0       -1.849364   -0.143027   -0.043171
      2          6           0       -0.614978    0.425664    0.038017
      3          6           0        0.630758   -0.353358    0.037281
      4          6           0        1.856810    0.085950   -0.068535
      5          1           0       -2.677340    0.527402   -0.067500
      6          1           0       -2.003962   -1.183340   -0.120097
      7          1           0       -0.529697    1.511200    0.247991
      8          1           0        0.284807   -1.422745    0.211950
      9          1           0        2.096086    1.129047   -0.131694
     10          1           0        2.690753   -0.652937    0.077801
 ---------------------------------------------------------------------

 SCF Done:  E(RB2PLYPD3) =  -155.687359410     A.U. after   11 cycles
 E2(B2PLYPD3) =    -0.2264846597D+00 E(B2PLYPD3) =    -0.15591384406999D+03

 The electronic state is 1-A.
 Alpha  occ. eigenvalues --  -10.63138 -10.62787 -10.61633 -10.61622  -0.92721
 Alpha  occ. eigenvalues --   -0.85081  -0.70402  -0.63289  -0.54498  -0.53549
 Alpha  occ. eigenvalues --   -0.46934  -0.46479  -0.40018  -0.37220  -0.28038
 Alpha virt. eigenvalues --    0.01590   0.07033   0.07267   0.07948   0.09602
 Alpha virt. eigenvalues --    0.11575   0.12174   0.14952   0.15421   0.15814
 Alpha virt. eigenvalues --    0.18787   0.19844   0.21548   0.22498   0.23654

 Mulliken charges:
               1
     1  C   -0.188629
     2  C   -0.036019
     3  C   -0.023087
     4  C   -0.175560
     5  H    0.088901
     6  H    0.073419
     7  H    0.054824
     8  H    0.045622
     9  H    0.074997
    10  H    0.085531
 Sum of Mulliken charges =   0.00000

 Dipole moment (field-independent basis, Debye):
    X=             -0.0854    Y=              0.0589    Z=              0.2131  Tot=              0.2370
 Quadrupole moment (field-independent basis, Debye-Ang):
   XX=            -23.6647   YY=            -23.2795   ZZ=            -29.2285
   XY=              0.5393   XZ=              0.3276   YZ=             -0.0423

 1\1\GINC-NODE35\SP\RB2PLYPD3-FC\def2QZVP\C4H6\BOITTIER\26-Aug-2020\0\\
 #p B2PLYPD3/Def2QZVP\\butadiene\\0,1\C,0,-3.846941,0.263271,0.059305\C
 ,0,-2.736506,-0.521612,-0.008539\C,0,-1.370177,0.018347,-0.026539\C,0,
 -0.243641,-0.633455,0.089493\H,0,-4.782637,-0.245111,0.099711\H,0,-3.8
 10002,1.315878,0.11149\H,0,-2.850407,-1.609215,-0.192647\H,0,-1.517272
 ,1.128366,-0.226537\H,0,-0.197184,-1.700885,0.177404\H,0,0.709789,-0.0
 61702,-0.074515\\Version=ES64L-G09RevD.01\State=1-A\HF=-155.6873594\MP
 2=-155.9138441\RMSD=9.256e-09\PG=C01 [X(C4H6)]\\@

 Normal termination of Gaussian 09 at Wed Aug 26 11:34:28 2020.
