 Gaussian 09, Revision D.01,
 Gaussian 09:  ES64L-G09RevD.01 24-Apr-2013

 --------------------
 #p B2PLYPD3/Def2QZVP
 --------------------

 ---------
 butadiene
 ---------
 Symbolic Z-matrix:
 Charge =  0 Multiplicity = 1

                         Standard orientation:
 ---------------------------------------------------------------------
 Center     Atomic      Atomic             Coordinates (Angstroms)
 Number     Number       Type             X           Y           Z
 ---------------------------------------------------------------------
      1          6           0       -1.818872    0.086109    0.039927
      2          6           0       -0.569694   -0.389538   -0.094844
      3          6           0        0.610560    0.474411   -0.010368
      4          6           0        1.814409   -0.129344   -0.002772
      5          1           0       -2.724954   -0.592760    0.071479
      6          1           0       -2.126358    1.102773    0.102585
      7          1           0       -0.476433   -1.514102    0.007776
      8          1           0        0.361943    1.590266   -0.050342
      9          1           0        1.938252   -1.216617    0.187346
     10          1           0        2.809130    0.380614    0.089494
 ---------------------------------------------------------------------

 SCF Done:  E(RB2PLYPD3) =  -155.681202109     A.U. after   11 cycles
 E2(B2PLYPD3) =    -0.2280566216D+00 E(B2PLYPD3) =    -0.15590925873062D+03

 The electronic state is 1-A.
 Alpha  occ. eigenvalues --  -10.64050 -10.63216 -10.62619 -10.61847  -0.92673
 Alpha  occ. eigenvalues --   -0.84153  -0.69472  -0.63550  -0.54282  -0.52851
 Alpha  occ. eigenvalues --   -0.46381  -0.44121  -0.40438  -0.38010  -0.27521
 Alpha virt. eigenvalues --    0.01544   0.06852   0.06998   0.07854   0.08704
 Alpha virt. eigenvalues --    0.11427   0.12514   0.14484   0.15417   0.16583
 Alpha virt. eigenvalues --    0.18610   0.19670   0.21966   0.22762   0.23642

 Mulliken charges:
               1
     1  C   -0.173788
     2  C   -0.018920
     3  C   -0.040496
     4  C   -0.154687
     5  H    0.068068
     6  H    0.062336
     7  H    0.058912
     8  H    0.063496
     9  H    0.063605
    10  H    0.071474
 Sum of Mulliken charges =   0.00000

 Dipole moment (field-independent basis, Debye):
    X=             -0.0289    Y=              0.0452    Z=              0.2975  Tot=              0.3023
 Quadrupole moment (field-independent basis, Debye-Ang):
   XX=            -23.6031   YY=            -23.2063   ZZ=            -29.4999
   XY=             -0.7043   XZ=              0.1331   YZ=             -0.2566

 1\1\GINC-NODE34\SP\RB2PLYPD3-FC\def2QZVP\C4H6\BOITTIER\26-Aug-2020\0\\
 #p B2PLYPD3/Def2QZVP\\butadiene\\0,1\C,0,-3.82791,0.208075,0.061648\C,
 0,-2.69033,-0.498723,-0.044169\C,0,-1.369056,0.132815,-0.000144\C,0,-0
 .299035,-0.68392,0.042646\H,0,-4.84457,-0.287145,0.124929\H,0,-3.93983
 ,1.266124,0.070889\H,0,-2.80798,-1.614174,0.116456\H,0,-1.405265,1.271
 936,-0.098296\H,0,-0.379137,-1.76402,0.288841\H,0,0.773944,-0.364632,0
 .112009\\Version=ES64L-G09RevD.01\State=1-A\HF=-155.6812021\MP2=-155.9
 092587\RMSD=6.130e-09\PG=C01 [X(C4H6)]\\@

 Normal termination of Gaussian 09 at Wed Aug 26 11:46:41 2020.
