 Gaussian 09, Revision D.01,
 Gaussian 09:  ES64L-G09RevD.01 24-Apr-2013

 --------------------
 #p B2PLYPD3/Def2QZVP
 --------------------

 ---------
 butadiene
 ---------
 Symbolic Z-matrix:
 Charge =  0 Multiplicity = 1

                         Standard orientation:
 ---------------------------------------------------------------------
 Center     Atomic      Atomic             Coordinates (Angstroms)
 Number     Number       Type             X           Y           Z
 ---------------------------------------------------------------------
      1          6           0       -1.825203    0.092739    0.012151
      2          6           0       -0.602621   -0.374158   -0.028387
      3          6           0        0.588246    0.434841   -0.051316
      4          6           0        1.833498   -0.113208    0.047530
      5          1           0       -2.672258   -0.588506   -0.056385
      6          1           0       -2.085922    1.079346    0.406306
      7          1           0       -0.380766   -1.451010   -0.140759
      8          1           0        0.448542    1.520622   -0.297303
      9          1           0        1.899997   -1.169540    0.133222
     10          1           0        2.826889    0.367808    0.075050
 ---------------------------------------------------------------------

 SCF Done:  E(RB2PLYPD3) =  -155.687159083     A.U. after   11 cycles
 E2(B2PLYPD3) =    -0.2268010435D+00 E(B2PLYPD3) =    -0.15591396012673D+03

 The electronic state is 1-A.
 Alpha  occ. eigenvalues --  -10.63344 -10.62451 -10.62162 -10.61267  -0.93279
 Alpha  occ. eigenvalues --   -0.84698  -0.70415  -0.63598  -0.54880  -0.53317
 Alpha  occ. eigenvalues --   -0.47188  -0.45151  -0.40736  -0.37798  -0.27540
 Alpha virt. eigenvalues --    0.01209   0.07108   0.07429   0.07797   0.09123
 Alpha virt. eigenvalues --    0.11576   0.12634   0.14701   0.15531   0.16429
 Alpha virt. eigenvalues --    0.18547   0.19820   0.21964   0.22629   0.23256

 Mulliken charges:
               1
     1  C   -0.176131
     2  C   -0.025227
     3  C   -0.037692
     4  C   -0.173156
     5  H    0.074724
     6  H    0.074910
     7  H    0.054398
     8  H    0.065623
     9  H    0.056935
    10  H    0.085617
 Sum of Mulliken charges =   0.00000

 Dipole moment (field-independent basis, Debye):
    X=              0.0883    Y=             -0.0879    Z=              0.0824  Tot=              0.1494
 Quadrupole moment (field-independent basis, Debye-Ang):
   XX=            -23.2772   YY=            -23.6734   ZZ=            -29.0229
   XY=             -0.3607   XZ=             -0.3149   YZ=              0.1780

 1\1\GINC-NODE09\SP\RB2PLYPD3-FC\def2QZVP\C4H6\BOITTIER\26-Aug-2020\0\\
 #p B2PLYPD3/Def2QZVP\\butadiene\\0,1\C,0,-3.828482,0.210812,0.03751\C,
 0,-2.713796,-0.475497,0.009288\C,0,-1.393909,0.097839,-0.039234\C,0,-0
 .271026,-0.668343,0.07425\H,0,-4.787475,-0.30339,-0.009638\H,0,-3.8993
 31,1.239645,0.402488\H,0,-2.695935,-1.577606,-0.071298\H,0,-1.331819,1
 .183112,-0.31722\H,0,-0.400688,-1.715771,0.191232\H,0,0.794417,-0.3791
 19,0.086164\\Version=ES64L-G09RevD.01\State=1-A\HF=-155.6871591\MP2=-1
 55.9139601\RMSD=8.149e-09\PG=C01 [X(C4H6)]\\@

 Normal termination of Gaussian 09 at Wed Aug 26 15:37:56 2020.
