 Gaussian 09, Revision D.01,
 Gaussian 09:  ES64L-G09RevD.01 24-Apr-2013

 --------------------
 #p B2PLYPD3/Def2QZVP
 --------------------

 ---------
 butadiene
 ---------
 Symbolic Z-matrix:
 Charge =  0 Multiplicity = 1

                         Standard orientation:
 ---------------------------------------------------------------------
 Center     Atomic      Atomic             Coordinates (Angstroms)
 Number     Number       Type             X           Y           Z
 ---------------------------------------------------------------------
      1          6           0       -1.832413    0.120565   -0.029170
      2          6           0       -0.594652   -0.430905    0.035494
      3          6           0        0.581571    0.366356   -0.006729
      4          6           0        1.841103   -0.075340   -0.011354
      5          1           0       -2.689300   -0.516798   -0.063075
      6          1           0       -2.005815    1.232118    0.091562
      7          1           0       -0.453080   -1.481832    0.003210
      8          1           0        0.391098    1.442016    0.045469
      9          1           0        2.079648   -1.123386    0.047396
     10          1           0        2.703794    0.563824   -0.054008
 ---------------------------------------------------------------------

 SCF Done:  E(RB2PLYPD3) =  -155.695424754     A.U. after   11 cycles
 E2(B2PLYPD3) =    -0.2264303889D+00 E(B2PLYPD3) =    -0.15592185514285D+03

 The electronic state is 1-A.
 Alpha  occ. eigenvalues --  -10.62460 -10.62328 -10.62244 -10.61311  -0.93349
 Alpha  occ. eigenvalues --   -0.84525  -0.70724  -0.64202  -0.55073  -0.53404
 Alpha  occ. eigenvalues --   -0.46741  -0.45448  -0.41377  -0.38269  -0.27269
 Alpha virt. eigenvalues --    0.01195   0.07006   0.07343   0.08139   0.09618
 Alpha virt. eigenvalues --    0.11661   0.12393   0.14851   0.15706   0.16292
 Alpha virt. eigenvalues --    0.18768   0.20163   0.21868   0.22872   0.23607

 Mulliken charges:
               1
     1  C   -0.173432
     2  C   -0.041675
     3  C   -0.012290
     4  C   -0.181367
     5  H    0.084622
     6  H    0.067605
     7  H    0.061438
     8  H    0.049588
     9  H    0.060116
    10  H    0.085395
 Sum of Mulliken charges =   0.00000

 Dipole moment (field-independent basis, Debye):
    X=             -0.0332    Y=             -0.0551    Z=              0.0881  Tot=              0.1091
 Quadrupole moment (field-independent basis, Debye-Ang):
   XX=            -23.4236   YY=            -23.1890   ZZ=            -29.2787
   XY=             -0.2834   XZ=             -0.0106   YZ=              0.1382

 1\1\GINC-NODE38\SP\RB2PLYPD3-FC\def2QZVP\C4H6\BOITTIER\26-Aug-2020\0\\
 #p B2PLYPD3/Def2QZVP\\butadiene\\0,1\C,0,-3.827693,0.250062,-0.008232\
 C,0,-2.71601,-0.52355,0.069474\C,0,-1.41063,0.036513,0.012711\C,0,-0.2
 57029,-0.634831,0.018934\H,0,-4.789494,-0.214787,-0.030377\H,0,-3.7880
 38,1.376588,0.089545\H,0,-2.775275,-1.582751,0.058843\H,0,-1.394675,1.
 129627,0.042676\H,0,-0.220299,-1.707646,0.099401\H,0,0.710627,-0.17086
 4,-0.035492\\Version=ES64L-G09RevD.01\State=1-A\HF=-155.6954248\MP2=-1
 55.9218551\RMSD=7.298e-09\PG=C01 [X(C4H6)]\\@

 Normal termination of Gaussian 09 at Wed Aug 26 09:47:58 2020.
