 Gaussian 09, Revision D.01,
 Gaussian 09:  ES64L-G09RevD.01 24-Apr-2013

 --------------------
 #p B2PLYPD3/Def2QZVP
 --------------------

 ---------
 butadiene
 ---------
 Symbolic Z-matrix:
 Charge =  0 Multiplicity = 1

                         Standard orientation:
 ---------------------------------------------------------------------
 Center     Atomic      Atomic             Coordinates (Angstroms)
 Number     Number       Type             X           Y           Z
 ---------------------------------------------------------------------
      1          6           0        1.831431   -0.101755   -0.058655
      2          6           0        0.573217    0.407433    0.029136
      3          6           0       -0.597094   -0.442583    0.031283
      4          6           0       -1.821905    0.124671   -0.017061
      5          1           0        2.617965    0.549989    0.241871
      6          1           0        2.051619   -1.144565   -0.168375
      7          1           0        0.438430    1.507615    0.008425
      8          1           0       -0.380913   -1.453005    0.129586
      9          1           0       -1.970230    1.179350   -0.131275
     10          1           0       -2.670766   -0.565983    0.011549
 ---------------------------------------------------------------------

 SCF Done:  E(RB2PLYPD3) =  -155.688519367     A.U. after   11 cycles
 E2(B2PLYPD3) =    -0.2269392039D+00 E(B2PLYPD3) =    -0.15591545857143D+03

 The electronic state is 1-A.
 Alpha  occ. eigenvalues --  -10.62786 -10.62212 -10.61883 -10.61190  -0.93031
 Alpha  occ. eigenvalues --   -0.84340  -0.70290  -0.64683  -0.54298  -0.53740
 Alpha  occ. eigenvalues --   -0.47359  -0.45458  -0.41733  -0.37488  -0.26981
 Alpha virt. eigenvalues --    0.01146   0.07022   0.07386   0.08110   0.09077
 Alpha virt. eigenvalues --    0.11908   0.12309   0.15005   0.15218   0.16335
 Alpha virt. eigenvalues --    0.18778   0.19381   0.22018   0.22896   0.24042

 Mulliken charges:
               1
     1  C   -0.188683
     2  C   -0.023444
     3  C   -0.044432
     4  C   -0.176735
     5  H    0.080473
     6  H    0.064117
     7  H    0.057763
     8  H    0.070332
     9  H    0.080113
    10  H    0.080497
 Sum of Mulliken charges =   0.00000

 Dipole moment (field-independent basis, Debye):
    X=             -0.1044    Y=             -0.0426    Z=              0.1199  Tot=              0.1646
 Quadrupole moment (field-independent basis, Debye-Ang):
   XX=            -24.3932   YY=            -22.7740   ZZ=            -29.2324
   XY=             -0.5177   XZ=              0.5651   YZ=              0.0400

 1\1\GINC-NODE21\SP\RB2PLYPD3-FC\def2QZVP\C4H6\BOITTIER\26-Aug-2020\0\\
 #p B2PLYPD3/Def2QZVP\\butadiene\\0,1\C,0,-3.833881,0.228768,-0.030005\
 C,0,-2.694005,-0.506823,0.068331\C,0,-1.384137,0.106282,0.045762\C,0,-
 0.288997,-0.683424,0.009599\H,0,-4.727286,-0.254659,0.289129\H,0,-3.85
 3761,1.291296,-0.166434\H,0,-2.769749,-1.612807,0.076056\H,0,-1.404736
 ,1.141507,0.118122\H,0,-0.343507,-1.74966,-0.077365\H,0,0.675287,-0.16
 5287,0.018337\\Version=ES64L-G09RevD.01\State=1-A\HF=-155.6885194\MP2=
 -155.9154586\RMSD=7.825e-09\PG=C01 [X(C4H6)]\\@

 Normal termination of Gaussian 09 at Wed Aug 26 12:50:37 2020.
