 Gaussian 09, Revision D.01,
 Gaussian 09:  ES64L-G09RevD.01 24-Apr-2013

 --------------------
 #p B2PLYPD3/Def2QZVP
 --------------------

 ---------
 butadiene
 ---------
 Symbolic Z-matrix:
 Charge =  0 Multiplicity = 1

                         Standard orientation:
 ---------------------------------------------------------------------
 Center     Atomic      Atomic             Coordinates (Angstroms)
 Number     Number       Type             X           Y           Z
 ---------------------------------------------------------------------
      1          6           0       -1.858902   -0.115142   -0.005502
      2          6           0       -0.597887    0.386346    0.015279
      3          6           0        0.624365   -0.393992    0.040177
      4          6           0        1.822253    0.121750   -0.045507
      5          1           0       -2.756296    0.512743   -0.009240
      6          1           0       -2.131688   -1.070930   -0.278811
      7          1           0       -0.404332    1.505145    0.127999
      8          1           0        0.609844   -1.496031    0.294515
      9          1           0        2.127604    1.136162   -0.029416
     10          1           0        2.615894   -0.580857   -0.131729
 ---------------------------------------------------------------------

 SCF Done:  E(RB2PLYPD3) =  -155.681944304     A.U. after   11 cycles
 E2(B2PLYPD3) =    -0.2262465244D+00 E(B2PLYPD3) =    -0.15590819082839D+03

 The electronic state is 1-A.
 Alpha  occ. eigenvalues --  -10.63698 -10.62597 -10.61454 -10.60738  -0.93009
 Alpha  occ. eigenvalues --   -0.85149  -0.70958  -0.63477  -0.55107  -0.53791
 Alpha  occ. eigenvalues --   -0.46600  -0.45678  -0.40881  -0.37366  -0.27707
 Alpha virt. eigenvalues --    0.01399   0.07053   0.07283   0.07792   0.09386
 Alpha virt. eigenvalues --    0.11405   0.12691   0.14644   0.15698   0.16321
 Alpha virt. eigenvalues --    0.18719   0.20056   0.22186   0.22475   0.23315

 Mulliken charges:
               1
     1  C   -0.170896
     2  C   -0.044254
     3  C   -0.026001
     4  C   -0.170219
     5  H    0.070560
     6  H    0.076302
     7  H    0.055661
     8  H    0.062855
     9  H    0.071283
    10  H    0.074710
 Sum of Mulliken charges =   0.00000

 Dipole moment (field-independent basis, Debye):
    X=              0.1441    Y=             -0.0005    Z=             -0.0181  Tot=              0.1452
 Quadrupole moment (field-independent basis, Debye-Ang):
   XX=            -23.2032   YY=            -23.4085   ZZ=            -29.0397
   XY=              0.5180   XZ=              0.3814   YZ=              0.1861

 1\1\GINC-NODE17\SP\RB2PLYPD3-FC\def2QZVP\C4H6\BOITTIER\26-Aug-2020\0\\
 #p B2PLYPD3/Def2QZVP\\butadiene\\0,1\C,0,-3.85894,0.233056,0.031193\C,
 0,-2.709123,-0.487964,0.019683\C,0,-1.366443,0.058357,-0.027119\C,0,-0
 .280573,-0.662785,0.0683\H,0,-4.854755,-0.222438,0.052359\H,0,-3.95316
 ,1.228539,0.281747\H,0,-2.721135,-1.625666,-0.066167\H,0,-1.183818,1.1
 38641,-0.30823\H,0,-0.16316,-1.715725,0.076241\H,0,0.627261,-0.112985,
 0.135489\\Version=ES64L-G09RevD.01\State=1-A\HF=-155.6819443\MP2=-155.
 9081908\RMSD=7.915e-09\PG=C01 [X(C4H6)]\\@

 Normal termination of Gaussian 09 at Wed Aug 26 14:57:47 2020.
