 Gaussian 09, Revision D.01,
 Gaussian 09:  ES64L-G09RevD.01 24-Apr-2013

 --------------------
 #p B2PLYPD3/Def2QZVP
 --------------------

 ---------
 butadiene
 ---------
 Symbolic Z-matrix:
 Charge =  0 Multiplicity = 1

                         Standard orientation:
 ---------------------------------------------------------------------
 Center     Atomic      Atomic             Coordinates (Angstroms)
 Number     Number       Type             X           Y           Z
 ---------------------------------------------------------------------
      1          6           0       -1.809327   -0.136950    0.035488
      2          6           0       -0.606478    0.458039   -0.040508
      3          6           0        0.577961   -0.381166   -0.048094
      4          6           0        1.835726    0.072158    0.017805
      5          1           0       -2.743708    0.438319    0.000714
      6          1           0       -1.867003   -1.343445    0.159609
      7          1           0       -0.619030    1.584707   -0.166138
      8          1           0        0.423915   -1.403278   -0.027604
      9          1           0        2.042433    1.132038    0.359220
     10          1           0        2.776092   -0.480826   -0.113956
 ---------------------------------------------------------------------

 SCF Done:  E(RB2PLYPD3) =  -155.675651530     A.U. after   11 cycles
 E2(B2PLYPD3) =    -0.2277682104D+00 E(B2PLYPD3) =    -0.15590341974011D+03

 The electronic state is 1-A.
 Alpha  occ. eigenvalues --  -10.63359 -10.63162 -10.62366 -10.62092  -0.93040
 Alpha  occ. eigenvalues --   -0.84334  -0.69206  -0.63595  -0.54663  -0.52913
 Alpha  occ. eigenvalues --   -0.46348  -0.43786  -0.41476  -0.37666  -0.27324
 Alpha virt. eigenvalues --    0.01437   0.06897   0.07119   0.07689   0.09020
 Alpha virt. eigenvalues --    0.11514   0.12334   0.14107   0.15611   0.16572
 Alpha virt. eigenvalues --    0.18697   0.19533   0.21516   0.22508   0.23439

 Mulliken charges:
               1
     1  C   -0.164928
     2  C   -0.036275
     3  C   -0.034922
     4  C   -0.176265
     5  H    0.086757
     6  H    0.050066
     7  H    0.064955
     8  H    0.070575
     9  H    0.057139
    10  H    0.082897
 Sum of Mulliken charges =   0.00000

 Dipole moment (field-independent basis, Debye):
    X=             -0.0784    Y=              0.0253    Z=              0.1010  Tot=              0.1303
 Quadrupole moment (field-independent basis, Debye-Ang):
   XX=            -23.5971   YY=            -23.3599   ZZ=            -29.3498
   XY=             -0.3087   XZ=              0.1781   YZ=              0.0688

 1\1\GINC-NODE08\SP\RB2PLYPD3-FC\def2QZVP\C4H6\BOITTIER\26-Aug-2020\0\\
 #p B2PLYPD3/Def2QZVP\\butadiene\\0,1\C,0,-3.807187,0.2424,-0.017388\C,
 0,-2.72941,-0.55486,0.079599\C,0,-1.414112,0.058827,0.055173\C,0,-0.25
 8054,-0.614105,0.005076\H,0,-4.829003,-0.15494,0.039402\H,0,-3.649378,
 1.434467,-0.186017\H,0,-2.942048,-1.655831,0.246839\H,0,-1.383284,1.09
 0588,-0.002996\H,0,-0.246496,-1.705535,-0.297057\H,0,0.766904,-0.23370
 7,0.115528\\Version=ES64L-G09RevD.01\State=1-A\HF=-155.6756515\MP2=-15
 5.9034197\RMSD=5.512e-09\PG=C01 [X(C4H6)]\\@

 Normal termination of Gaussian 09 at Wed Aug 26 12:37:42 2020.
