 Gaussian 09, Revision D.01,
 Gaussian 09:  ES64L-G09RevD.01 24-Apr-2013

 --------------------
 #p B2PLYPD3/Def2QZVP
 --------------------

 ---------
 butadiene
 ---------
 Symbolic Z-matrix:
 Charge =  0 Multiplicity = 1

                         Standard orientation:
 ---------------------------------------------------------------------
 Center     Atomic      Atomic             Coordinates (Angstroms)
 Number     Number       Type             X           Y           Z
 ---------------------------------------------------------------------
      1          6           0        1.837774   -0.095734    0.015992
      2          6           0        0.595508    0.386364   -0.035244
      3          6           0       -0.611452   -0.419271   -0.020158
      4          6           0       -1.831255    0.115289    0.018244
      5          1           0        2.669530    0.557608    0.090429
      6          1           0        2.039713   -1.168094    0.024230
      7          1           0        0.453639    1.453334   -0.018558
      8          1           0       -0.423716   -1.476803   -0.052141
      9          1           0       -1.945459    1.221665   -0.001413
     10          1           0       -2.737160   -0.507597    0.084453
 ---------------------------------------------------------------------

 SCF Done:  E(RB2PLYPD3) =  -155.699397937     A.U. after   11 cycles
 E2(B2PLYPD3) =    -0.2257417130D+00 E(B2PLYPD3) =    -0.15592513965003D+03

 The electronic state is 1-A.
 Alpha  occ. eigenvalues --  -10.62405 -10.62213 -10.62101 -10.61267  -0.93140
 Alpha  occ. eigenvalues --   -0.84868  -0.70064  -0.64170  -0.54641  -0.53650
 Alpha  occ. eigenvalues --   -0.46959  -0.45460  -0.41062  -0.38170  -0.27705
 Alpha virt. eigenvalues --    0.01797   0.07003   0.07343   0.08134   0.09596
 Alpha virt. eigenvalues --    0.11719   0.12376   0.14679   0.15783   0.16075
 Alpha virt. eigenvalues --    0.18703   0.20474   0.21524   0.22774   0.24070

 Mulliken charges:
               1
     1  C   -0.181657
     2  C   -0.021364
     3  C   -0.035175
     4  C   -0.171602
     5  H    0.087036
     6  H    0.062405
     7  H    0.051212
     8  H    0.057152
     9  H    0.065078
    10  H    0.086915
 Sum of Mulliken charges =   0.00000

 Dipole moment (field-independent basis, Debye):
    X=             -0.0065    Y=             -0.0087    Z=              0.0787  Tot=              0.0795
 Quadrupole moment (field-independent basis, Debye-Ang):
   XX=            -23.5997   YY=            -23.0999   ZZ=            -29.2589
   XY=             -0.1559   XZ=              0.0955   YZ=              0.0285

 1\1\GINC-NODE35\SP\RB2PLYPD3-FC\def2QZVP\C4H6\BOITTIER\26-Aug-2020\0\\
 #p B2PLYPD3/Def2QZVP\\butadiene\\0,1\C,0,-3.842775,0.214791,0.037753\C
 ,0,-2.709924,-0.487902,0.004004\C,0,-1.375899,0.083325,-0.006176\C,0,-
 0.27429,-0.663865,0.051375\H,0,-4.779636,-0.27252,0.132807\H,0,-3.8451
 02,1.30568,0.010209\H,0,-2.765545,-1.561686,0.056208\H,0,-1.367171,1.1
 55727,-0.073411\H,0,-0.364495,-1.772498,0.068529\H,0,0.730584,-0.21543
 5,0.097987\\Version=ES64L-G09RevD.01\State=1-A\HF=-155.6993979\MP2=-15
 5.9251397\RMSD=3.142e-09\PG=C01 [X(C4H6)]\\@

 Normal termination of Gaussian 09 at Wed Aug 26 18:13:05 2020.
