 Gaussian 09, Revision D.01,
 Gaussian 09:  ES64L-G09RevD.01 24-Apr-2013

 --------------------
 #p B2PLYPD3/Def2QZVP
 --------------------

 ---------
 butadiene
 ---------
 Symbolic Z-matrix:
 Charge =  0 Multiplicity = 1

                         Standard orientation:
 ---------------------------------------------------------------------
 Center     Atomic      Atomic             Coordinates (Angstroms)
 Number     Number       Type             X           Y           Z
 ---------------------------------------------------------------------
      1          6           0       -1.839894    0.079707    0.044874
      2          6           0       -0.564144   -0.369299   -0.049331
      3          6           0        0.580103    0.452156   -0.066755
      4          6           0        1.804757   -0.116838    0.052439
      5          1           0       -2.504365   -0.641308   -0.100239
      6          1           0       -2.107192    1.067414    0.346511
      7          1           0       -0.301132   -1.416660   -0.180634
      8          1           0        0.434718    1.538233   -0.215228
      9          1           0        1.838436   -1.237286    0.230416
     10          1           0        2.754597    0.415247    0.031806
 ---------------------------------------------------------------------

 SCF Done:  E(RB2PLYPD3) =  -155.681609751     A.U. after   12 cycles
 E2(B2PLYPD3) =    -0.2271899887D+00 E(B2PLYPD3) =    -0.15590879973987D+03

 The electronic state is 1-A.
 Alpha  occ. eigenvalues --  -10.62596 -10.62485 -10.62226 -10.60424  -0.93581
 Alpha  occ. eigenvalues --   -0.84475  -0.70946  -0.63835  -0.54840  -0.54021
 Alpha  occ. eigenvalues --   -0.46263  -0.45998  -0.41803  -0.37886  -0.26871
 Alpha virt. eigenvalues --    0.00951   0.07094   0.07379   0.08022   0.09418
 Alpha virt. eigenvalues --    0.11728   0.12296   0.15026   0.15763   0.16100
 Alpha virt. eigenvalues --    0.18537   0.20125   0.21124   0.22372   0.24051

 Mulliken charges:
               1
     1  C   -0.203393
     2  C   -0.021654
     3  C   -0.032886
     4  C   -0.173494
     5  H    0.088476
     6  H    0.084300
     7  H    0.054889
     8  H    0.060650
     9  H    0.054202
    10  H    0.088910
 Sum of Mulliken charges =   0.00000

 Dipole moment (field-independent basis, Debye):
    X=              0.1024    Y=              0.0351    Z=              0.0436  Tot=              0.1167
 Quadrupole moment (field-independent basis, Debye-Ang):
   XX=            -23.9484   YY=            -23.1645   ZZ=            -29.0787
   XY=             -0.3230   XZ=             -0.0481   YZ=              0.2013

 1\1\GINC-NODE14\SP\RB2PLYPD3-FC\def2QZVP\C4H6\BOITTIER\26-Aug-2020\0\\
 #p B2PLYPD3/Def2QZVP\\butadiene\\0,1\C,0,-3.840168,0.217535,0.066337\C
 ,0,-2.67651,-0.473751,-0.011395\C,0,-1.394624,0.108619,-0.056209\C,0,-
 0.303125,-0.683134,0.083422\H,0,-4.632881,-0.365111,-0.054383\H,0,-3.9
 08731,1.248003,0.333605\H,0,-2.622726,-1.556094,-0.106381\H,0,-1.32716
 7,1.196574,-0.242077\H,0,-0.48666,-1.782077,0.299874\H,0,0.731834,-0.3
 46779,0.045211\\Version=ES64L-G09RevD.01\State=1-A\HF=-155.6816098\MP2
 =-155.9087997\RMSD=6.020e-09\PG=C01 [X(C4H6)]\\@

 Normal termination of Gaussian 09 at Wed Aug 26 15:43:51 2020.
