 Gaussian 09, Revision D.01,
 Gaussian 09:  ES64L-G09RevD.01 24-Apr-2013

 --------------------
 #p B2PLYPD3/Def2QZVP
 --------------------

 ---------
 butadiene
 ---------
 Symbolic Z-matrix:
 Charge =  0 Multiplicity = 1

                         Standard orientation:
 ---------------------------------------------------------------------
 Center     Atomic      Atomic             Coordinates (Angstroms)
 Number     Number       Type             X           Y           Z
 ---------------------------------------------------------------------
      1          6           0        1.867071    0.088459    0.013090
      2          6           0        0.620254   -0.369961   -0.049557
      3          6           0       -0.601517    0.427108    0.019050
      4          6           0       -1.859419   -0.145314   -0.006130
      5          1           0        2.620510   -0.594407   -0.072753
      6          1           0        2.102889    1.137421    0.248129
      7          1           0        0.411480   -1.421044   -0.050189
      8          1           0       -0.583654    1.461833   -0.176110
      9          1           0       -2.087416   -1.169849    0.241011
     10          1           0       -2.622145    0.584295   -0.048807
 ---------------------------------------------------------------------

 SCF Done:  E(RB2PLYPD3) =  -155.685790087     A.U. after   11 cycles
 E2(B2PLYPD3) =    -0.2265579912D+00 E(B2PLYPD3) =    -0.15591234807824D+03

 The electronic state is 1-A.
 Alpha  occ. eigenvalues --  -10.62729 -10.62292 -10.61817 -10.60968  -0.92627
 Alpha  occ. eigenvalues --   -0.84914  -0.70792  -0.64304  -0.54664  -0.54195
 Alpha  occ. eigenvalues --   -0.46974  -0.45741  -0.41538  -0.37503  -0.27322
 Alpha virt. eigenvalues --    0.01007   0.07114   0.07589   0.08092   0.09134
 Alpha virt. eigenvalues --    0.11635   0.12225   0.15223   0.15413   0.16328
 Alpha virt. eigenvalues --    0.18485   0.19587   0.21886   0.23002   0.24057

 Mulliken charges:
               1
     1  C   -0.177742
     2  C   -0.032625
     3  C   -0.051787
     4  C   -0.181150
     5  H    0.089054
     6  H    0.073697
     7  H    0.057466
     8  H    0.069657
     9  H    0.077226
    10  H    0.076204
 Sum of Mulliken charges =   0.00000

 Dipole moment (field-independent basis, Debye):
    X=             -0.0030    Y=             -0.0141    Z=              0.1409  Tot=              0.1417
 Quadrupole moment (field-independent basis, Debye-Ang):
   XX=            -23.8561   YY=            -22.9448   ZZ=            -29.1439
   XY=              0.1857   XZ=              0.0663   YZ=             -0.1898

 1\1\GINC-NODE20\SP\RB2PLYPD3-FC\def2QZVP\C4H6\BOITTIER\26-Aug-2020\0\\
 #p B2PLYPD3/Def2QZVP\\butadiene\\0,1\C,0,-3.869333,0.210664,0.004566\C
 ,0,-2.72643,-0.46555,0.076211\C,0,-1.380285,0.095503,-0.000366\C,0,-0.
 247184,-0.695333,0.035377\H,0,-4.734192,-0.322865,0.097899\H,0,-3.9108
 74,1.281693,-0.245125\H,0,-2.71192,-1.53696,0.091484\H,0,-1.209982,1.1
 18852,0.180787\H,0,-0.209005,-1.747514,-0.197414\H,0,0.635321,-0.11577
 1,0.069943\\Version=ES64L-G09RevD.01\State=1-A\HF=-155.6857901\MP2=-15
 5.9123481\RMSD=9.725e-09\PG=C01 [X(C4H6)]\\@

 Normal termination of Gaussian 09 at Wed Aug 26 14:34:52 2020.
