 Gaussian 09, Revision D.01,
 Gaussian 09:  ES64L-G09RevD.01 24-Apr-2013

 --------------------
 #p B2PLYPD3/Def2QZVP
 --------------------

 ---------
 butadiene
 ---------
 Symbolic Z-matrix:
 Charge =  0 Multiplicity = 1

                         Standard orientation:
 ---------------------------------------------------------------------
 Center     Atomic      Atomic             Coordinates (Angstroms)
 Number     Number       Type             X           Y           Z
 ---------------------------------------------------------------------
      1          6           0        1.836874   -0.115068    0.006453
      2          6           0        0.601096    0.410407   -0.015656
      3          6           0       -0.596983   -0.390236   -0.038590
      4          6           0       -1.829647    0.101933    0.018611
      5          1           0        2.731566    0.514440    0.035457
      6          1           0        1.994627   -1.168920    0.077183
      7          1           0        0.436169    1.481753   -0.015588
      8          1           0       -0.471370   -1.477267   -0.004493
      9          1           0       -2.065087    1.161251    0.043966
     10          1           0       -2.693946   -0.553474    0.038570
 ---------------------------------------------------------------------

 SCF Done:  E(RB2PLYPD3) =  -155.700214008     A.U. after   11 cycles
 E2(B2PLYPD3) =    -0.2258058828D+00 E(B2PLYPD3) =    -0.15592601989051D+03

 The electronic state is 1-A.
 Alpha  occ. eigenvalues --  -10.62585 -10.62381 -10.61652 -10.61456  -0.93159
 Alpha  occ. eigenvalues --   -0.84807  -0.70333  -0.64106  -0.54607  -0.53925
 Alpha  occ. eigenvalues --   -0.46662  -0.45593  -0.41059  -0.38275  -0.27590
 Alpha virt. eigenvalues --    0.01630   0.06994   0.07396   0.08046   0.09634
 Alpha virt. eigenvalues --    0.11674   0.12429   0.14839   0.15836   0.16151
 Alpha virt. eigenvalues --    0.18782   0.20447   0.21883   0.22686   0.23691

 Mulliken charges:
               1
     1  C   -0.174859
     2  C   -0.034097
     3  C   -0.022701
     4  C   -0.175585
     5  H    0.083369
     6  H    0.068642
     7  H    0.057189
     8  H    0.052633
     9  H    0.064085
    10  H    0.081324
 Sum of Mulliken charges =   0.00000

 Dipole moment (field-independent basis, Debye):
    X=             -0.0207    Y=              0.0036    Z=              0.1246  Tot=              0.1264
 Quadrupole moment (field-independent basis, Debye-Ang):
   XX=            -23.4484   YY=            -23.1257   ZZ=            -29.2593
   XY=             -0.3062   XZ=              0.0418   YZ=             -0.0755

 1\1\GINC-NODE10\SP\RB2PLYPD3-FC\def2QZVP\C4H6\BOITTIER\26-Aug-2020\0\\
 #p B2PLYPD3/Def2QZVP\\butadiene\\0,1\C,0,-3.835343,0.235224,0.029246\C
 ,0,-2.716805,-0.508124,0.02117\C,0,-1.392409,0.05872,-0.018958\C,0,-0.
 270594,-0.649472,0.051466\H,0,-4.83012,-0.218868,0.07183\H,0,-3.797168
 ,1.3015,0.074969\H,0,-2.750921,-1.591254,0.046646\H,0,-1.316669,1.1508
 61,-0.010595\H,0,-0.233112,-1.733108,0.102036\H,0,0.699194,-0.163214,0
 .057182\\Version=ES64L-G09RevD.01\State=1-A\HF=-155.700214\MP2=-155.92
 60199\RMSD=5.338e-09\PG=C01 [X(C4H6)]\\@

 Normal termination of Gaussian 09 at Wed Aug 26 19:22:48 2020.
