 Gaussian 09, Revision D.01,
 Gaussian 09:  ES64L-G09RevD.01 24-Apr-2013

 --------------------
 #p B2PLYPD3/Def2QZVP
 --------------------

 ---------
 butadiene
 ---------
 Symbolic Z-matrix:
 Charge =  0 Multiplicity = 1

                         Standard orientation:
 ---------------------------------------------------------------------
 Center     Atomic      Atomic             Coordinates (Angstroms)
 Number     Number       Type             X           Y           Z
 ---------------------------------------------------------------------
      1          6           0        1.835941    0.101548    0.028332
      2          6           0        0.592607   -0.390894   -0.017546
      3          6           0       -0.594702    0.415129   -0.019248
      4          6           0       -1.837648   -0.114242    0.018375
      5          1           0        2.640658   -0.606756    0.023812
      6          1           0        2.022880    1.167163   -0.042723
      7          1           0        0.464491   -1.423564   -0.010239
      8          1           0       -0.408768    1.462928   -0.053152
      9          1           0       -2.006126   -1.178797   -0.069870
     10          1           0       -2.690325    0.509779    0.092695
 ---------------------------------------------------------------------

 SCF Done:  E(RB2PLYPD3) =  -155.697301943     A.U. after   11 cycles
 E2(B2PLYPD3) =    -0.2257264585D+00 E(B2PLYPD3) =    -0.15592302840141D+03

 The electronic state is 1-A.
 Alpha  occ. eigenvalues --  -10.62357 -10.61656 -10.61551 -10.61306  -0.93306
 Alpha  occ. eigenvalues --   -0.84745  -0.70649  -0.64825  -0.54619  -0.54165
 Alpha  occ. eigenvalues --   -0.46564  -0.46283  -0.41791  -0.38051  -0.27295
 Alpha virt. eigenvalues --    0.01433   0.07021   0.07493   0.08228   0.09570
 Alpha virt. eigenvalues --    0.11812   0.12375   0.14957   0.15796   0.16136
 Alpha virt. eigenvalues --    0.18660   0.20369   0.21645   0.23131   0.24178

 Mulliken charges:
               1
     1  C   -0.183622
     2  C   -0.022805
     3  C   -0.036429
     4  C   -0.181299
     5  H    0.083850
     6  H    0.067928
     7  H    0.057837
     8  H    0.058134
     9  H    0.070072
    10  H    0.086334
 Sum of Mulliken charges =   0.00000

 Dipole moment (field-independent basis, Debye):
    X=             -0.0350    Y=             -0.0241    Z=             -0.0886  Tot=              0.0983
 Quadrupole moment (field-independent basis, Debye-Ang):
   XX=            -23.7752   YY=            -22.9346   ZZ=            -29.2014
   XY=              0.2105   XZ=             -0.1508   YZ=              0.0273

 1\1\GINC-NODE30\SP\RB2PLYPD3-FC\def2QZVP\C4H6\BOITTIER\26-Aug-2020\0\\
 #p B2PLYPD3/Def2QZVP\\butadiene\\0,1\C,0,-3.838019,0.224143,-0.006678\
 C,0,-2.707607,-0.48926,0.054223\C,0,-1.39124,0.081828,0.033833\C,0,-0.
 268448,-0.670128,0.012322\H,0,-4.760276,-0.321883,0.01744\H,0,-3.82343
 ,1.307509,0.033763\H,0,-2.773585,-1.527539,0.076516\H,0,-1.379142,1.14
 6461,0.037649\H,0,-0.300257,-1.744529,0.13107\H,0,0.684961,-0.217764,-
 0.079123\\Version=ES64L-G09RevD.01\State=1-A\HF=-155.6973019\MP2=-155.
 9230284\RMSD=5.821e-09\PG=C01 [X(C4H6)]\\@

 Normal termination of Gaussian 09 at Wed Aug 26 08:46:27 2020.
