 Gaussian 09, Revision D.01,
 Gaussian 09:  ES64L-G09RevD.01 24-Apr-2013

 --------------------
 #p B2PLYPD3/Def2QZVP
 --------------------

 ---------
 butadiene
 ---------
 Symbolic Z-matrix:
 Charge =  0 Multiplicity = 1

                         Standard orientation:
 ---------------------------------------------------------------------
 Center     Atomic      Atomic             Coordinates (Angstroms)
 Number     Number       Type             X           Y           Z
 ---------------------------------------------------------------------
      1          6           0       -1.847366    0.095331   -0.019751
      2          6           0       -0.607371   -0.381950    0.016264
      3          6           0        0.616227    0.409903    0.011732
      4          6           0        1.847267   -0.124370   -0.013968
      5          1           0       -2.727527   -0.530377   -0.018045
      6          1           0       -2.009750    1.184545   -0.046840
      7          1           0       -0.483959   -1.447078    0.115725
      8          1           0        0.502117    1.497808    0.072388
      9          1           0        1.964148   -1.214465   -0.092526
     10          1           0        2.702422    0.516081    0.003635
 ---------------------------------------------------------------------

 SCF Done:  E(RB2PLYPD3) =  -155.699868730     A.U. after   11 cycles
 E2(B2PLYPD3) =    -0.2258484007D+00 E(B2PLYPD3) =    -0.15592571713118D+03

 The electronic state is 1-A.
 Alpha  occ. eigenvalues --  -10.62792 -10.62339 -10.61740 -10.61595  -0.92877
 Alpha  occ. eigenvalues --   -0.84969  -0.70039  -0.63828  -0.54663  -0.53835
 Alpha  occ. eigenvalues --   -0.46778  -0.45429  -0.41131  -0.37944  -0.27776
 Alpha virt. eigenvalues --    0.01707   0.07035   0.07396   0.08017   0.09626
 Alpha virt. eigenvalues --    0.11656   0.12380   0.14576   0.15806   0.16115
 Alpha virt. eigenvalues --    0.18803   0.20425   0.21359   0.22699   0.23909

 Mulliken charges:
               1
     1  C   -0.175152
     2  C   -0.026427
     3  C   -0.034643
     4  C   -0.178088
     5  H    0.088756
     6  H    0.059604
     7  H    0.053666
     8  H    0.052630
     9  H    0.068649
    10  H    0.091005
 Sum of Mulliken charges =   0.00000

 Dipole moment (field-independent basis, Debye):
    X=              0.0076    Y=              0.0009    Z=              0.0456  Tot=              0.0462
 Quadrupole moment (field-independent basis, Debye-Ang):
   XX=            -23.4646   YY=            -23.1486   ZZ=            -29.2922
   XY=              0.0669   XZ=             -0.0477   YZ=              0.0329

 1\1\GINC-NODE39\SP\RB2PLYPD3-FC\def2QZVP\C4H6\BOITTIER\26-Aug-2020\0\\
 #p B2PLYPD3/Def2QZVP\\butadiene\\0,1\C,0,-3.854542,0.206099,0.00116\C,
 0,-2.718622,-0.48224,0.05171\C,0,-1.374099,0.079826,0.027521\C,0,-0.25
 7302,-0.664647,0.0179\H,0,-4.831635,-0.25345,0.018518\H,0,-3.82145,1.3
 0573,-0.055478\H,0,-2.785553,-1.549332,0.179991\H,0,-1.293429,1.17196,
 0.058697\H,0,-0.335696,-1.759906,-0.031109\H,0,0.697858,-0.185645,0.01
 9413\\Version=ES64L-G09RevD.01\State=1-A\HF=-155.6998687\MP2=-155.9257
 171\RMSD=5.737e-09\PG=C01 [X(C4H6)]\\@

 Normal termination of Gaussian 09 at Wed Aug 26 22:08:23 2020.
