 Gaussian 09, Revision D.01,
 Gaussian 09:  ES64L-G09RevD.01 24-Apr-2013

 --------------------
 #p B2PLYPD3/Def2QZVP
 --------------------

 ---------
 butadiene
 ---------
 Symbolic Z-matrix:
 Charge =  0 Multiplicity = 1

                         Standard orientation:
 ---------------------------------------------------------------------
 Center     Atomic      Atomic             Coordinates (Angstroms)
 Number     Number       Type             X           Y           Z
 ---------------------------------------------------------------------
      1          6           0       -1.832433    0.100571   -0.005611
      2          6           0       -0.597106   -0.385977    0.010573
      3          6           0        0.591458    0.405941    0.011527
      4          6           0        1.828319   -0.115929   -0.018536
      5          1           0       -2.703828   -0.554506   -0.028119
      6          1           0       -2.002052    1.156879   -0.019586
      7          1           0       -0.442685   -1.427304    0.002844
      8          1           0        0.508214    1.492884    0.044361
      9          1           0        1.982577   -1.185429    0.044444
     10          1           0        2.716347    0.489838   -0.031665
 ---------------------------------------------------------------------

 SCF Done:  E(RB2PLYPD3) =  -155.700087640     A.U. after   11 cycles
 E2(B2PLYPD3) =    -0.2255202170D+00 E(B2PLYPD3) =    -0.15592560785724D+03

 The electronic state is 1-A.
 Alpha  occ. eigenvalues --  -10.62424 -10.61837 -10.61501 -10.61319  -0.93471
 Alpha  occ. eigenvalues --   -0.84916  -0.70460  -0.64488  -0.54705  -0.54259
 Alpha  occ. eigenvalues --   -0.46659  -0.45580  -0.41528  -0.38393  -0.27497
 Alpha virt. eigenvalues --    0.01590   0.07016   0.07508   0.08067   0.09765
 Alpha virt. eigenvalues --    0.11718   0.12508   0.14785   0.15889   0.16222
 Alpha virt. eigenvalues --    0.18759   0.20562   0.21641   0.22860   0.23880

 Mulliken charges:
               1
     1  C   -0.176709
     2  C   -0.027685
     3  C   -0.027120
     4  C   -0.178103
     5  H    0.084510
     6  H    0.067555
     7  H    0.058404
     8  H    0.052410
     9  H    0.062025
    10  H    0.084714
 Sum of Mulliken charges =   0.00000

 Dipole moment (field-independent basis, Debye):
    X=              0.0210    Y=             -0.0048    Z=              0.0289  Tot=              0.0361
 Quadrupole moment (field-independent basis, Debye-Ang):
   XX=            -23.4477   YY=            -23.1297   ZZ=            -29.1828
   XY=             -0.0775   XZ=              0.1468   YZ=             -0.0297

 1\1\GINC-NODE34\SP\RB2PLYPD3-FC\def2QZVP\C4H6\BOITTIER\26-Aug-2020\0\\
 #p B2PLYPD3/Def2QZVP\\butadiene\\0,1\C,0,-3.834776,0.21615,0.010777\C,
 0,-2.708367,-0.486008,0.045449\C,0,-1.39571,0.076468,0.026216\C,0,-0.2
 74323,-0.662083,0.015732\H,0,-4.810735,-0.270097,0.005324\H,0,-3.80969
 6,1.284783,-0.035559\H,0,-2.745723,-1.537811,0.069592\H,0,-1.280013,1.
 160934,0.026012\H,0,-0.316785,-1.739412,0.1114\H,0,0.708948,-0.228401,
 -0.012898\\Version=ES64L-G09RevD.01\State=1-A\HF=-155.7000876\MP2=-155
 .9256079\RMSD=4.194e-09\PG=C01 [X(C4H6)]\\@

 Normal termination of Gaussian 09 at Wed Aug 26 21:31:31 2020.
