 Gaussian 09, Revision D.01,
 Gaussian 09:  ES64L-G09RevD.01 24-Apr-2013

 --------------------
 #p B2PLYPD3/Def2QZVP
 --------------------

 ---------
 butadiene
 ---------
 Symbolic Z-matrix:
 Charge =  0 Multiplicity = 1

                         Standard orientation:
 ---------------------------------------------------------------------
 Center     Atomic      Atomic             Coordinates (Angstroms)
 Number     Number       Type             X           Y           Z
 ---------------------------------------------------------------------
      1          6           0        1.832404   -0.122287    0.010225
      2          6           0        0.604163    0.424239    0.001885
      3          6           0       -0.604216   -0.392281   -0.016977
      4          6           0       -1.839716    0.095855   -0.000885
      5          1           0        2.733831    0.495864   -0.040721
      6          1           0        1.987165   -1.198822    0.017787
      7          1           0        0.450860    1.491617   -0.018392
      8          1           0       -0.437894   -1.454554    0.025273
      9          1           0       -1.968419    1.170989    0.056271
     10          1           0       -2.721348   -0.538249   -0.005709
 ---------------------------------------------------------------------

 SCF Done:  E(RB2PLYPD3) =  -155.700287997     A.U. after   11 cycles
 E2(B2PLYPD3) =    -0.2258366589D+00 E(B2PLYPD3) =    -0.15592612465540D+03

 The electronic state is 1-A.
 Alpha  occ. eigenvalues --  -10.62707 -10.62231 -10.61918 -10.61412  -0.92990
 Alpha  occ. eigenvalues --   -0.84769  -0.69949  -0.64314  -0.54548  -0.53694
 Alpha  occ. eigenvalues --   -0.46927  -0.45497  -0.41149  -0.38047  -0.27664
 Alpha virt. eigenvalues --    0.01769   0.07009   0.07378   0.08117   0.09458
 Alpha virt. eigenvalues --    0.11714   0.12468   0.14638   0.15771   0.16127
 Alpha virt. eigenvalues --    0.18735   0.20479   0.21577   0.23084   0.23756

 Mulliken charges:
               1
     1  C   -0.174374
     2  C   -0.037370
     3  C   -0.022438
     4  C   -0.178877
     5  H    0.083237
     6  H    0.067472
     7  H    0.057586
     8  H    0.054141
     9  H    0.061967
    10  H    0.088658
 Sum of Mulliken charges =   0.00000

 Dipole moment (field-independent basis, Debye):
    X=              0.0277    Y=             -0.0139    Z=              0.0218  Tot=              0.0379
 Quadrupole moment (field-independent basis, Debye-Ang):
   XX=            -23.5412   YY=            -23.1023   ZZ=            -29.2981
   XY=             -0.1657   XZ=             -0.2244   YZ=             -0.0365

 1\1\GINC-NODE14\SP\RB2PLYPD3-FC\def2QZVP\C4H6\BOITTIER\26-Aug-2020\0\\
 #p B2PLYPD3/Def2QZVP\\butadiene\\0,1\C,0,-3.832629,0.237837,0.025911\C
 ,0,-2.723724,-0.522138,0.036138\C,0,-1.387448,0.061233,0.000289\C,0,-0
 .260797,-0.642012,0.033446\H,0,-4.831184,-0.207944,-0.012105\H,0,-3.78
 9804,1.324419,0.004895\H,0,-2.76634,-1.599787,0.0442\H,0,-1.358534,1.1
 36798,0.014279\H,0,-0.328914,-1.720798,0.119029\H,0,0.721111,-0.178426
 ,0.015225\\Version=ES64L-G09RevD.01\State=1-A\HF=-155.700288\MP2=-155.
 9261247\RMSD=5.295e-09\PG=C01 [X(C4H6)]\\@

 Normal termination of Gaussian 09 at Wed Aug 26 18:50:10 2020.
