 Gaussian 09, Revision D.01,
 Gaussian 09:  ES64L-G09RevD.01 24-Apr-2013

 --------------------
 #p B2PLYPD3/Def2QZVP
 --------------------

 ---------
 butadiene
 ---------
 Symbolic Z-matrix:
 Charge =  0 Multiplicity = 1

                         Standard orientation:
 ---------------------------------------------------------------------
 Center     Atomic      Atomic             Coordinates (Angstroms)
 Number     Number       Type             X           Y           Z
 ---------------------------------------------------------------------
      1          6           0       -1.832455    0.084988    0.049288
      2          6           0       -0.598324   -0.396380   -0.059123
      3          6           0        0.603655    0.437033   -0.060995
      4          6           0        1.830396   -0.119979    0.029579
      5          1           0       -2.743791   -0.530715    0.026801
      6          1           0       -1.997073    1.160923    0.049648
      7          1           0       -0.366604   -1.448211    0.027880
      8          1           0        0.450721    1.549459   -0.016911
      9          1           0        1.934390   -1.233709    0.021333
     10          1           0        2.702718    0.468283    0.138748
 ---------------------------------------------------------------------

 SCF Done:  E(RB2PLYPD3) =  -155.695212495     A.U. after   11 cycles
 E2(B2PLYPD3) =    -0.2265804210D+00 E(B2PLYPD3) =    -0.15592179291548D+03

 The electronic state is 1-A.
 Alpha  occ. eigenvalues --  -10.63239 -10.62502 -10.61971 -10.61687  -0.92863
 Alpha  occ. eigenvalues --   -0.84591  -0.69917  -0.63757  -0.54801  -0.53077
 Alpha  occ. eigenvalues --   -0.46884  -0.45206  -0.40969  -0.37986  -0.27633
 Alpha virt. eigenvalues --    0.01683   0.07068   0.07142   0.08139   0.09206
 Alpha virt. eigenvalues --    0.11699   0.12503   0.14491   0.15605   0.16166
 Alpha virt. eigenvalues --    0.18780   0.19884   0.21726   0.23450   0.23570

 Mulliken charges:
               1
     1  C   -0.171337
     2  C   -0.025170
     3  C   -0.032685
     4  C   -0.177451
     5  H    0.084313
     6  H    0.060789
     7  H    0.057024
     8  H    0.051371
     9  H    0.062223
    10  H    0.090924
 Sum of Mulliken charges =   0.00000

 Dipole moment (field-independent basis, Debye):
    X=              0.0336    Y=              0.0226    Z=              0.1423  Tot=              0.1480
 Quadrupole moment (field-independent basis, Debye-Ang):
   XX=            -23.5348   YY=            -23.1886   ZZ=            -29.3705
   XY=             -0.2514   XZ=              0.2951   YZ=              0.0493

 1\1\GINC-NODE35\SP\RB2PLYPD3-FC\def2QZVP\C4H6\BOITTIER\26-Aug-2020\0\\
 #p B2PLYPD3/Def2QZVP\\butadiene\\0,1\C,0,-3.837916,0.208144,0.068732\C
 ,0,-2.714066,-0.495979,-0.019121\C,0,-1.378918,0.100791,-0.043225\C,0,
 -0.275879,-0.669789,0.070223\H,0,-4.847282,-0.229202,0.062589\H,0,-3.8
 01115,1.295409,0.033571\H,0,-2.680288,-1.569103,0.102841\H,0,-1.323807
 ,1.223169,-0.035821\H,0,-0.379256,-1.783248,0.098485\H,0,0.690258,-0.2
 49373,0.163735\\Version=ES64L-G09RevD.01\State=1-A\HF=-155.6952125\MP2
 =-155.9217929\RMSD=6.176e-09\PG=C01 [X(C4H6)]\\@

 Normal termination of Gaussian 09 at Wed Aug 26 09:52:01 2020.
