 Gaussian 09, Revision D.01,
 Gaussian 09:  ES64L-G09RevD.01 24-Apr-2013

 --------------------
 #p B2PLYPD3/Def2QZVP
 --------------------

 ---------
 butadiene
 ---------
 Symbolic Z-matrix:
 Charge =  0 Multiplicity = 1

                         Standard orientation:
 ---------------------------------------------------------------------
 Center     Atomic      Atomic             Coordinates (Angstroms)
 Number     Number       Type             X           Y           Z
 ---------------------------------------------------------------------
      1          6           0        1.830093   -0.133714    0.025258
      2          6           0        0.610272    0.424136   -0.027172
      3          6           0       -0.607286   -0.365321   -0.020537
      4          6           0       -1.845018    0.087318    0.027422
      5          1           0        2.735661    0.472855   -0.086829
      6          1           0        1.969702   -1.188763    0.124680
      7          1           0        0.466342    1.503070   -0.006658
      8          1           0       -0.420071   -1.449499   -0.075928
      9          1           0       -1.963898    1.177083    0.072486
     10          1           0       -2.716102   -0.589263   -0.057582
 ---------------------------------------------------------------------

 SCF Done:  E(RB2PLYPD3) =  -155.697191587     A.U. after   11 cycles
 E2(B2PLYPD3) =    -0.2259963429D+00 E(B2PLYPD3) =    -0.15592318793031D+03

 The electronic state is 1-A.
 Alpha  occ. eigenvalues --  -10.62763 -10.62221 -10.61820 -10.61641  -0.93131
 Alpha  occ. eigenvalues --   -0.84972  -0.70001  -0.63791  -0.54452  -0.53642
 Alpha  occ. eigenvalues --   -0.47086  -0.45400  -0.40745  -0.38107  -0.27798
 Alpha virt. eigenvalues --    0.01662   0.06978   0.07340   0.08003   0.09706
 Alpha virt. eigenvalues --    0.11744   0.12356   0.14668   0.15618   0.16059
 Alpha virt. eigenvalues --    0.18777   0.20268   0.21448   0.22729   0.23867

 Mulliken charges:
               1
     1  C   -0.174192
     2  C   -0.037448
     3  C   -0.013313
     4  C   -0.180567
     5  H    0.084420
     6  H    0.070056
     7  H    0.053706
     8  H    0.043905
     9  H    0.060734
    10  H    0.092699
 Sum of Mulliken charges =   0.00000

 Dipole moment (field-independent basis, Debye):
    X=              0.0766    Y=             -0.0208    Z=             -0.0540  Tot=              0.0960
 Quadrupole moment (field-independent basis, Debye-Ang):
   XX=            -23.5879   YY=            -23.2123   ZZ=            -29.2593
   XY=             -0.1021   XZ=              0.0649   YZ=             -0.0008

 1\1\GINC-NODE31\SP\RB2PLYPD3-FC\def2QZVP\C4H6\BOITTIER\26-Aug-2020\0\\
 #p B2PLYPD3/Def2QZVP\\butadiene\\0,1\C,0,-3.829421,0.246432,0.042374\C
 ,0,-2.729583,-0.5224,0.00826\C,0,-1.390206,0.035791,-0.00678\C,0,-0.25
 3494,-0.629837,0.056356\H,0,-4.829491,-0.190962,-0.052969\H,0,-3.77723
 8,1.311876,0.110259\H,0,-2.781328,-1.608576,0.060973\H,0,-1.380241,1.1
 33859,-0.094572\H,0,-0.331728,-1.72145,0.133893\H,0,0.724431,-0.123215
 ,-0.047431\\Version=ES64L-G09RevD.01\State=1-A\HF=-155.6971916\MP2=-15
 5.9231879\RMSD=6.468e-09\PG=C01 [X(C4H6)]\\@

 Normal termination of Gaussian 09 at Wed Aug 26 10:34:16 2020.
