 Gaussian 09, Revision D.01,
 Gaussian 09:  ES64L-G09RevD.01 24-Apr-2013

 --------------------
 #p B2PLYPD3/Def2QZVP
 --------------------

 ---------
 butadiene
 ---------
 Symbolic Z-matrix:
 Charge =  0 Multiplicity = 1

                         Standard orientation:
 ---------------------------------------------------------------------
 Center     Atomic      Atomic             Coordinates (Angstroms)
 Number     Number       Type             X           Y           Z
 ---------------------------------------------------------------------
      1          6           0        1.843333   -0.121920   -0.014851
      2          6           0        0.608560    0.410108    0.001053
      3          6           0       -0.610264   -0.392866    0.016764
      4          6           0       -1.851678    0.100981   -0.022782
      5          1           0        2.684829    0.529130    0.015381
      6          1           0        2.053891   -1.176875   -0.034238
      7          1           0        0.486370    1.513724    0.078548
      8          1           0       -0.460676   -1.468242    0.060109
      9          1           0       -2.016545    1.187073   -0.022700
     10          1           0       -2.687573   -0.562625    0.021801
 ---------------------------------------------------------------------

 SCF Done:  E(RB2PLYPD3) =  -155.699452703     A.U. after   11 cycles
 E2(B2PLYPD3) =    -0.2259865829D+00 E(B2PLYPD3) =    -0.15592543928634D+03

 The electronic state is 1-A.
 Alpha  occ. eigenvalues --  -10.63032 -10.62525 -10.61533 -10.61463  -0.92702
 Alpha  occ. eigenvalues --   -0.84868  -0.70268  -0.63693  -0.54616  -0.53823
 Alpha  occ. eigenvalues --   -0.46603  -0.45802  -0.41090  -0.37882  -0.27652
 Alpha virt. eigenvalues --    0.01639   0.07030   0.07331   0.08048   0.09553
 Alpha virt. eigenvalues --    0.11657   0.12321   0.14789   0.15823   0.16065
 Alpha virt. eigenvalues --    0.18808   0.20451   0.21565   0.22809   0.23828

 Mulliken charges:
               1
     1  C   -0.178587
     2  C   -0.030871
     3  C   -0.030180
     4  C   -0.176798
     5  H    0.084723
     6  H    0.070552
     7  H    0.052209
     8  H    0.053490
     9  H    0.066116
    10  H    0.089345
 Sum of Mulliken charges =   0.00000

 Dipole moment (field-independent basis, Debye):
    X=              0.0444    Y=             -0.0327    Z=              0.1185  Tot=              0.1307
 Quadrupole moment (field-independent basis, Debye-Ang):
   XX=            -23.5692   YY=            -22.9962   ZZ=            -29.3367
   XY=             -0.2073   XZ=             -0.0298   YZ=              0.0450

 1\1\GINC-NODE12\SP\RB2PLYPD3-FC\def2QZVP\C4H6\BOITTIER\26-Aug-2020\0\\
 #p B2PLYPD3/Def2QZVP\\butadiene\\0,1\C,0,-3.844354,0.236946,0.004716\C
 ,0,-2.725908,-0.508536,0.040832\C,0,-1.382063,0.061163,0.032491\C,0,-0
 .250407,-0.649815,0.011937\H,0,-4.789462,-0.25005,0.054734\H,0,-3.8610
 12,1.311359,-0.050056\H,0,-2.804724,-1.612907,0.155107\H,0,-1.33482,1.
 146705,0.039869\H,0,-0.284387,-1.74722,0.04835\H,0,0.691752,-0.146999,
 0.036265\\Version=ES64L-G09RevD.01\State=1-A\HF=-155.6994527\MP2=-155.
 9254393\RMSD=5.573e-09\PG=C01 [X(C4H6)]\\@

 Normal termination of Gaussian 09 at Wed Aug 26 20:38:28 2020.
