 Gaussian 09, Revision D.01,
 Gaussian 09:  ES64L-G09RevD.01 24-Apr-2013

 --------------------
 #p B2PLYPD3/Def2QZVP
 --------------------

 ---------
 butadiene
 ---------
 Symbolic Z-matrix:
 Charge =  0 Multiplicity = 1

                         Standard orientation:
 ---------------------------------------------------------------------
 Center     Atomic      Atomic             Coordinates (Angstroms)
 Number     Number       Type             X           Y           Z
 ---------------------------------------------------------------------
      1          6           0       -1.811814   -0.114824    0.011204
      2          6           0       -0.565562    0.413022   -0.034084
      3          6           0        0.580119   -0.429052   -0.071209
      4          6           0        1.810062    0.101518    0.051327
      5          1           0       -2.697272    0.608083   -0.071861
      6          1           0       -2.134968   -1.155660    0.427805
      7          1           0       -0.404092    1.548885   -0.098140
      8          1           0        0.466193   -1.537298   -0.233434
      9          1           0        1.966623    1.160165    0.194560
     10          1           0        2.726685   -0.448159    0.037641
 ---------------------------------------------------------------------

 SCF Done:  E(RB2PLYPD3) =  -155.677880863     A.U. after   12 cycles
 E2(B2PLYPD3) =    -0.2283832893D+00 E(B2PLYPD3) =    -0.15590626415184D+03

 The electronic state is 1-A.
 Alpha  occ. eigenvalues --  -10.63565 -10.63116 -10.62954 -10.61484  -0.93197
 Alpha  occ. eigenvalues --   -0.83959  -0.69768  -0.62982  -0.54327  -0.52953
 Alpha  occ. eigenvalues --   -0.45888  -0.44548  -0.41061  -0.37907  -0.27015
 Alpha virt. eigenvalues --    0.00977   0.06901   0.07022   0.07606   0.09014
 Alpha virt. eigenvalues --    0.11412   0.12322   0.14842   0.15901   0.16166
 Alpha virt. eigenvalues --    0.18457   0.20187   0.21512   0.22502   0.23026

 Mulliken charges:
               1
     1  C   -0.177486
     2  C   -0.033228
     3  C   -0.027564
     4  C   -0.171264
     5  H    0.064337
     6  H    0.076837
     7  H    0.061739
     8  H    0.065986
     9  H    0.058306
    10  H    0.082338
 Sum of Mulliken charges =   0.00000

 Dipole moment (field-independent basis, Debye):
    X=              0.1574    Y=              0.0458    Z=              0.1830  Tot=              0.2457
 Quadrupole moment (field-independent basis, Debye-Ang):
   XX=            -23.9461   YY=            -23.2114   ZZ=            -29.2896
   XY=              0.4030   XZ=             -0.3341   YZ=             -0.1958

 1\1\GINC-NODE10\SP\RB2PLYPD3-FC\def2QZVP\C4H6\BOITTIER\26-Aug-2020\0\\
 #p B2PLYPD3/Def2QZVP\\butadiene\\0,1\C,0,-3.811138,0.238146,-0.004135\
 C,0,-2.687744,-0.514648,0.067314\C,0,-1.402939,0.095407,0.080015\C,0,-
 0.296326,-0.663158,-0.016236\H,0,-4.817645,-0.299956,0.100363\H,0,-3.9
 31364,1.305302,-0.460258\H,0,-2.744831,-1.657356,0.173706\H,0,-1.30408
 1,1.210346,0.201022\H,0,-0.343877,-1.736827,-0.119839\H,0,0.708026,-0.
 297361,-0.01755\\Version=ES64L-G09RevD.01\State=1-A\HF=-155.6778809\MP
 2=-155.9062642\RMSD=4.221e-09\PG=C01 [X(C4H6)]\\@

 Normal termination of Gaussian 09 at Wed Aug 26 14:29:41 2020.
