 Gaussian 09, Revision D.01,
 Gaussian 09:  ES64L-G09RevD.01 24-Apr-2013

 --------------------
 #p B2PLYPD3/Def2QZVP
 --------------------

 ---------
 butadiene
 ---------
 Symbolic Z-matrix:
 Charge =  0 Multiplicity = 1

                         Standard orientation:
 ---------------------------------------------------------------------
 Center     Atomic      Atomic             Coordinates (Angstroms)
 Number     Number       Type             X           Y           Z
 ---------------------------------------------------------------------
      1          6           0        1.836574   -0.112447    0.009556
      2          6           0        0.607783    0.401974   -0.012490
      3          6           0       -0.606222   -0.383737   -0.014564
      4          6           0       -1.845136    0.107853    0.020906
      5          1           0        2.718107    0.485416    0.068248
      6          1           0        1.963517   -1.199440   -0.040104
      7          1           0        0.502560    1.481024   -0.031087
      8          1           0       -0.459967   -1.425301    0.000465
      9          1           0       -2.025216    1.169549   -0.031587
     10          1           0       -2.656994   -0.593103    0.013616
 ---------------------------------------------------------------------

 SCF Done:  E(RB2PLYPD3) =  -155.699988149     A.U. after   11 cycles
 E2(B2PLYPD3) =    -0.2253435985D+00 E(B2PLYPD3) =    -0.15592533174711D+03

 The electronic state is 1-A.
 Alpha  occ. eigenvalues --  -10.62297 -10.61975 -10.61451 -10.61313  -0.93213
 Alpha  occ. eigenvalues --   -0.85125  -0.70352  -0.64333  -0.54670  -0.54253
 Alpha  occ. eigenvalues --   -0.46784  -0.45821  -0.41302  -0.38174  -0.27697
 Alpha virt. eigenvalues --    0.01713   0.07012   0.07498   0.08121   0.09763
 Alpha virt. eigenvalues --    0.11743   0.12394   0.14780   0.15824   0.16170
 Alpha virt. eigenvalues --    0.18754   0.20390   0.21532   0.22924   0.24112

 Mulliken charges:
               1
     1  C   -0.176846
     2  C   -0.026450
     3  C   -0.030642
     4  C   -0.179915
     5  H    0.089210
     6  H    0.059896
     7  H    0.050524
     8  H    0.056092
     9  H    0.071725
    10  H    0.086408
 Sum of Mulliken charges =   0.00000

 Dipole moment (field-independent basis, Debye):
    X=              0.0366    Y=             -0.0041    Z=             -0.0416  Tot=              0.0556
 Quadrupole moment (field-independent basis, Debye-Ang):
   XX=            -23.5697   YY=            -23.0630   ZZ=            -29.1860
   XY=             -0.0073   XZ=              0.1485   YZ=              0.0034

 1\1\GINC-NODE16\SP\RB2PLYPD3-FC\def2QZVP\C4H6\BOITTIER\26-Aug-2020\0\\
 #p B2PLYPD3/Def2QZVP\\butadiene\\0,1\C,0,-3.839211,0.226927,0.029492\C
 ,0,-2.722816,-0.500163,0.02275\C,0,-1.387521,0.054452,-0.000563\C,0,-0
 .256819,-0.650408,0.049553\H,0,-4.813472,-0.201087,0.104352\H,0,-3.769
 205,1.317244,-0.050771\H,0,-2.813062,-1.580665,0.034545\H,0,-1.344385,
 1.105359,-0.0149\H,0,-0.270457,-1.728225,0.02703\H,0,0.667628,-0.10708
 ,0.023132\\Version=ES64L-G09RevD.01\State=1-A\HF=-155.6999881\MP2=-155
 .9253317\RMSD=4.205e-09\PG=C01 [X(C4H6)]\\@

 Normal termination of Gaussian 09 at Wed Aug 26 19:35:30 2020.
