 Gaussian 09, Revision D.01,
 Gaussian 09:  ES64L-G09RevD.01 24-Apr-2013

 --------------------
 #p B2PLYPD3/Def2QZVP
 --------------------

 ---------
 butadiene
 ---------
 Symbolic Z-matrix:
 Charge =  0 Multiplicity = 1

                         Standard orientation:
 ---------------------------------------------------------------------
 Center     Atomic      Atomic             Coordinates (Angstroms)
 Number     Number       Type             X           Y           Z
 ---------------------------------------------------------------------
      1          6           0       -1.835499    0.083428   -0.027004
      2          6           0       -0.604360   -0.343235    0.033358
      3          6           0        0.620089    0.442523    0.049792
      4          6           0        1.825317   -0.145604   -0.057672
      5          1           0       -2.678552   -0.626915   -0.009979
      6          1           0       -1.950544    1.195592   -0.267876
      7          1           0       -0.482620   -1.402088    0.136772
      8          1           0        0.464696    1.435855    0.283492
      9          1           0        1.780247   -1.205101   -0.030907
     10          1           0        2.833491    0.379985   -0.102349
 ---------------------------------------------------------------------

 SCF Done:  E(RB2PLYPD3) =  -155.683960120     A.U. after   11 cycles
 E2(B2PLYPD3) =    -0.2260549249D+00 E(B2PLYPD3) =    -0.15591001504527D+03

 The electronic state is 1-A.
 Alpha  occ. eigenvalues --  -10.62363 -10.62241 -10.61724 -10.61536  -0.93525
 Alpha  occ. eigenvalues --   -0.85189  -0.69720  -0.64327  -0.54269  -0.53678
 Alpha  occ. eigenvalues --   -0.47510  -0.44988  -0.40984  -0.37717  -0.27970
 Alpha virt. eigenvalues --    0.01815   0.07009   0.07557   0.07878   0.09394
 Alpha virt. eigenvalues --    0.11604   0.12548   0.14308   0.15329   0.16224
 Alpha virt. eigenvalues --    0.18405   0.19855   0.21511   0.22080   0.24656

 Mulliken charges:
               1
     1  C   -0.185624
     2  C   -0.007090
     3  C   -0.050634
     4  C   -0.170444
     5  H    0.089586
     6  H    0.058149
     7  H    0.043468
     8  H    0.068535
     9  H    0.066750
    10  H    0.087304
 Sum of Mulliken charges =   0.00000

 Dipole moment (field-independent basis, Debye):
    X=              0.1317    Y=             -0.0703    Z=              0.0690  Tot=              0.1645
 Quadrupole moment (field-independent basis, Debye-Ang):
   XX=            -23.6891   YY=            -23.4431   ZZ=            -29.0760
   XY=              0.3987   XZ=              0.2136   YZ=             -0.1424

 1\1\GINC-NODE40\SP\RB2PLYPD3-FC\def2QZVP\C4H6\BOITTIER\26-Aug-2020\0\\
 #p B2PLYPD3/Def2QZVP\\butadiene\\0,1\C,0,-3.846971,0.180869,-0.010813\
 C,0,-2.708256,-0.450439,0.06772\C,0,-1.366201,0.111558,0.064937\C,0,-0
 .28119,-0.679426,-0.019402\H,0,-4.800289,-0.371889,0.02465\H,0,-3.7679
 68,1.288124,-0.286331\H,0,-2.771611,-1.510645,0.204229\H,0,-1.346899,1
 .123568,0.267261\H,0,-0.509046,-1.713764,0.039832\H,0,0.802719,-0.3379
 91,-0.076131\\Version=ES64L-G09RevD.01\State=1-A\HF=-155.6839601\MP2=-
 155.910015\RMSD=7.899e-09\PG=C01 [X(C4H6)]\\@

 Normal termination of Gaussian 09 at Wed Aug 26 11:32:28 2020.
