 Gaussian 09, Revision D.01,
 Gaussian 09:  ES64L-G09RevD.01 24-Apr-2013

 --------------------
 #p B2PLYPD3/Def2QZVP
 --------------------

 ---------
 butadiene
 ---------
 Symbolic Z-matrix:
 Charge =  0 Multiplicity = 1

                         Standard orientation:
 ---------------------------------------------------------------------
 Center     Atomic      Atomic             Coordinates (Angstroms)
 Number     Number       Type             X           Y           Z
 ---------------------------------------------------------------------
      1          6           0       -1.838314   -0.127524   -0.074168
      2          6           0       -0.614885    0.416141    0.125827
      3          6           0        0.596293   -0.417607    0.078413
      4          6           0        1.833209    0.113221   -0.089816
      5          1           0       -2.659854    0.520505   -0.173524
      6          1           0       -2.030275   -1.152668   -0.046282
      7          1           0       -0.494008    1.496022    0.007075
      8          1           0        0.543094   -1.535992    0.058219
      9          1           0        1.883619    1.209034   -0.021866
     10          1           0        2.899599   -0.442282   -0.065156
 ---------------------------------------------------------------------

 SCF Done:  E(RB2PLYPD3) =  -155.680059950     A.U. after   12 cycles
 E2(B2PLYPD3) =    -0.2279130531D+00 E(B2PLYPD3) =    -0.15590797300278D+03

 The electronic state is 1-A.
 Alpha  occ. eigenvalues --  -10.63521 -10.63374 -10.62966 -10.61285  -0.92516
 Alpha  occ. eigenvalues --   -0.84384  -0.69522  -0.63888  -0.54253  -0.53283
 Alpha  occ. eigenvalues --   -0.45912  -0.45130  -0.41005  -0.37761  -0.27448
 Alpha virt. eigenvalues --    0.01311   0.06912   0.07368   0.07772   0.08770
 Alpha virt. eigenvalues --    0.11550   0.12563   0.14229   0.15699   0.16279
 Alpha virt. eigenvalues --    0.18731   0.19430   0.21711   0.22896   0.24190

 Mulliken charges:
               1
     1  C   -0.167402
     2  C   -0.043869
     3  C   -0.034724
     4  C   -0.165086
     5  H    0.081459
     6  H    0.077515
     7  H    0.063902
     8  H    0.057802
     9  H    0.053501
    10  H    0.076902
 Sum of Mulliken charges =   0.00000

 Dipole moment (field-independent basis, Debye):
    X=             -0.1577    Y=             -0.0134    Z=             -0.0703  Tot=              0.1731
 Quadrupole moment (field-independent basis, Debye-Ang):
   XX=            -23.5016   YY=            -23.1825   ZZ=            -29.5266
   XY=              0.0318   XZ=              0.4641   YZ=             -0.1181

 1\1\GINC-NODE10\SP\RB2PLYPD3-FC\def2QZVP\C4H6\BOITTIER\26-Aug-2020\0\\
 #p B2PLYPD3/Def2QZVP\\butadiene\\0,1\C,0,-3.837069,0.231042,0.100925\C
 ,0,-2.728256,-0.523956,-0.080349\C,0,-1.390325,0.087639,-0.06527\C,0,-
 0.263188,-0.643749,0.120937\H,0,-4.757913,-0.260232,0.225173\H,0,-3.84
 8224,1.272258,0.035411\H,0,-2.795918,-1.60339,0.07808\H,0,-1.248267,1.
 198224,-0.086354\H,0,-0.404437,-1.733363,0.093466\H,0,0.883272,-0.2834
 05,0.074451\\Version=ES64L-G09RevD.01\State=1-A\HF=-155.6800599\MP2=-1
 55.907973\RMSD=5.326e-09\PG=C01 [X(C4H6)]\\@

 Normal termination of Gaussian 09 at Wed Aug 26 12:26:33 2020.
