 Gaussian 09, Revision D.01,
 Gaussian 09:  ES64L-G09RevD.01 24-Apr-2013

 --------------------
 #p B2PLYPD3/Def2QZVP
 --------------------

 ---------
 butadiene
 ---------
 Symbolic Z-matrix:
 Charge =  0 Multiplicity = 1

                         Standard orientation:
 ---------------------------------------------------------------------
 Center     Atomic      Atomic             Coordinates (Angstroms)
 Number     Number       Type             X           Y           Z
 ---------------------------------------------------------------------
      1          6           0        1.850328    0.050450   -0.007421
      2          6           0        0.559843   -0.387433    0.058782
      3          6           0       -0.599186    0.482173   -0.013649
      4          6           0       -1.813791   -0.146182   -0.045828
      5          1           0        2.744874   -0.505413    0.073694
      6          1           0        2.053515    1.128803   -0.185023
      7          1           0        0.359053   -1.443596   -0.070847
      8          1           0       -0.445477    1.631207    0.093704
      9          1           0       -1.923148   -1.217432   -0.044542
     10          1           0       -2.771977    0.412382    0.181706
 ---------------------------------------------------------------------

 SCF Done:  E(RB2PLYPD3) =  -155.679977011     A.U. after   11 cycles
 E2(B2PLYPD3) =    -0.2286654432D+00 E(B2PLYPD3) =    -0.15590864245423D+03

 The electronic state is 1-A.
 Alpha  occ. eigenvalues --  -10.64228 -10.63050 -10.62688 -10.61886  -0.92642
 Alpha  occ. eigenvalues --   -0.83764  -0.69986  -0.63810  -0.54559  -0.52766
 Alpha  occ. eigenvalues --   -0.46624  -0.44374  -0.41667  -0.37483  -0.26902
 Alpha virt. eigenvalues --    0.00851   0.06998   0.07074   0.07915   0.08564
 Alpha virt. eigenvalues --    0.11567   0.12661   0.14432   0.15289   0.16475
 Alpha virt. eigenvalues --    0.18738   0.19608   0.22143   0.22738   0.23680

 Mulliken charges:
               1
     1  C   -0.178171
     2  C   -0.031981
     3  C   -0.032703
     4  C   -0.166837
     5  H    0.088910
     6  H    0.050944
     7  H    0.062842
     8  H    0.064664
     9  H    0.068434
    10  H    0.073899
 Sum of Mulliken charges =   0.00000

 Dipole moment (field-independent basis, Debye):
    X=             -0.0153    Y=             -0.0461    Z=              0.0815  Tot=              0.0949
 Quadrupole moment (field-independent basis, Debye-Ang):
   XX=            -23.6413   YY=            -23.2199   ZZ=            -29.5167
   XY=              0.4741   XZ=             -0.7378   YZ=              0.1406

 1\1\GINC-NODE31\SP\RB2PLYPD3-FC\def2QZVP\C4H6\BOITTIER\26-Aug-2020\0\\
 #p B2PLYPD3/Def2QZVP\\butadiene\\0,1\C,0,-3.860088,0.185921,0.03695\C,
 0,-2.676566,-0.490736,-0.016788\C,0,-1.373237,0.145789,0.01449\C,0,-0.
 299035,-0.699454,0.067262\H,0,-4.844513,-0.193232,-0.01715\H,0,-3.8535
 59,1.289434,0.170695\H,0,-2.677515,-1.559805,0.155526\H,0,-1.308231,1.
 297942,-0.139616\H,0,-0.394206,-1.771214,0.109802\H,0,0.744632,-0.3419
 82,-0.187413\\Version=ES64L-G09RevD.01\State=1-A\HF=-155.679977\MP2=-1
 55.9086425\RMSD=8.814e-09\PG=C01 [X(C4H6)]\\@

 Normal termination of Gaussian 09 at Wed Aug 26 13:45:53 2020.
