 Gaussian 09, Revision D.01,
 Gaussian 09:  ES64L-G09RevD.01 24-Apr-2013

 --------------------
 #p B2PLYPD3/Def2QZVP
 --------------------

 ---------
 butadiene
 ---------
 Symbolic Z-matrix:
 Charge =  0 Multiplicity = 1

                         Standard orientation:
 ---------------------------------------------------------------------
 Center     Atomic      Atomic             Coordinates (Angstroms)
 Number     Number       Type             X           Y           Z
 ---------------------------------------------------------------------
      1          6           0        1.832371    0.100865    0.019892
      2          6           0        0.605450   -0.387432   -0.013416
      3          6           0       -0.598778    0.406912   -0.032661
      4          6           0       -1.823570   -0.115477    0.011836
      5          1           0        2.717221   -0.534172    0.057064
      6          1           0        1.991369    1.161576   -0.003955
      7          1           0        0.447246   -1.448421   -0.060373
      8          1           0       -0.518862    1.507006   -0.017282
      9          1           0       -1.995245   -1.204845    0.021117
     10          1           0       -2.734569    0.489648    0.089525
 ---------------------------------------------------------------------

 SCF Done:  E(RB2PLYPD3) =  -155.699922651     A.U. after   11 cycles
 E2(B2PLYPD3) =    -0.2255379250D+00 E(B2PLYPD3) =    -0.15592546057597D+03

 The electronic state is 1-A.
 Alpha  occ. eigenvalues --  -10.62596 -10.62128 -10.61831 -10.61257  -0.93312
 Alpha  occ. eigenvalues --   -0.85037  -0.70015  -0.64015  -0.54679  -0.53937
 Alpha  occ. eigenvalues --   -0.46810  -0.45119  -0.41028  -0.38379  -0.27791
 Alpha virt. eigenvalues --    0.01868   0.07006   0.07384   0.07993   0.09727
 Alpha virt. eigenvalues --    0.11661   0.12474   0.14636   0.15801   0.16261
 Alpha virt. eigenvalues --    0.18776   0.20452   0.21681   0.22743   0.23737

 Mulliken charges:
               1
     1  C   -0.174462
     2  C   -0.027261
     3  C   -0.028471
     4  C   -0.171225
     5  H    0.085669
     6  H    0.065769
     7  H    0.056211
     8  H    0.051767
     9  H    0.059245
    10  H    0.082759
 Sum of Mulliken charges =   0.00000

 Dipole moment (field-independent basis, Debye):
    X=             -0.0191    Y=             -0.0033    Z=              0.0454  Tot=              0.0493
 Quadrupole moment (field-independent basis, Debye-Ang):
   XX=            -23.3957   YY=            -23.1963   ZZ=            -29.2119
   XY=              0.0987   XZ=             -0.1903   YZ=              0.0468

 1\1\GINC-NODE28\SP\RB2PLYPD3-FC\def2QZVP\C4H6\BOITTIER\26-Aug-2020\0\\
 #p B2PLYPD3/Def2QZVP\\butadiene\\0,1\C,0,-3.83494,0.212691,-0.00046\C,
 0,-2.715711,-0.487148,0.048841\C,0,-1.388149,0.07771,0.043183\C,0,-0.2
 77566,-0.657709,0.015804\H,0,-4.819778,-0.253581,-0.017684\H,0,-3.8004
 04,1.284915,-0.010501\H,0,-2.750696,-1.557276,0.129659\H,0,-1.268949,1
 .173189,-0.007292\H,0,-0.304708,-1.759931,0.041323\H,0,0.726995,-0.229
 161,-0.080811\\Version=ES64L-G09RevD.01\State=1-A\HF=-155.6999227\MP2=
 -155.9254606\RMSD=2.996e-09\PG=C01 [X(C4H6)]\\@

 Normal termination of Gaussian 09 at Wed Aug 26 21:48:08 2020.
