 Gaussian 09, Revision D.01,
 Gaussian 09:  ES64L-G09RevD.01 24-Apr-2013

 --------------------
 #p B2PLYPD3/Def2QZVP
 --------------------

 ---------
 butadiene
 ---------
 Symbolic Z-matrix:
 Charge =  0 Multiplicity = 1

                         Standard orientation:
 ---------------------------------------------------------------------
 Center     Atomic      Atomic             Coordinates (Angstroms)
 Number     Number       Type             X           Y           Z
 ---------------------------------------------------------------------
      1          6           0        1.835558    0.092237   -0.010389
      2          6           0        0.598428   -0.384777    0.042726
      3          6           0       -0.599952    0.435675   -0.036331
      4          6           0       -1.839465   -0.118764   -0.006204
      5          1           0        2.747474   -0.598220   -0.023510
      6          1           0        1.938117    1.192303    0.125764
      7          1           0        0.358829   -1.501718   -0.164999
      8          1           0       -0.337300    1.481546   -0.053760
      9          1           0       -1.909051   -1.164008    0.134388
     10          1           0       -2.765480    0.443877    0.043308
 ---------------------------------------------------------------------

 SCF Done:  E(RB2PLYPD3) =  -155.684579627     A.U. after   11 cycles
 E2(B2PLYPD3) =    -0.2276001757D+00 E(B2PLYPD3) =    -0.15591217980278D+03

 The electronic state is 1-A.
 Alpha  occ. eigenvalues --  -10.63054 -10.62990 -10.62531 -10.61885  -0.93064
 Alpha  occ. eigenvalues --   -0.84524  -0.70070  -0.63323  -0.54295  -0.53008
 Alpha  occ. eigenvalues --   -0.46947  -0.45325  -0.40285  -0.38079  -0.27668
 Alpha virt. eigenvalues --    0.01382   0.07017   0.07095   0.07945   0.09003
 Alpha virt. eigenvalues --    0.11755   0.12497   0.14526   0.15035   0.16122
 Alpha virt. eigenvalues --    0.18569   0.19563   0.21581   0.23224   0.23754

 Mulliken charges:
               1
     1  C   -0.183008
     2  C   -0.010763
     3  C   -0.034894
     4  C   -0.171143
     5  H    0.089248
     6  H    0.061479
     7  H    0.043376
     8  H    0.051299
     9  H    0.067488
    10  H    0.086918
 Sum of Mulliken charges =   0.00000

 Dipole moment (field-independent basis, Debye):
    X=             -0.0267    Y=              0.0354    Z=              0.0814  Tot=              0.0927
 Quadrupole moment (field-independent basis, Debye-Ang):
   XX=            -23.5786   YY=            -23.4635   ZZ=            -29.3883
   XY=              0.2363   XZ=             -0.3173   YZ=              0.1810

 1\1\GINC-NODE14\SP\RB2PLYPD3-FC\def2QZVP\C4H6\BOITTIER\26-Aug-2020\0\\
 #p B2PLYPD3/Def2QZVP\\butadiene\\0,1\C,0,-3.840054,0.213152,0.030766\C
 ,0,-2.712813,-0.486264,-0.000835\C,0,-1.382885,0.101142,0.041021\C,0,-
 0.26741,-0.673708,0.035881\H,0,-4.863671,-0.295509,0.075106\H,0,-3.738
 795,1.306071,-0.154912\H,0,-2.681911,-1.617914,0.257095\H,0,-1.447677,
 1.177269,0.011226\H,0,-0.393275,-1.718985,-0.057377\H,0,0.746147,-0.29
 4751,-0.039043\\Version=ES64L-G09RevD.01\State=1-A\HF=-155.6845796\MP2
 =-155.9121798\RMSD=7.008e-09\PG=C01 [X(C4H6)]\\@

 Normal termination of Gaussian 09 at Wed Aug 26 12:49:30 2020.
