 Gaussian 09, Revision D.01,
 Gaussian 09:  ES64L-G09RevD.01 24-Apr-2013

 --------------------
 #p B2PLYPD3/Def2QZVP
 --------------------

 ---------
 butadiene
 ---------
 Symbolic Z-matrix:
 Charge =  0 Multiplicity = 1

                         Standard orientation:
 ---------------------------------------------------------------------
 Center     Atomic      Atomic             Coordinates (Angstroms)
 Number     Number       Type             X           Y           Z
 ---------------------------------------------------------------------
      1          6           0        1.867796    0.107199   -0.098292
      2          6           0        0.602731   -0.411167    0.129896
      3          6           0       -0.623437    0.354698    0.071841
      4          6           0       -1.870182   -0.097985   -0.048909
      5          1           0        2.895041   -0.406151   -0.073498
      6          1           0        1.952796    1.227079   -0.042437
      7          1           0        0.552101   -1.490305   -0.014524
      8          1           0       -0.407831    1.455169    0.088495
      9          1           0       -2.126309   -1.100052   -0.143919
     10          1           0       -2.727250    0.597792   -0.141331
 ---------------------------------------------------------------------

 SCF Done:  E(RB2PLYPD3) =  -155.680434710     A.U. after   12 cycles
 E2(B2PLYPD3) =    -0.2283542770D+00 E(B2PLYPD3) =    -0.15590878898679D+03

 The electronic state is 1-A.
 Alpha  occ. eigenvalues --  -10.63756 -10.63560 -10.63299 -10.61657  -0.92626
 Alpha  occ. eigenvalues --   -0.84290  -0.70395  -0.63739  -0.54376  -0.53404
 Alpha  occ. eigenvalues --   -0.46881  -0.44340  -0.40405  -0.37959  -0.27547
 Alpha virt. eigenvalues --    0.00545   0.06828   0.07459   0.07817   0.09326
 Alpha virt. eigenvalues --    0.11391   0.12547   0.14300   0.15410   0.16579
 Alpha virt. eigenvalues --    0.19043   0.19169   0.21983   0.22457   0.23628

 Mulliken charges:
               1
     1  C   -0.160990
     2  C   -0.038646
     3  C   -0.022347
     4  C   -0.172850
     5  H    0.085433
     6  H    0.046499
     7  H    0.058870
     8  H    0.047447
     9  H    0.074084
    10  H    0.082499
 Sum of Mulliken charges =   0.00000

 Dipole moment (field-independent basis, Debye):
    X=              0.0178    Y=             -0.0418    Z=             -0.1666  Tot=              0.1727
 Quadrupole moment (field-independent basis, Debye-Ang):
   XX=            -22.7705   YY=            -23.7445   ZZ=            -29.4974
   XY=              0.2056   XZ=              0.3263   YZ=              0.2331

 1\1\GINC-NODE03\SP\RB2PLYPD3-FC\def2QZVP\C4H6\BOITTIER\26-Aug-2020\0\\
 #p B2PLYPD3/Def2QZVP\\butadiene\\0,1\C,0,-3.872903,0.229931,0.1155\C,0
 ,-2.7201,-0.512754,-0.086059\C,0,-1.377591,0.025703,-0.052285\C,0,-0.2
 30408,-0.635346,0.09215\H,0,-4.974854,-0.094088,0.105985\H,0,-3.758434
 ,1.344077,0.015244\H,0,-2.860985,-1.577249,0.100925\H,0,-1.395013,1.14
 5427,-0.113234\H,0,-0.155509,-1.662369,0.227718\H,0,0.736501,-0.099132
 ,0.16125\\Version=ES64L-G09RevD.01\State=1-A\HF=-155.6804347\MP2=-155.
 908789\RMSD=4.507e-09\PG=C01 [X(C4H6)]\\@

 Normal termination of Gaussian 09 at Wed Aug 26 15:52:41 2020.
