 Gaussian 09, Revision D.01,
 Gaussian 09:  ES64L-G09RevD.01 24-Apr-2013

 --------------------
 #p B2PLYPD3/Def2QZVP
 --------------------

 ---------
 butadiene
 ---------
 Symbolic Z-matrix:
 Charge =  0 Multiplicity = 1

                         Standard orientation:
 ---------------------------------------------------------------------
 Center     Atomic      Atomic             Coordinates (Angstroms)
 Number     Number       Type             X           Y           Z
 ---------------------------------------------------------------------
      1          6           0       -1.853804    0.063578   -0.021020
      2          6           0       -0.615155   -0.361032   -0.025175
      3          6           0        0.599106    0.444858   -0.081433
      4          6           0        1.856219   -0.116396    0.027805
      5          1           0       -2.634688   -0.544898    0.159287
      6          1           0       -2.053826    1.093344    0.148936
      7          1           0       -0.431450   -1.430639    0.059042
      8          1           0        0.359687    1.499031    0.100698
      9          1           0        1.996379   -1.189341    0.001826
     10          1           0        2.845700    0.386449    0.129143
 ---------------------------------------------------------------------

 SCF Done:  E(RB2PLYPD3) =  -155.681958594     A.U. after   11 cycles
 E2(B2PLYPD3) =    -0.2267239781D+00 E(B2PLYPD3) =    -0.15590868257163D+03

 The electronic state is 1-A.
 Alpha  occ. eigenvalues --  -10.63778 -10.63186 -10.62220 -10.59943  -0.93010
 Alpha  occ. eigenvalues --   -0.84816  -0.71140  -0.64150  -0.55762  -0.52967
 Alpha  occ. eigenvalues --   -0.47966  -0.45107  -0.40797  -0.37680  -0.27741
 Alpha virt. eigenvalues --    0.00970   0.07015   0.07381   0.08194   0.09262
 Alpha virt. eigenvalues --    0.11537   0.12844   0.14623   0.15536   0.16648
 Alpha virt. eigenvalues --    0.18958   0.19617   0.21913   0.22699   0.24348

 Mulliken charges:
               1
     1  C   -0.160655
     2  C   -0.012770
     3  C   -0.039710
     4  C   -0.166978
     5  H    0.080735
     6  H    0.048167
     7  H    0.044467
     8  H    0.059946
     9  H    0.064777
    10  H    0.082020
 Sum of Mulliken charges =   0.00000

 Dipole moment (field-independent basis, Debye):
    X=              0.1315    Y=             -0.0925    Z=              0.4837  Tot=              0.5097
 Quadrupole moment (field-independent basis, Debye-Ang):
   XX=            -22.9802   YY=            -23.6550   ZZ=            -29.1533
   XY=             -0.5349   XZ=             -0.3536   YZ=              0.2036

 1\1\GINC-NODE35\SP\RB2PLYPD3-FC\def2QZVP\C4H6\BOITTIER\26-Aug-2020\0\\
 #p B2PLYPD3/Def2QZVP\\butadiene\\0,1\C,0,-3.86059,0.191437,0.01625\C,0
 ,-2.723326,-0.45755,0.019309\C,0,-1.379975,0.105532,-0.054163\C,0,-0.2
 49614,-0.678921,0.064965\H,0,-4.740699,-0.256491,0.209391\H,0,-3.86355
 6,1.243534,0.165899\H,0,-2.742652,-1.540805,0.124591\H,0,-1.417016,1.1
 8921,0.107213\H,0,-0.312857,-1.759434,0.060182\H,0,0.816957,-0.36834,0
 .155305\\Version=ES64L-G09RevD.01\State=1-A\HF=-155.6819586\MP2=-155.9
 086826\RMSD=9.159e-09\PG=C01 [X(C4H6)]\\@

 Normal termination of Gaussian 09 at Wed Aug 26 14:45:05 2020.
