 Gaussian 09, Revision D.01,
 Gaussian 09:  ES64L-G09RevD.01 24-Apr-2013

 --------------------
 #p B2PLYPD3/Def2QZVP
 --------------------

 ---------
 butadiene
 ---------
 Symbolic Z-matrix:
 Charge =  0 Multiplicity = 1

                         Standard orientation:
 ---------------------------------------------------------------------
 Center     Atomic      Atomic             Coordinates (Angstroms)
 Number     Number       Type             X           Y           Z
 ---------------------------------------------------------------------
      1          6           0       -1.856950   -0.105832   -0.043656
      2          6           0       -0.614606    0.352528    0.110774
      3          6           0        0.648323   -0.423666    0.049173
      4          6           0        1.831468    0.147254   -0.069786
      5          1           0       -2.560080    0.612215   -0.162183
      6          1           0       -2.174915   -1.129237   -0.048554
      7          1           0       -0.509161    1.425872   -0.072328
      8          1           0        0.645093   -1.439821    0.015713
      9          1           0        1.883502    1.244659    0.049770
     10          1           0        2.666148   -0.535395   -0.061446
 ---------------------------------------------------------------------

 SCF Done:  E(RB2PLYPD3) =  -155.683887537     A.U. after   11 cycles
 E2(B2PLYPD3) =    -0.2252098403D+00 E(B2PLYPD3) =    -0.15590909737697D+03

 The electronic state is 1-A.
 Alpha  occ. eigenvalues --  -10.62632 -10.61551 -10.61225 -10.60628  -0.92958
 Alpha  occ. eigenvalues --   -0.85903  -0.69956  -0.64441  -0.55404  -0.53966
 Alpha  occ. eigenvalues --   -0.46265  -0.46035  -0.41230  -0.37831  -0.28106
 Alpha virt. eigenvalues --    0.01998   0.07059   0.07691   0.08077   0.09283
 Alpha virt. eigenvalues --    0.11726   0.12414   0.14916   0.15505   0.16198
 Alpha virt. eigenvalues --    0.18865   0.19329   0.21640   0.23042   0.25117

 Mulliken charges:
               1
     1  C   -0.175122
     2  C   -0.034908
     3  C   -0.038963
     4  C   -0.166826
     5  H    0.082695
     6  H    0.073765
     7  H    0.051454
     8  H    0.060125
     9  H    0.066888
    10  H    0.080890
 Sum of Mulliken charges =   0.00000

 Dipole moment (field-independent basis, Debye):
    X=             -0.0694    Y=             -0.1202    Z=             -0.1297  Tot=              0.1900
 Quadrupole moment (field-independent basis, Debye-Ang):
   XX=            -23.8676   YY=            -22.8726   ZZ=            -29.0603
   XY=             -0.1689   XZ=              0.6147   YZ=             -0.1117

 1\1\GINC-NODE37\SP\RB2PLYPD3-FC\def2QZVP\C4H6\BOITTIER\26-Aug-2020\0\\
 #p B2PLYPD3/Def2QZVP\\butadiene\\0,1\C,0,-3.864727,0.206981,0.074868\C
 ,0,-2.720953,-0.464102,-0.062208\C,0,-1.343187,0.085925,-0.040062\C,0,
 -0.274038,-0.673595,0.101297\H,0,-4.679083,-0.37381,0.228289\H,0,-4.00
 2708,1.268944,0.033881\H,0,-2.798851,-1.53038,0.169516\H,0,-1.17203,1.
 088041,-0.053146\H,0,-0.41196,-1.767883,0.031946\H,0,0.665054,-0.14529
 3,0.059166\\Version=ES64L-G09RevD.01\State=1-A\HF=-155.6838875\MP2=-15
 5.9090974\RMSD=7.116e-09\PG=C01 [X(C4H6)]\\@

 Normal termination of Gaussian 09 at Wed Aug 26 15:28:38 2020.
