 Gaussian 09, Revision D.01,
 Gaussian 09:  ES64L-G09RevD.01 24-Apr-2013

 --------------------
 #p B2PLYPD3/Def2QZVP
 --------------------

 ---------
 butadiene
 ---------
 Symbolic Z-matrix:
 Charge =  0 Multiplicity = 1

                         Standard orientation:
 ---------------------------------------------------------------------
 Center     Atomic      Atomic             Coordinates (Angstroms)
 Number     Number       Type             X           Y           Z
 ---------------------------------------------------------------------
      1          6           0        1.862457    0.136605    0.036147
      2          6           0        0.613057   -0.448098   -0.105827
      3          6           0       -0.606701    0.358321   -0.060499
      4          6           0       -1.863485   -0.101432    0.048483
      5          1           0        2.708740   -0.477894    0.096456
      6          1           0        1.964553    1.252153    0.321457
      7          1           0        0.587354   -1.472720   -0.020396
      8          1           0       -0.446481    1.404047   -0.197464
      9          1           0       -2.251885   -1.057568    0.265346
     10          1           0       -2.594256    0.679605    0.024775
 ---------------------------------------------------------------------

 SCF Done:  E(RB2PLYPD3) =  -155.681609723     A.U. after   12 cycles
 E2(B2PLYPD3) =    -0.2271886439D+00 E(B2PLYPD3) =    -0.15590879836725D+03

 The electronic state is 1-A.
 Alpha  occ. eigenvalues --  -10.62755 -10.62690 -10.62646 -10.61170  -0.92427
 Alpha  occ. eigenvalues --   -0.84503  -0.70595  -0.64724  -0.55076  -0.53425
 Alpha  occ. eigenvalues --   -0.46921  -0.45301  -0.41571  -0.37325  -0.27166
 Alpha virt. eigenvalues --    0.00836   0.06862   0.07549   0.08128   0.09145
 Alpha virt. eigenvalues --    0.11416   0.12416   0.15019   0.15521   0.16524
 Alpha virt. eigenvalues --    0.18753   0.19893   0.21870   0.22135   0.23641

 Mulliken charges:
               1
     1  C   -0.170603
     2  C   -0.056647
     3  C   -0.033535
     4  C   -0.176964
     5  H    0.085824
     6  H    0.061549
     7  H    0.072021
     8  H    0.069226
     9  H    0.079101
    10  H    0.070028
 Sum of Mulliken charges =   0.00000

 Dipole moment (field-independent basis, Debye):
    X=              0.0004    Y=             -0.0976    Z=              0.3687  Tot=              0.3814
 Quadrupole moment (field-independent basis, Debye-Ang):
   XX=            -23.7596   YY=            -23.0341   ZZ=            -29.2287
   XY=              0.1538   XZ=              0.3198   YZ=             -0.1960

 1\1\GINC-NODE11\SP\RB2PLYPD3-FC\def2QZVP\C4H6\BOITTIER\26-Aug-2020\0\\
 #p B2PLYPD3/Def2QZVP\\butadiene\\0,1\C,0,-3.857785,0.25821,-0.031246\C
 ,0,-2.733739,-0.536894,0.134177\C,0,-1.388845,0.034917,0.067325\C,0,-0
 .23559,-0.64682,-0.022086\H,0,-4.800988,-0.195565,-0.074795\H,0,-3.758
 026,1.364058,-0.352838\H,0,-2.893082,-1.551634,0.082003\H,0,-1.35791,1
 .096288,0.169825\H,0,-0.02612,-1.663774,-0.206493\H,0,0.623887,-0.0097
 13,-0.020929\\Version=ES64L-G09RevD.01\State=1-A\HF=-155.6816097\MP2=-
 155.9087984\RMSD=4.315e-09\PG=C01 [X(C4H6)]\\@

 Normal termination of Gaussian 09 at Wed Aug 26 11:29:30 2020.
