 Gaussian 09, Revision D.01,
 Gaussian 09:  ES64L-G09RevD.01 24-Apr-2013

 --------------------
 #p B2PLYPD3/Def2QZVP
 --------------------

 ---------
 butadiene
 ---------
 Symbolic Z-matrix:
 Charge =  0 Multiplicity = 1

                         Standard orientation:
 ---------------------------------------------------------------------
 Center     Atomic      Atomic             Coordinates (Angstroms)
 Number     Number       Type             X           Y           Z
 ---------------------------------------------------------------------
      1          6           0        1.834290   -0.127514    0.034819
      2          6           0        0.605535    0.442031   -0.033219
      3          6           0       -0.590453   -0.389061   -0.042111
      4          6           0       -1.834018    0.091252    0.042299
      5          1           0        2.743719    0.480686   -0.046684
      6          1           0        1.952168   -1.253452    0.115018
      7          1           0        0.474806    1.520820   -0.013605
      8          1           0       -0.469004   -1.453283   -0.104058
      9          1           0       -2.041071    1.142313    0.029826
     10          1           0       -2.752744   -0.537335    0.008775
 ---------------------------------------------------------------------

 SCF Done:  E(RB2PLYPD3) =  -155.695261423     A.U. after   11 cycles
 E2(B2PLYPD3) =    -0.2267346433D+00 E(B2PLYPD3) =    -0.15592199606623D+03

 The electronic state is 1-A.
 Alpha  occ. eigenvalues --  -10.63088 -10.62620 -10.62449 -10.61591  -0.92805
 Alpha  occ. eigenvalues --   -0.84362  -0.69625  -0.64265  -0.54346  -0.53364
 Alpha  occ. eigenvalues --   -0.46432  -0.45128  -0.41320  -0.37882  -0.27457
 Alpha virt. eigenvalues --    0.01532   0.06962   0.07316   0.07978   0.09277
 Alpha virt. eigenvalues --    0.11637   0.12417   0.14451   0.15794   0.16216
 Alpha virt. eigenvalues --    0.18835   0.20327   0.21474   0.22692   0.23677

 Mulliken charges:
               1
     1  C   -0.170427
     2  C   -0.044748
     3  C   -0.026142
     4  C   -0.171834
     5  H    0.085438
     6  H    0.064971
     7  H    0.064043
     8  H    0.060413
     9  H    0.061356
    10  H    0.076930
 Sum of Mulliken charges =   0.00000

 Dipole moment (field-independent basis, Debye):
    X=              0.0133    Y=              0.0377    Z=             -0.0669  Tot=              0.0780
 Quadrupole moment (field-independent basis, Debye-Ang):
   XX=            -23.5971   YY=            -23.0667   ZZ=            -29.4275
   XY=             -0.1765   XZ=              0.0396   YZ=             -0.0439

 1\1\GINC-NODE26\SP\RB2PLYPD3-FC\def2QZVP\C4H6\BOITTIER\26-Aug-2020\0\\
 #p B2PLYPD3/Def2QZVP\\butadiene\\0,1\C,0,-3.830592,0.244227,0.053165\C
 ,0,-2.725346,-0.539688,0.000638\C,0,-1.398776,0.060857,-0.026527\C,0,-
 0.262375,-0.634355,0.071222\H,0,-4.835275,-0.191177,-0.014989\H,0,-3.7
 42605,1.374503,0.106064\H,0,-2.791871,-1.623542,0.046407\H,0,-1.325883
 ,1.127696,-0.114253\H,0,-0.248915,-1.705523,0.084356\H,0,0.754803,-0.1
 83342,0.023906\\Version=ES64L-G09RevD.01\State=1-A\HF=-155.6952614\MP2
 =-155.9219961\RMSD=7.280e-09\PG=C01 [X(C4H6)]\\@

 Normal termination of Gaussian 09 at Wed Aug 26 08:51:05 2020.
