 Gaussian 09, Revision D.01,
 Gaussian 09:  ES64L-G09RevD.01 24-Apr-2013

 --------------------
 #p B2PLYPD3/Def2QZVP
 --------------------

 ---------
 butadiene
 ---------
 Symbolic Z-matrix:
 Charge =  0 Multiplicity = 1

                         Standard orientation:
 ---------------------------------------------------------------------
 Center     Atomic      Atomic             Coordinates (Angstroms)
 Number     Number       Type             X           Y           Z
 ---------------------------------------------------------------------
      1          6           0       -1.870311   -0.104661    0.032092
      2          6           0       -0.598654    0.389965   -0.051579
      3          6           0        0.621345   -0.410999   -0.025380
      4          6           0        1.850580    0.111462    0.014770
      5          1           0       -2.731551    0.532792    0.146339
      6          1           0       -2.101858   -1.122468    0.011748
      7          1           0       -0.444557    1.475094   -0.120943
      8          1           0        0.504218   -1.518083   -0.071255
      9          1           0        1.979758    1.199514    0.105406
     10          1           0        2.776224   -0.481452    0.109281
 ---------------------------------------------------------------------

 SCF Done:  E(RB2PLYPD3) =  -155.695136265     A.U. after   11 cycles
 E2(B2PLYPD3) =    -0.2267764303D+00 E(B2PLYPD3) =    -0.15592191269568D+03

 The electronic state is 1-A.
 Alpha  occ. eigenvalues --  -10.63431 -10.63116 -10.62086 -10.61672  -0.92503
 Alpha  occ. eigenvalues --   -0.84509  -0.70485  -0.63806  -0.54539  -0.53551
 Alpha  occ. eigenvalues --   -0.46762  -0.45528  -0.41112  -0.37686  -0.27462
 Alpha virt. eigenvalues --    0.01226   0.06962   0.07412   0.07948   0.09364
 Alpha virt. eigenvalues --    0.11522   0.12562   0.14549   0.15941   0.16103
 Alpha virt. eigenvalues --    0.18892   0.20628   0.21681   0.22693   0.23218

 Mulliken charges:
               1
     1  C   -0.177680
     2  C   -0.038266
     3  C   -0.029051
     4  C   -0.166317
     5  H    0.083547
     6  H    0.071137
     7  H    0.057748
     8  H    0.054248
     9  H    0.059604
    10  H    0.085028
 Sum of Mulliken charges =   0.00000

 Dipole moment (field-independent basis, Debye):
    X=              0.0066    Y=             -0.0312    Z=              0.1158  Tot=              0.1202
 Quadrupole moment (field-independent basis, Debye-Ang):
   XX=            -23.1732   YY=            -23.2988   ZZ=            -29.3933
   XY=              0.2700   XZ=              0.0785   YZ=              0.0963

 1\1\GINC-NODE21\SP\RB2PLYPD3-FC\def2QZVP\C4H6\BOITTIER\26-Aug-2020\0\\
 #p B2PLYPD3/Def2QZVP\\butadiene\\0,1\C,0,-3.874289,0.22087,-0.0144\C,0
 ,-2.711594,-0.491713,0.081167\C,0,-1.367912,0.076938,0.038979\C,0,-0.2
 52293,-0.658063,0.011309\H,0,-4.836126,-0.254235,-0.11578\H,0,-3.91967
 6,1.263892,-0.016178\H,0,-2.75421,-1.585161,0.174002\H,0,-1.284661,1.1
 87815,0.060922\H,0,-0.320406,-1.753334,-0.055781\H,0,0.764328,-0.24275
 9,-0.094997\\Version=ES64L-G09RevD.01\State=1-A\HF=-155.6951363\MP2=-1
 55.9219127\RMSD=6.722e-09\PG=C01 [X(C4H6)]\\@

 Normal termination of Gaussian 09 at Wed Aug 26 09:09:59 2020.
