 Gaussian 09, Revision D.01,
 Gaussian 09:  ES64L-G09RevD.01 24-Apr-2013

 --------------------
 #p B2PLYPD3/Def2QZVP
 --------------------

 ---------
 butadiene
 ---------
 Symbolic Z-matrix:
 Charge =  0 Multiplicity = 1

                         Standard orientation:
 ---------------------------------------------------------------------
 Center     Atomic      Atomic             Coordinates (Angstroms)
 Number     Number       Type             X           Y           Z
 ---------------------------------------------------------------------
      1          6           0       -1.842534    0.085872    0.058556
      2          6           0       -0.556251   -0.401164   -0.049317
      3          6           0        0.602111    0.465740   -0.101459
      4          6           0        1.820809   -0.111350    0.035776
      5          1           0       -2.697265   -0.587595    0.173818
      6          1           0       -2.179718    1.102131    0.082726
      7          1           0       -0.384445   -1.458058   -0.227146
      8          1           0        0.469514    1.607429   -0.105189
      9          1           0        1.873802   -1.265523    0.088644
     10          1           0        2.773309    0.367029    0.325805
 ---------------------------------------------------------------------

 SCF Done:  E(RB2PLYPD3) =  -155.680533757     A.U. after   12 cycles
 E2(B2PLYPD3) =    -0.2288110521D+00 E(B2PLYPD3) =    -0.15590934480883D+03

 The electronic state is 1-A.
 Alpha  occ. eigenvalues --  -10.63880 -10.63549 -10.62992 -10.62056  -0.92621
 Alpha  occ. eigenvalues --   -0.83588  -0.69955  -0.63714  -0.54571  -0.52590
 Alpha  occ. eigenvalues --   -0.46401  -0.44328  -0.41549  -0.37533  -0.26880
 Alpha virt. eigenvalues --    0.01051   0.06923   0.07085   0.07789   0.08680
 Alpha virt. eigenvalues --    0.11335   0.12640   0.14321   0.15521   0.16388
 Alpha virt. eigenvalues --    0.18692   0.20099   0.21603   0.22493   0.23627

 Mulliken charges:
               1
     1  C   -0.185036
     2  C   -0.034443
     3  C   -0.034238
     4  C   -0.155071
     5  H    0.072814
     6  H    0.070366
     7  H    0.073246
     8  H    0.063864
     9  H    0.044329
    10  H    0.084169
 Sum of Mulliken charges =   0.00000

 Dipole moment (field-independent basis, Debye):
    X=              0.0385    Y=              0.0572    Z=              0.2008  Tot=              0.2123
 Quadrupole moment (field-independent basis, Debye-Ang):
   XX=            -23.6839   YY=            -23.2230   ZZ=            -29.4808
   XY=             -0.4908   XZ=              0.5789   YZ=              0.2035

 1\1\GINC-NODE09\SP\RB2PLYPD3-FC\def2QZVP\C4H6\BOITTIER\26-Aug-2020\0\\
 #p B2PLYPD3/Def2QZVP\\butadiene\\0,1\C,0,-3.848737,0.216822,0.076027\C
 ,0,-2.67809,-0.508202,-0.009346\C,0,-1.376454,0.121505,-0.08185\C,0,-0
 .289154,-0.671348,0.08018\H,0,-4.815566,-0.278566,0.207326\H,0,-3.9872
 21,1.278799,0.066664\H,0,-2.709737,-1.58359,-0.153241\H,0,-1.290298,1.
 266943,-0.121838\H,0,-0.455821,-1.812405,0.169218\H,0,0.736835,-0.3731
 23,0.360591\\Version=ES64L-G09RevD.01\State=1-A\HF=-155.6805338\MP2=-1
 55.9093448\RMSD=4.177e-09\PG=C01 [X(C4H6)]\\@

 Normal termination of Gaussian 09 at Wed Aug 26 16:11:50 2020.
