 Gaussian 09, Revision D.01,
 Gaussian 09:  ES64L-G09RevD.01 24-Apr-2013

 --------------------
 #p B2PLYPD3/Def2QZVP
 --------------------

 ---------
 butadiene
 ---------
 Symbolic Z-matrix:
 Charge =  0 Multiplicity = 1

                         Standard orientation:
 ---------------------------------------------------------------------
 Center     Atomic      Atomic             Coordinates (Angstroms)
 Number     Number       Type             X           Y           Z
 ---------------------------------------------------------------------
      1          6           0        1.844174   -0.118062    0.021902
      2          6           0        0.611117    0.408099   -0.009747
      3          6           0       -0.615595   -0.384474   -0.022497
      4          6           0       -1.840226    0.105562    0.010699
      5          1           0        2.740969    0.479515   -0.044302
      6          1           0        1.959133   -1.193690    0.044649
      7          1           0        0.472582    1.473483   -0.056083
      8          1           0       -0.484117   -1.443682   -0.014027
      9          1           0       -1.979119    1.177100    0.089525
     10          1           0       -2.706265   -0.559477   -0.021904
 ---------------------------------------------------------------------

 SCF Done:  E(RB2PLYPD3) =  -155.700458709     A.U. after   11 cycles
 E2(B2PLYPD3) =    -0.2253803967D+00 E(B2PLYPD3) =    -0.15592583910532D+03

 The electronic state is 1-A.
 Alpha  occ. eigenvalues --  -10.62556 -10.62024 -10.61632 -10.61377  -0.93056
 Alpha  occ. eigenvalues --   -0.85103  -0.70013  -0.64308  -0.54534  -0.54049
 Alpha  occ. eigenvalues --   -0.46925  -0.45691  -0.41065  -0.38078  -0.27855
 Alpha virt. eigenvalues --    0.01835   0.06994   0.07492   0.08088   0.09672
 Alpha virt. eigenvalues --    0.11718   0.12460   0.14649   0.15801   0.16112
 Alpha virt. eigenvalues --    0.18805   0.20487   0.21443   0.22831   0.24008

 Mulliken charges:
               1
     1  C   -0.175231
     2  C   -0.036316
     3  C   -0.023231
     4  C   -0.177777
     5  H    0.088229
     6  H    0.063966
     7  H    0.054323
     8  H    0.052851
     9  H    0.065246
    10  H    0.087940
 Sum of Mulliken charges =   0.00000

 Dipole moment (field-independent basis, Debye):
    X=              0.0111    Y=             -0.0145    Z=             -0.0224  Tot=              0.0289
 Quadrupole moment (field-independent basis, Debye-Ang):
   XX=            -23.4787   YY=            -23.1500   ZZ=            -29.2146
   XY=              0.0060   XZ=             -0.2012   YZ=             -0.0146

 1\1\GINC-NODE06\SP\RB2PLYPD3-FC\def2QZVP\C4H6\BOITTIER\26-Aug-2020\0\\
 #p B2PLYPD3/Def2QZVP\\butadiene\\0,1\C,0,-3.846123,0.228938,0.036985\C
 ,0,-2.725665,-0.507729,0.023849\C,0,-1.3781,0.054671,-0.006672\C,0,-0.
 259437,-0.643172,0.04399\H,0,-4.834605,-0.202164,-0.015699\H,0,-3.7689
 22,1.308149,0.029776\H,0,-2.777888,-1.581685,0.007274\H,0,-1.320087,1.
 120256,-0.027756\H,0,-0.312191,-1.719786,0.1527\H,0,0.710548,-0.142988
 ,-0.00405\\Version=ES64L-G09RevD.01\State=1-A\HF=-155.7004587\MP2=-155
 .9258391\RMSD=5.306e-09\PG=C01 [X(C4H6)]\\@

 Normal termination of Gaussian 09 at Wed Aug 26 22:08:21 2020.
