 Gaussian 09, Revision D.01,
 Gaussian 09:  ES64L-G09RevD.01 24-Apr-2013

 --------------------
 #p B2PLYPD3/Def2QZVP
 --------------------

 ---------
 butadiene
 ---------
 Symbolic Z-matrix:
 Charge =  0 Multiplicity = 1

                         Standard orientation:
 ---------------------------------------------------------------------
 Center     Atomic      Atomic             Coordinates (Angstroms)
 Number     Number       Type             X           Y           Z
 ---------------------------------------------------------------------
      1          6           0       -1.863253    0.061816   -0.094101
      2          6           0       -0.614883   -0.374244    0.100482
      3          6           0        0.609438    0.479703    0.017371
      4          6           0        1.829150   -0.146672   -0.037776
      5          1           0       -2.641300   -0.575930   -0.074905
      6          1           0       -1.923385    1.190600    0.037677
      7          1           0       -0.380590   -1.464198    0.131223
      8          1           0        0.419920    1.539784    0.177930
      9          1           0        1.979941   -1.240337   -0.052517
     10          1           0        2.782696    0.426461   -0.135266
 ---------------------------------------------------------------------

 SCF Done:  E(RB2PLYPD3) =  -155.678676325     A.U. after   12 cycles
 E2(B2PLYPD3) =    -0.2278943828D+00 E(B2PLYPD3) =    -0.15590657070761D+03

 The electronic state is 1-A.
 Alpha  occ. eigenvalues --  -10.63884 -10.63091 -10.62927 -10.61142  -0.92255
 Alpha  occ. eigenvalues --   -0.84423  -0.69894  -0.63555  -0.55463  -0.52100
 Alpha  occ. eigenvalues --   -0.48051  -0.44126  -0.40896  -0.37125  -0.27665
 Alpha virt. eigenvalues --    0.01430   0.06949   0.07123   0.08067   0.08748
 Alpha virt. eigenvalues --    0.11564   0.12424   0.14281   0.15406   0.16477
 Alpha virt. eigenvalues --    0.18729   0.19312   0.21527   0.23480   0.23602

 Mulliken charges:
               1
     1  C   -0.175341
     2  C   -0.020126
     3  C   -0.043928
     4  C   -0.170080
     5  H    0.093970
     6  H    0.055297
     7  H    0.043797
     8  H    0.065707
     9  H    0.072599
    10  H    0.078105
 Sum of Mulliken charges =   0.00000

 Dipole moment (field-independent basis, Debye):
    X=              0.1512    Y=             -0.0791    Z=              0.1654  Tot=              0.2377
 Quadrupole moment (field-independent basis, Debye-Ang):
   XX=            -23.8535   YY=            -23.1216   ZZ=            -29.4922
   XY=             -0.1934   XZ=             -0.3085   YZ=              0.2624

 1\1\GINC-NODE30\SP\RB2PLYPD3-FC\def2QZVP\C4H6\BOITTIER\26-Aug-2020\0\\
 #p B2PLYPD3/Def2QZVP\\butadiene\\0,1\C,0,-3.869047,0.184613,-0.064736\
 C,0,-2.721304,-0.472377,0.128882\C,0,-1.361479,0.142935,0.043077\C,0,-
 0.277116,-0.696187,-0.01274\H,0,-4.750658,-0.299913,-0.043698\H,0,-3.7
 21345,1.305478,0.065579\H,0,-2.69044,-1.586768,0.160815\H,0,-1.353511,
 1.219973,0.202428\H,0,-0.32909,-1.798991,-0.026179\H,0,0.765085,-0.307
 394,-0.112203\\Version=ES64L-G09RevD.01\State=1-A\HF=-155.6786763\MP2=
 -155.9065707\RMSD=2.998e-09\PG=C01 [X(C4H6)]\\@

 Normal termination of Gaussian 09 at Wed Aug 26 11:57:42 2020.
