 Gaussian 09, Revision D.01,
 Gaussian 09:  ES64L-G09RevD.01 24-Apr-2013

 --------------------
 #p B2PLYPD3/Def2QZVP
 --------------------

 ---------
 butadiene
 ---------
 Symbolic Z-matrix:
 Charge =  0 Multiplicity = 1

                         Standard orientation:
 ---------------------------------------------------------------------
 Center     Atomic      Atomic             Coordinates (Angstroms)
 Number     Number       Type             X           Y           Z
 ---------------------------------------------------------------------
      1          6           0        1.862041    0.106510    0.034090
      2          6           0        0.615431   -0.380278   -0.060384
      3          6           0       -0.616634    0.403317   -0.042062
      4          6           0       -1.851877   -0.112473    0.014035
      5          1           0        2.710695   -0.566791    0.142874
      6          1           0        2.032391    1.167207   -0.010027
      7          1           0        0.494241   -1.415694   -0.058283
      8          1           0       -0.558747    1.491013    0.046747
      9          1           0       -1.944383   -1.204226    0.119617
     10          1           0       -2.787964    0.426036    0.084998
 ---------------------------------------------------------------------

 SCF Done:  E(RB2PLYPD3) =  -155.696065883     A.U. after   11 cycles
 E2(B2PLYPD3) =    -0.2259927345D+00 E(B2PLYPD3) =    -0.15592205861789D+03

 The electronic state is 1-A.
 Alpha  occ. eigenvalues --  -10.62849 -10.62362 -10.61849 -10.61718  -0.92834
 Alpha  occ. eigenvalues --   -0.84950  -0.70172  -0.64377  -0.54655  -0.54010
 Alpha  occ. eigenvalues --   -0.46983  -0.45314  -0.41173  -0.37887  -0.27681
 Alpha virt. eigenvalues --    0.01467   0.06981   0.07584   0.08027   0.09534
 Alpha virt. eigenvalues --    0.11590   0.12564   0.14406   0.15819   0.16432
 Alpha virt. eigenvalues --    0.18973   0.20175   0.21649   0.22831   0.23657

 Mulliken charges:
               1
     1  C   -0.177298
     2  C   -0.036092
     3  C   -0.031766
     4  C   -0.167633
     5  H    0.086723
     6  H    0.072471
     7  H    0.061338
     8  H    0.052594
     9  H    0.052014
    10  H    0.087648
 Sum of Mulliken charges =   0.00000

 Dipole moment (field-independent basis, Debye):
    X=             -0.0163    Y=             -0.0089    Z=              0.2275  Tot=              0.2282
 Quadrupole moment (field-independent basis, Debye-Ang):
   XX=            -23.2001   YY=            -23.3292   ZZ=            -29.2577
   XY=             -0.1313   XZ=             -0.1409   YZ=             -0.0901

 1\1\GINC-NODE27\SP\RB2PLYPD3-FC\def2QZVP\C4H6\BOITTIER\26-Aug-2020\0\\
 #p B2PLYPD3/Def2QZVP\\butadiene\\0,1\C,0,-3.866584,0.211365,-0.018299\
 C,0,-2.723381,-0.482794,0.087312\C,0,-1.373821,0.07378,0.05189\C,0,-0.
 247403,-0.650259,0.00761\H,0,-4.819851,-0.306155,-0.112303\H,0,-3.8495
 79,1.286231,0.002166\H,0,-2.784244,-1.523291,0.108277\H,0,-1.241851,1.
 152731,-0.061108\H,0,-0.34669,-1.743498,-0.073635\H,0,0.767855,-0.2846
 04,-0.075067\\Version=ES64L-G09RevD.01\State=1-A\HF=-155.6960659\MP2=-
 155.9220586\RMSD=5.452e-09\PG=C01 [X(C4H6)]\\@

 Normal termination of Gaussian 09 at Wed Aug 26 10:11:08 2020.
