 Gaussian 09, Revision D.01,
 Gaussian 09:  ES64L-G09RevD.01 24-Apr-2013

 --------------------
 #p B2PLYPD3/Def2QZVP
 --------------------

 ---------
 butadiene
 ---------
 Symbolic Z-matrix:
 Charge =  0 Multiplicity = 1

                         Standard orientation:
 ---------------------------------------------------------------------
 Center     Atomic      Atomic             Coordinates (Angstroms)
 Number     Number       Type             X           Y           Z
 ---------------------------------------------------------------------
      1          6           0       -1.861242    0.064390    0.042799
      2          6           0       -0.591729   -0.352192   -0.026141
      3          6           0        0.624625    0.412603   -0.073377
      4          6           0        1.831782   -0.141927    0.077432
      5          1           0       -2.686980   -0.586418   -0.114448
      6          1           0       -2.118178    1.162204    0.265712
      7          1           0       -0.371951   -1.343614   -0.190451
      8          1           0        0.525157    1.498080   -0.147144
      9          1           0        2.015409   -1.204405    0.152342
     10          1           0        2.615930    0.576906   -0.090288
 ---------------------------------------------------------------------

 SCF Done:  E(RB2PLYPD3) =  -155.687429780     A.U. after   12 cycles
 E2(B2PLYPD3) =    -0.2261724544D+00 E(B2PLYPD3) =    -0.15591360223393D+03

 The electronic state is 1-A.
 Alpha  occ. eigenvalues --  -10.62427 -10.62091 -10.61620 -10.61614  -0.93325
 Alpha  occ. eigenvalues --   -0.84922  -0.70683  -0.64131  -0.54568  -0.53910
 Alpha  occ. eigenvalues --   -0.47169  -0.45705  -0.40667  -0.37807  -0.27689
 Alpha virt. eigenvalues --    0.01237   0.07019   0.07505   0.08026   0.09811
 Alpha virt. eigenvalues --    0.11661   0.12161   0.15022   0.15585   0.15945
 Alpha virt. eigenvalues --    0.18925   0.20029   0.20823   0.22285   0.24135

 Mulliken charges:
               1
     1  C   -0.186372
     2  C   -0.026223
     3  C   -0.037323
     4  C   -0.170542
     5  H    0.090506
     6  H    0.060449
     7  H    0.060055
     8  H    0.053945
     9  H    0.074276
    10  H    0.081227
 Sum of Mulliken charges =   0.00000

 Dipole moment (field-independent basis, Debye):
    X=              0.0641    Y=             -0.0481    Z=             -0.1751  Tot=              0.1926
 Quadrupole moment (field-independent basis, Debye-Ang):
   XX=            -23.8087   YY=            -23.1637   ZZ=            -29.0925
   XY=             -0.2786   XZ=             -0.0953   YZ=              0.1792

 1\1\GINC-NODE37\SP\RB2PLYPD3-FC\def2QZVP\C4H6\BOITTIER\26-Aug-2020\0\\
 #p B2PLYPD3/Def2QZVP\\butadiene\\0,1\C,0,-3.869684,0.194948,0.063584\C
 ,0,-2.699192,-0.450309,0.004022\C,0,-1.36289,0.075504,-0.062896\C,0,-0
 .277978,-0.688492,0.100666\H,0,-4.802124,-0.295881,-0.077003\H,0,-3.91
 8513,1.326364,0.259578\H,0,-2.666948,-1.468924,-0.13598\H,0,-1.260786,
 1.158597,-0.1633\H,0,-0.29312,-1.764492,0.201586\H,0,0.624431,-0.13097
 4,-0.085261\\Version=ES64L-G09RevD.01\State=1-A\HF=-155.6874298\MP2=-1
 55.9136022\RMSD=4.448e-09\PG=C01 [X(C4H6)]\\@

 Normal termination of Gaussian 09 at Wed Aug 26 12:00:32 2020.
