 Gaussian 09, Revision D.01,
 Gaussian 09:  ES64L-G09RevD.01 24-Apr-2013

 --------------------
 #p B2PLYPD3/Def2QZVP
 --------------------

 ---------
 butadiene
 ---------
 Symbolic Z-matrix:
 Charge =  0 Multiplicity = 1

                         Standard orientation:
 ---------------------------------------------------------------------
 Center     Atomic      Atomic             Coordinates (Angstroms)
 Number     Number       Type             X           Y           Z
 ---------------------------------------------------------------------
      1          6           0        1.841336    0.118889    0.012924
      2          6           0        0.619677   -0.417942   -0.012598
      3          6           0       -0.603503    0.385599   -0.016521
      4          6           0       -1.843441   -0.103986    0.007760
      5          1           0        2.715820   -0.500237   -0.008810
      6          1           0        1.976346    1.217550   -0.007079
      7          1           0        0.461484   -1.483034    0.041163
      8          1           0       -0.501905    1.462856    0.014309
      9          1           0       -2.056652   -1.172321   -0.022936
     10          1           0       -2.679507    0.579824    0.033961
 ---------------------------------------------------------------------

 SCF Done:  E(RB2PLYPD3) =  -155.700340112     A.U. after   11 cycles
 E2(B2PLYPD3) =    -0.2256762980D+00 E(B2PLYPD3) =    -0.15592601641028D+03

 The electronic state is 1-A.
 Alpha  occ. eigenvalues --  -10.62594 -10.62382 -10.61752 -10.61444  -0.92845
 Alpha  occ. eigenvalues --   -0.84968  -0.69962  -0.63998  -0.54519  -0.53868
 Alpha  occ. eigenvalues --   -0.46690  -0.45607  -0.41053  -0.38004  -0.27786
 Alpha virt. eigenvalues --    0.01831   0.07005   0.07388   0.08080   0.09553
 Alpha virt. eigenvalues --    0.11695   0.12323   0.14696   0.15802   0.16080
 Alpha virt. eigenvalues --    0.18785   0.20421   0.21465   0.22724   0.24112

 Mulliken charges:
               1
     1  C   -0.171218
     2  C   -0.040299
     3  C   -0.023751
     4  C   -0.180179
     5  H    0.087846
     6  H    0.066360
     7  H    0.058702
     8  H    0.052469
     9  H    0.065757
    10  H    0.084313
 Sum of Mulliken charges =   0.00000

 Dipole moment (field-independent basis, Debye):
    X=              0.0231    Y=             -0.0117    Z=              0.0216  Tot=              0.0337
 Quadrupole moment (field-independent basis, Debye-Ang):
   XX=            -23.5931   YY=            -23.0112   ZZ=            -29.2982
   XY=              0.1114   XZ=             -0.0858   YZ=              0.0181

 1\1\GINC-NODE24\SP\RB2PLYPD3-FC\def2QZVP\C4H6\BOITTIER\26-Aug-2020\0\\
 #p B2PLYPD3/Def2QZVP\\butadiene\\0,1\C,0,-3.8403,0.233118,0.00501\C,0,
 -2.734562,-0.513059,0.048037\C,0,-1.38715,0.057896,0.02924\C,0,-0.2551
 71,-0.646581,0.02109\H,0,-4.811501,-0.218253,0.044316\H,0,-3.776096,1.
 338283,-0.008132\H,0,-2.770085,-1.590375,0.026455\H,0,-1.294128,1.1345
 11,-0.03403\H,0,-0.23679,-1.734438,0.084087\H,0,0.68981,-0.124848,-0.0
 24667\\Version=ES64L-G09RevD.01\State=1-A\HF=-155.7003401\MP2=-155.926
 0164\RMSD=4.045e-09\PG=C01 [X(C4H6)]\\@

 Normal termination of Gaussian 09 at Wed Aug 26 19:01:39 2020.
