 Gaussian 09, Revision D.01,
 Gaussian 09:  ES64L-G09RevD.01 24-Apr-2013

 --------------------
 #p B2PLYPD3/Def2QZVP
 --------------------

 ---------
 butadiene
 ---------
 Symbolic Z-matrix:
 Charge =  0 Multiplicity = 1

                         Standard orientation:
 ---------------------------------------------------------------------
 Center     Atomic      Atomic             Coordinates (Angstroms)
 Number     Number       Type             X           Y           Z
 ---------------------------------------------------------------------
      1          6           0       -1.815602    0.084278    0.067271
      2          6           0       -0.564441   -0.402960   -0.094087
      3          6           0        0.573796    0.396073   -0.059675
      4          6           0        1.806043   -0.091504    0.062276
      5          1           0       -2.751940   -0.461405   -0.011257
      6          1           0       -1.970744    1.135112    0.232534
      7          1           0       -0.372431   -1.481185   -0.164831
      8          1           0        0.370427    1.511982   -0.109602
      9          1           0        2.081195   -1.199908    0.307970
     10          1           0        2.644720    0.580082   -0.109522
 ---------------------------------------------------------------------

 SCF Done:  E(RB2PLYPD3) =  -155.684534001     A.U. after   12 cycles
 E2(B2PLYPD3) =    -0.2273898445D+00 E(B2PLYPD3) =    -0.15591192384531D+03

 The electronic state is 1-A.
 Alpha  occ. eigenvalues --  -10.62545 -10.62405 -10.62354 -10.61794  -0.93893
 Alpha  occ. eigenvalues --   -0.84288  -0.70694  -0.63258  -0.54974  -0.52955
 Alpha  occ. eigenvalues --   -0.46738  -0.44855  -0.41175  -0.38245  -0.27064
 Alpha virt. eigenvalues --    0.00884   0.07019   0.07063   0.07927   0.09779
 Alpha virt. eigenvalues --    0.11589   0.12256   0.14980   0.15799   0.16020
 Alpha virt. eigenvalues --    0.18853   0.20170   0.21104   0.22165   0.23423

 Mulliken charges:
               1
     1  C   -0.170929
     2  C   -0.027082
     3  C   -0.020315
     4  C   -0.180415
     5  H    0.084694
     6  H    0.056378
     7  H    0.055267
     8  H    0.051579
     9  H    0.066661
    10  H    0.084163
 Sum of Mulliken charges =   0.00000

 Dipole moment (field-independent basis, Debye):
    X=             -0.0356    Y=              0.0213    Z=              0.0278  Tot=              0.0499
 Quadrupole moment (field-independent basis, Debye-Ang):
   XX=            -23.5450   YY=            -23.4140   ZZ=            -29.1843
   XY=             -0.5160   XZ=             -0.0919   YZ=             -0.1270

 1\1\GINC-NODE17\SP\RB2PLYPD3-FC\def2QZVP\C4H6\BOITTIER\26-Aug-2020\0\\
 #p B2PLYPD3/Def2QZVP\\butadiene\\0,1\C,0,-3.81548,0.227503,0.087\C,0,-
 2.685025,-0.501388,-0.053105\C,0,-1.412097,0.059725,-0.047741\C,0,-0.2
 98588,-0.654904,0.095228\H,0,-4.84104,-0.126641,0.028071\H,0,-3.760721
 ,1.29392,0.211054\H,0,-2.708442,-1.598239,-0.081582\H,0,-1.393143,1.19
 109,-0.141328\H,0,-0.244529,-1.785464,0.384269\H,0,0.654405,-0.167869,
 -0.101041\\Version=ES64L-G09RevD.01\State=1-A\HF=-155.684534\MP2=-155.
 9119238\RMSD=5.038e-09\PG=C01 [X(C4H6)]\\@

 Normal termination of Gaussian 09 at Wed Aug 26 11:44:45 2020.
