 Gaussian 09, Revision D.01,
 Gaussian 09:  ES64L-G09RevD.01 24-Apr-2013

 --------------------
 #p B2PLYPD3/Def2QZVP
 --------------------

 ---------
 butadiene
 ---------
 Symbolic Z-matrix:
 Charge =  0 Multiplicity = 1

                         Standard orientation:
 ---------------------------------------------------------------------
 Center     Atomic      Atomic             Coordinates (Angstroms)
 Number     Number       Type             X           Y           Z
 ---------------------------------------------------------------------
      1          6           0       -1.847080   -0.120110    0.031565
      2          6           0       -0.612639    0.422270   -0.020856
      3          6           0        0.603190   -0.384598   -0.068882
      4          6           0        1.859830    0.093584    0.056991
      5          1           0       -2.698483    0.498698    0.106944
      6          1           0       -1.935595   -1.207942   -0.000267
      7          1           0       -0.488368    1.486504   -0.090607
      8          1           0        0.352616   -1.440613   -0.049761
      9          1           0        2.013338    1.136493   -0.050099
     10          1           0        2.736681   -0.540017    0.090884
 ---------------------------------------------------------------------

 SCF Done:  E(RB2PLYPD3) =  -155.695800420     A.U. after   11 cycles
 E2(B2PLYPD3) =    -0.2264126054D+00 E(B2PLYPD3) =    -0.15592221302590D+03

 The electronic state is 1-A.
 Alpha  occ. eigenvalues --  -10.62845 -10.62600 -10.61657 -10.61632  -0.92793
 Alpha  occ. eigenvalues --   -0.84678  -0.70565  -0.64282  -0.54863  -0.53554
 Alpha  occ. eigenvalues --   -0.46894  -0.46127  -0.41319  -0.37695  -0.27477
 Alpha virt. eigenvalues --    0.01331   0.07046   0.07442   0.08200   0.09304
 Alpha virt. eigenvalues --    0.11688   0.12557   0.14663   0.15623   0.16285
 Alpha virt. eigenvalues --    0.18816   0.19926   0.21712   0.23385   0.23838

 Mulliken charges:
               1
     1  C   -0.184755
     2  C   -0.024902
     3  C   -0.032878
     4  C   -0.175804
     5  H    0.092907
     6  H    0.065339
     7  H    0.053768
     8  H    0.051051
     9  H    0.068888
    10  H    0.086387
 Sum of Mulliken charges =   0.00000

 Dipole moment (field-independent basis, Debye):
    X=             -0.0397    Y=              0.0458    Z=             -0.0575  Tot=              0.0835
 Quadrupole moment (field-independent basis, Debye-Ang):
   XX=            -23.4341   YY=            -23.2217   ZZ=            -29.3126
   XY=              0.1374   XZ=             -0.1016   YZ=             -0.1306

 1\1\GINC-NODE34\SP\RB2PLYPD3-FC\def2QZVP\C4H6\BOITTIER\26-Aug-2020\0\\
 #p B2PLYPD3/Def2QZVP\\butadiene\\0,1\C,0,-3.846808,0.238122,-0.016862\
 C,0,-2.731098,-0.516702,0.061876\C,0,-1.388767,0.057265,0.07901\C,0,-0
 .240463,-0.646034,-0.023045\H,0,-4.796769,-0.21841,-0.068292\H,0,-3.73
 6205,1.3243,-0.031388\H,0,-2.801748,-1.581906,0.176991\H,0,-1.443559,1
 .139464,0.01448\H,0,-0.278304,-1.694022,0.128553\H,0,0.736662,-0.18419
 6,-0.081345\\Version=ES64L-G09RevD.01\State=1-A\HF=-155.6958004\MP2=-1
 55.922213\RMSD=4.032e-09\PG=C01 [X(C4H6)]\\@

 Normal termination of Gaussian 09 at Wed Aug 26 09:35:36 2020.
