 Gaussian 09, Revision D.01,
 Gaussian 09:  ES64L-G09RevD.01 24-Apr-2013

 --------------------
 #p B2PLYPD3/Def2QZVP
 --------------------

 ---------
 butadiene
 ---------
 Symbolic Z-matrix:
 Charge =  0 Multiplicity = 1

                         Standard orientation:
 ---------------------------------------------------------------------
 Center     Atomic      Atomic             Coordinates (Angstroms)
 Number     Number       Type             X           Y           Z
 ---------------------------------------------------------------------
      1          6           0        1.831682   -0.125506   -0.010313
      2          6           0        0.607468    0.414570    0.012342
      3          6           0       -0.602344   -0.393479    0.018853
      4          6           0       -1.837188    0.099993   -0.016860
      5          1           0        2.696156    0.528535    0.000189
      6          1           0        1.967857   -1.195217   -0.101139
      7          1           0        0.491657    1.524375    0.047655
      8          1           0       -0.425371   -1.453655    0.101822
      9          1           0       -2.023932    1.162914   -0.040345
     10          1           0       -2.704072   -0.540418   -0.032316
 ---------------------------------------------------------------------

 SCF Done:  E(RB2PLYPD3) =  -155.700127204     A.U. after   11 cycles
 E2(B2PLYPD3) =    -0.2257837231D+00 E(B2PLYPD3) =    -0.15592591092674D+03

 The electronic state is 1-A.
 Alpha  occ. eigenvalues --  -10.62802 -10.62365 -10.61564 -10.61348  -0.92981
 Alpha  occ. eigenvalues --   -0.84908  -0.70068  -0.63855  -0.54493  -0.53944
 Alpha  occ. eigenvalues --   -0.46571  -0.45761  -0.41067  -0.38066  -0.27695
 Alpha virt. eigenvalues --    0.01810   0.07036   0.07329   0.08042   0.09527
 Alpha virt. eigenvalues --    0.11726   0.12378   0.14756   0.15767   0.16078
 Alpha virt. eigenvalues --    0.18716   0.20436   0.21576   0.22903   0.23820

 Mulliken charges:
               1
     1  C   -0.180551
     2  C   -0.027348
     3  C   -0.030355
     4  C   -0.176428
     5  H    0.086689
     6  H    0.069156
     7  H    0.050481
     8  H    0.056260
     9  H    0.066642
    10  H    0.085455
 Sum of Mulliken charges =   0.00000

 Dipole moment (field-independent basis, Debye):
    X=              0.0002    Y=              0.0016    Z=             -0.0090  Tot=              0.0092
 Quadrupole moment (field-independent basis, Debye-Ang):
   XX=            -23.6287   YY=            -23.0358   ZZ=            -29.2744
   XY=             -0.1784   XZ=             -0.0446   YZ=              0.0409

 1\1\GINC-NODE27\SP\RB2PLYPD3-FC\def2QZVP\C4H6\BOITTIER\26-Aug-2020\0\\
 #p B2PLYPD3/Def2QZVP\\butadiene\\0,1\C,0,-3.831058,0.23838,0.006537\C,
 0,-2.724511,-0.513051,0.048968\C,0,-1.388588,0.062854,0.032463\C,0,-0.
 263375,-0.646529,0.015101\H,0,-4.799441,-0.248003,0.035909\H,0,-3.7720
 27,1.311675,-0.118476\H,0,-2.811016,-1.623833,0.119723\H,0,-1.370779,1
 .13964,0.081372\H,0,-0.271855,-1.725899,0.025754\H,0,0.704897,-0.17413
 7,-0.018785\\Version=ES64L-G09RevD.01\State=1-A\HF=-155.7001272\MP2=-1
 55.9259109\RMSD=4.465e-09\PG=C01 [X(C4H6)]\\@

 Normal termination of Gaussian 09 at Wed Aug 26 19:36:07 2020.
