 Gaussian 09, Revision D.01,
 Gaussian 09:  ES64L-G09RevD.01 24-Apr-2013

 --------------------
 #p B2PLYPD3/Def2QZVP
 --------------------

 ---------
 butadiene
 ---------
 Symbolic Z-matrix:
 Charge =  0 Multiplicity = 1

                         Standard orientation:
 ---------------------------------------------------------------------
 Center     Atomic      Atomic             Coordinates (Angstroms)
 Number     Number       Type             X           Y           Z
 ---------------------------------------------------------------------
      1          6           0       -1.868084   -0.079690    0.049968
      2          6           0       -0.622105    0.347299   -0.025752
      3          6           0        0.614924   -0.451422   -0.087559
      4          6           0        1.867060    0.123931    0.019079
      5          1           0       -2.573779    0.655763   -0.129307
      6          1           0       -2.053948   -1.068653    0.282525
      7          1           0       -0.430534    1.423938   -0.211228
      8          1           0        0.356912   -1.506136   -0.052284
      9          1           0        1.944465    1.246102    0.355468
     10          1           0        2.806112   -0.391716    0.020411
 ---------------------------------------------------------------------

 SCF Done:  E(RB2PLYPD3) =  -155.676308166     A.U. after   12 cycles
 E2(B2PLYPD3) =    -0.2273543828D+00 E(B2PLYPD3) =    -0.15590366254908D+03

 The electronic state is 1-A.
 Alpha  occ. eigenvalues --  -10.63777 -10.63519 -10.62286 -10.60266  -0.92611
 Alpha  occ. eigenvalues --   -0.84695  -0.70614  -0.63578  -0.55038  -0.53626
 Alpha  occ. eigenvalues --   -0.47307  -0.45486  -0.40417  -0.37283  -0.27553
 Alpha virt. eigenvalues --    0.00841   0.06892   0.07346   0.08099   0.09265
 Alpha virt. eigenvalues --    0.11674   0.12197   0.14829   0.15451   0.16193
 Alpha virt. eigenvalues --    0.18835   0.19778   0.20944   0.22165   0.24157

 Mulliken charges:
               1
     1  C   -0.203006
     2  C    0.003690
     3  C   -0.061245
     4  C   -0.161318
     5  H    0.094817
     6  H    0.073542
     7  H    0.045267
     8  H    0.058004
     9  H    0.059178
    10  H    0.091070
 Sum of Mulliken charges =   0.00000

 Dipole moment (field-independent basis, Debye):
    X=              0.0247    Y=             -0.0839    Z=              0.1865  Tot=              0.2059
 Quadrupole moment (field-independent basis, Debye-Ang):
   XX=            -23.5853   YY=            -23.4923   ZZ=            -29.1530
   XY=              0.2606   XZ=              0.5970   YZ=             -0.2013

 1\1\GINC-NODE40\SP\RB2PLYPD3-FC\def2QZVP\C4H6\BOITTIER\26-Aug-2020\0\\
 #p B2PLYPD3/Def2QZVP\\butadiene\\0,1\C,0,-3.874881,0.198888,-0.026402\
 C,0,-2.72778,-0.447091,0.05955\C,0,-1.36475,0.11243,0.092747\C,0,-0.24
 0345,-0.686047,0.001123\H,0,-4.70198,-0.388632,0.177959\H,0,-3.878123,
 1.197552,-0.289718\H,0,-2.735407,-1.534392,0.278575\H,0,-1.425195,1.19
 4998,0.024717\H,0,-0.372934,-1.81314,-0.299709\H,0,0.777317,-0.351877,
 -0.019027\\Version=ES64L-G09RevD.01\State=1-A\HF=-155.6763082\MP2=-155
 .9036625\RMSD=4.821e-09\PG=C01 [X(C4H6)]\\@

 Normal termination of Gaussian 09 at Wed Aug 26 14:42:13 2020.
