 Gaussian 09, Revision D.01,
 Gaussian 09:  ES64L-G09RevD.01 24-Apr-2013

 --------------------
 #p B2PLYPD3/Def2QZVP
 --------------------

 ---------
 butadiene
 ---------
 Symbolic Z-matrix:
 Charge =  0 Multiplicity = 1

                         Standard orientation:
 ---------------------------------------------------------------------
 Center     Atomic      Atomic             Coordinates (Angstroms)
 Number     Number       Type             X           Y           Z
 ---------------------------------------------------------------------
      1          6           0        1.839210    0.126941   -0.053861
      2          6           0        0.614550   -0.422546    0.038818
      3          6           0       -0.619730    0.368686    0.025862
      4          6           0       -1.839466   -0.098397   -0.031569
      5          1           0        2.742596   -0.499574    0.017736
      6          1           0        1.983218    1.228306   -0.048958
      7          1           0        0.491887   -1.488876    0.167928
      8          1           0       -0.500316    1.457848    0.103524
      9          1           0       -2.097582   -1.172526   -0.169081
     10          1           0       -2.587185    0.626719    0.053351
 ---------------------------------------------------------------------

 SCF Done:  E(RB2PLYPD3) =  -155.694984139     A.U. after   11 cycles
 E2(B2PLYPD3) =    -0.2256663041D+00 E(B2PLYPD3) =    -0.15592065044285D+03

 The electronic state is 1-A.
 Alpha  occ. eigenvalues --  -10.62743 -10.62225 -10.62146 -10.60909  -0.92919
 Alpha  occ. eigenvalues --   -0.85212  -0.69801  -0.63483  -0.54451  -0.53824
 Alpha  occ. eigenvalues --   -0.46801  -0.45492  -0.40693  -0.37873  -0.28008
 Alpha virt. eigenvalues --    0.01923   0.07020   0.07348   0.07974   0.09668
 Alpha virt. eigenvalues --    0.11600   0.12226   0.14736   0.15740   0.16077
 Alpha virt. eigenvalues --    0.18868   0.20277   0.21270   0.22143   0.24355

 Mulliken charges:
               1
     1  C   -0.168503
     2  C   -0.048027
     3  C   -0.017153
     4  C   -0.180220
     5  H    0.082568
     6  H    0.066134
     7  H    0.061391
     8  H    0.047213
     9  H    0.070821
    10  H    0.085775
 Sum of Mulliken charges =   0.00000

 Dipole moment (field-independent basis, Debye):
    X=             -0.0035    Y=              0.0011    Z=              0.1490  Tot=              0.1490
 Quadrupole moment (field-independent basis, Debye-Ang):
   XX=            -23.7903   YY=            -22.9767   ZZ=            -29.2245
   XY=              0.1591   XZ=              0.2048   YZ=              0.0931

 1\1\GINC-NODE28\SP\RB2PLYPD3-FC\def2QZVP\C4H6\BOITTIER\26-Aug-2020\0\\
 #p B2PLYPD3/Def2QZVP\\butadiene\\0,1\C,0,-3.838844,0.242928,0.064208\C
 ,0,-2.732494,-0.519516,-0.006416\C,0,-1.376499,0.038058,-0.01371\C,0,-
 0.25996,-0.637711,0.063082\H,0,-4.839916,-0.21375,0.008959\H,0,-3.7833
 97,1.351566,0.024018\H,0,-2.802923,-1.594132,-0.101358\H,0,-1.299178,1
 .127987,-0.126143\H,0,-0.198016,-1.735782,0.235391\H,0,0.605312,-0.061
 18,-0.041811\\Version=ES64L-G09RevD.01\State=1-A\HF=-155.6949841\MP2=-
 155.9206504\RMSD=8.779e-09\PG=C01 [X(C4H6)]\\@

 Normal termination of Gaussian 09 at Wed Aug 26 11:01:14 2020.
