 Gaussian 09, Revision D.01,
 Gaussian 09:  ES64L-G09RevD.01 24-Apr-2013

 --------------------
 #p B2PLYPD3/Def2QZVP
 --------------------

 ---------
 butadiene
 ---------
 Symbolic Z-matrix:
 Charge =  0 Multiplicity = 1

                         Standard orientation:
 ---------------------------------------------------------------------
 Center     Atomic      Atomic             Coordinates (Angstroms)
 Number     Number       Type             X           Y           Z
 ---------------------------------------------------------------------
      1          6           0        1.840484    0.107207    0.001855
      2          6           0        0.609614   -0.403037   -0.023670
      3          6           0       -0.610252    0.396854   -0.008770
      4          6           0       -1.846922   -0.114632    0.014918
      5          1           0        2.714890   -0.502868    0.075179
      6          1           0        2.006052    1.175776    0.049698
      7          1           0        0.489709   -1.471717   -0.018225
      8          1           0       -0.465570    1.477432   -0.060971
      9          1           0       -2.051981   -1.159487    0.006876
     10          1           0       -2.650648    0.562516    0.041447
 ---------------------------------------------------------------------

 SCF Done:  E(RB2PLYPD3) =  -155.700315689     A.U. after   11 cycles
 E2(B2PLYPD3) =    -0.2253445307D+00 E(B2PLYPD3) =    -0.15592566021958D+03

 The electronic state is 1-A.
 Alpha  occ. eigenvalues --  -10.62634 -10.62344 -10.61297 -10.61050  -0.92895
 Alpha  occ. eigenvalues --   -0.85104  -0.70472  -0.64171  -0.54745  -0.54258
 Alpha  occ. eigenvalues --   -0.46739  -0.46054  -0.41175  -0.37987  -0.27705
 Alpha virt. eigenvalues --    0.01746   0.07030   0.07483   0.08138   0.09598
 Alpha virt. eigenvalues --    0.11695   0.12455   0.14855   0.15828   0.16177
 Alpha virt. eigenvalues --    0.18830   0.20554   0.21740   0.22900   0.23835

 Mulliken charges:
               1
     1  C   -0.172549
     2  C   -0.030569
     3  C   -0.032239
     4  C   -0.181270
     5  H    0.084954
     6  H    0.061604
     7  H    0.055726
     8  H    0.054354
     9  H    0.073127
    10  H    0.086861
 Sum of Mulliken charges =   0.00000

 Dipole moment (field-independent basis, Debye):
    X=              0.0010    Y=             -0.0153    Z=              0.0668  Tot=              0.0685
 Quadrupole moment (field-independent basis, Debye-Ang):
   XX=            -23.4754   YY=            -23.0253   ZZ=            -29.2077
   XY=              0.2136   XZ=              0.2331   YZ=             -0.0270

 1\1\GINC-NODE14\SP\RB2PLYPD3-FC\def2QZVP\C4H6\BOITTIER\26-Aug-2020\0\\
 #p B2PLYPD3/Def2QZVP\\butadiene\\0,1\C,0,-3.843589,0.22407,0.011689\C,
 0,-2.725037,-0.499083,0.055644\C,0,-1.38082,0.066733,0.023179\C,0,-0.2
 56858,-0.66005,0.017995\H,0,-4.813877,-0.219925,-0.048004\H,0,-3.81357
 3,1.303234,-0.06607\H,0,-2.800061,-1.571587,0.079975\H,0,-1.327952,1.1
 567,0.045171\H,0,-0.243806,-1.724128,0.055459\H,0,0.65588,-0.140112,-0
 .024223\\Version=ES64L-G09RevD.01\State=1-A\HF=-155.7003157\MP2=-155.9
 256602\RMSD=4.957e-09\PG=C01 [X(C4H6)]\\@

 Normal termination of Gaussian 09 at Wed Aug 26 16:23:28 2020.
