 Gaussian 09, Revision D.01,
 Gaussian 09:  ES64L-G09RevD.01 24-Apr-2013

 --------------------
 #p B2PLYPD3/Def2QZVP
 --------------------

 ---------
 butadiene
 ---------
 Symbolic Z-matrix:
 Charge =  0 Multiplicity = 1

                         Standard orientation:
 ---------------------------------------------------------------------
 Center     Atomic      Atomic             Coordinates (Angstroms)
 Number     Number       Type             X           Y           Z
 ---------------------------------------------------------------------
      1          6           0       -1.816096   -0.138718    0.046885
      2          6           0       -0.609224    0.432776   -0.075802
      3          6           0        0.580690   -0.397764   -0.058972
      4          6           0        1.834689    0.093294    0.041405
      5          1           0       -2.796331    0.501622    0.272978
      6          1           0       -1.944273   -1.245008   -0.019335
      7          1           0       -0.501237    1.542524   -0.191362
      8          1           0        0.571354   -1.477928   -0.060435
      9          1           0        1.927918    1.198978    0.147046
     10          1           0        2.802218   -0.457712    0.130018
 ---------------------------------------------------------------------

 SCF Done:  E(RB2PLYPD3) =  -155.681236618     A.U. after   11 cycles
 E2(B2PLYPD3) =    -0.2280353942D+00 E(B2PLYPD3) =    -0.15590927201209D+03

 The electronic state is 1-A.
 Alpha  occ. eigenvalues --  -10.63563 -10.63269 -10.62819 -10.62163  -0.92917
 Alpha  occ. eigenvalues --   -0.84228  -0.68701  -0.63811  -0.53792  -0.53326
 Alpha  occ. eigenvalues --   -0.46378  -0.43592  -0.41361  -0.37829  -0.27357
 Alpha virt. eigenvalues --    0.01568   0.06853   0.07187   0.07588   0.09086
 Alpha virt. eigenvalues --    0.11440   0.12452   0.13875   0.15701   0.16491
 Alpha virt. eigenvalues --    0.18689   0.19921   0.21407   0.22326   0.23549

 Mulliken charges:
               1
     1  C   -0.166040
     2  C   -0.037961
     3  C   -0.029909
     4  C   -0.171606
     5  H    0.073878
     6  H    0.073620
     7  H    0.068775
     8  H    0.058093
     9  H    0.046098
    10  H    0.085051
 Sum of Mulliken charges =   0.00000

 Dipole moment (field-independent basis, Debye):
    X=             -0.0317    Y=             -0.0470    Z=              0.1403  Tot=              0.1514
 Quadrupole moment (field-independent basis, Debye-Ang):
   XX=            -23.7795   YY=            -23.2216   ZZ=            -29.4778
   XY=             -0.1784   XZ=             -0.0241   YZ=              0.0966

 1\1\GINC-NODE24\SP\RB2PLYPD3-FC\def2QZVP\C4H6\BOITTIER\26-Aug-2020\0\\
 #p B2PLYPD3/Def2QZVP\\butadiene\\0,1\C,0,-3.815231,0.234653,-0.033864\
 C,0,-2.725789,-0.534462,0.10676\C,0,-1.409607,0.075631,0.068983\C,0,-0
 .260455,-0.628668,-0.01552\H,0,-4.8926,-0.231403,-0.243825\H,0,-3.7488
 2,1.347773,0.001403\H,0,-2.812121,-1.642451,0.253262\H,0,-1.230912,1.1
 40571,0.040453\H,0,-0.361298,-1.736202,-0.090272\H,0,0.787888,-0.25703
 6,-0.117687\\Version=ES64L-G09RevD.01\State=1-A\HF=-155.6812366\MP2=-1
 55.909272\RMSD=6.123e-09\PG=C01 [X(C4H6)]\\@

 Normal termination of Gaussian 09 at Wed Aug 26 14:50:13 2020.
