 Gaussian 09, Revision D.01,
 Gaussian 09:  ES64L-G09RevD.01 24-Apr-2013

 --------------------
 #p B2PLYPD3/Def2QZVP
 --------------------

 ---------
 butadiene
 ---------
 Symbolic Z-matrix:
 Charge =  0 Multiplicity = 1

                         Standard orientation:
 ---------------------------------------------------------------------
 Center     Atomic      Atomic             Coordinates (Angstroms)
 Number     Number       Type             X           Y           Z
 ---------------------------------------------------------------------
      1          6           0        1.835833    0.101017    0.018366
      2          6           0        0.598170   -0.398929   -0.020834
      3          6           0       -0.606375    0.422250   -0.028844
      4          6           0       -1.823988   -0.121139    0.026786
      5          1           0        2.728786   -0.522826    0.050851
      6          1           0        2.007861    1.167082    0.017301
      7          1           0        0.433522   -1.472121   -0.015739
      8          1           0       -0.499708    1.499335   -0.061785
      9          1           0       -1.982646   -1.198199   -0.052097
     10          1           0       -2.709658    0.507536    0.088632
 ---------------------------------------------------------------------

 SCF Done:  E(RB2PLYPD3) =  -155.700484442     A.U. after   11 cycles
 E2(B2PLYPD3) =    -0.2257957500D+00 E(B2PLYPD3) =    -0.15592628019230D+03

 The electronic state is 1-A.
 Alpha  occ. eigenvalues --  -10.62582 -10.62519 -10.61633 -10.61494  -0.92978
 Alpha  occ. eigenvalues --   -0.84791  -0.69863  -0.64204  -0.54492  -0.53821
 Alpha  occ. eigenvalues --   -0.46638  -0.45499  -0.41244  -0.38038  -0.27636
 Alpha virt. eigenvalues --    0.01858   0.07020   0.07360   0.08066   0.09414
 Alpha virt. eigenvalues --    0.11692   0.12454   0.14657   0.15871   0.16177
 Alpha virt. eigenvalues --    0.18752   0.20454   0.21593   0.23050   0.23750

 Mulliken charges:
               1
     1  C   -0.175360
     2  C   -0.030126
     3  C   -0.033031
     4  C   -0.174707
     5  H    0.084149
     6  H    0.064476
     7  H    0.056353
     8  H    0.058981
     9  H    0.067197
    10  H    0.082068
 Sum of Mulliken charges =   0.00000

 Dipole moment (field-independent basis, Debye):
    X=             -0.0308    Y=              0.0187    Z=             -0.0149  Tot=              0.0390
 Quadrupole moment (field-independent basis, Debye-Ang):
   XX=            -23.5669   YY=            -23.0442   ZZ=            -29.2866
   XY=              0.1916   XZ=              0.0536   YZ=              0.0546

 1\1\GINC-NODE10\SP\RB2PLYPD3-FC\def2QZVP\C4H6\BOITTIER\26-Aug-2020\0\\
 #p B2PLYPD3/Def2QZVP\\butadiene\\0,1\C,0,-3.83922,0.215641,-0.001562\C
 ,0,-2.712338,-0.498596,0.055845\C,0,-1.379066,0.090912,0.041877\C,0,-0
 .280056,-0.665276,0.005768\H,0,-4.830412,-0.237008,-0.017284\H,0,-3.81
 55,1.294771,-0.033293\H,0,-2.744618,-1.583518,0.083745\H,0,-1.288972,1
 .170013,0.041833\H,0,-0.318669,-1.750371,0.11771\H,0,0.704557,-0.20941
 9,-0.072962\\Version=ES64L-G09RevD.01\State=1-A\HF=-155.7004844\MP2=-1
 55.9262802\RMSD=3.621e-09\PG=C01 [X(C4H6)]\\@

 Normal termination of Gaussian 09 at Wed Aug 26 19:33:17 2020.
