 Gaussian 09, Revision D.01,
 Gaussian 09:  ES64L-G09RevD.01 24-Apr-2013

 --------------------
 #p B2PLYPD3/Def2QZVP
 --------------------

 ---------
 butadiene
 ---------
 Symbolic Z-matrix:
 Charge =  0 Multiplicity = 1

                         Standard orientation:
 ---------------------------------------------------------------------
 Center     Atomic      Atomic             Coordinates (Angstroms)
 Number     Number       Type             X           Y           Z
 ---------------------------------------------------------------------
      1          6           0       -1.851544    0.086116    0.018818
      2          6           0       -0.603433   -0.370379   -0.042130
      3          6           0        0.622798    0.420389   -0.036198
      4          6           0        1.854838   -0.127012    0.029053
      5          1           0       -2.730263   -0.515673    0.175993
      6          1           0       -2.046819    1.176539    0.027374
      7          1           0       -0.532338   -1.444624   -0.124852
      8          1           0        0.492175    1.461599   -0.047565
      9          1           0        1.928669   -1.197325    0.067835
     10          1           0        2.752616    0.464796    0.083956
 ---------------------------------------------------------------------

 SCF Done:  E(RB2PLYPD3) =  -155.696924308     A.U. after   11 cycles
 E2(B2PLYPD3) =    -0.2258293695D+00 E(B2PLYPD3) =    -0.15592275367753D+03

 The electronic state is 1-A.
 Alpha  occ. eigenvalues --  -10.62639 -10.62437 -10.61778 -10.61593  -0.92882
 Alpha  occ. eigenvalues --   -0.84953  -0.70310  -0.64441  -0.54918  -0.53855
 Alpha  occ. eigenvalues --   -0.47107  -0.45392  -0.41301  -0.37783  -0.27672
 Alpha virt. eigenvalues --    0.01519   0.06994   0.07570   0.08081   0.09566
 Alpha virt. eigenvalues --    0.11579   0.12603   0.14466   0.15784   0.16359
 Alpha virt. eigenvalues --    0.18919   0.20176   0.21793   0.22509   0.23881

 Mulliken charges:
               1
     1  C   -0.172813
     2  C   -0.023237
     3  C   -0.046132
     4  C   -0.171640
     5  H    0.086977
     6  H    0.051263
     7  H    0.053312
     8  H    0.063372
     9  H    0.068979
    10  H    0.089919
 Sum of Mulliken charges =   0.00000

 Dipole moment (field-independent basis, Debye):
    X=              0.0338    Y=              0.0058    Z=              0.1188  Tot=              0.1237
 Quadrupole moment (field-independent basis, Debye-Ang):
   XX=            -23.2275   YY=            -23.3010   ZZ=            -29.2239
   XY=              0.0948   XZ=             -0.1593   YZ=             -0.0341

 1\1\GINC-NODE27\SP\RB2PLYPD3-FC\def2QZVP\C4H6\BOITTIER\26-Aug-2020\0\\
 #p B2PLYPD3/Def2QZVP\\butadiene\\0,1\C,0,-3.862414,0.196066,0.042976\C
 ,0,-2.714473,-0.474792,-0.002473\C,0,-1.368186,0.087469,-0.021579\C,0,
 -0.251409,-0.665953,0.062047\H,0,-4.832507,-0.236234,0.219149\H,0,-3.8
 62663,1.303541,0.016028\H,0,-2.834003,-1.546861,-0.050241\H,0,-1.31355
 9,1.134502,-0.066809\H,0,-0.366921,-1.730741,0.135593\H,0,0.736793,-0.
 240033,0.098175\\Version=ES64L-G09RevD.01\State=1-A\HF=-155.6969243\MP
 2=-155.9227537\RMSD=5.667e-09\PG=C01 [X(C4H6)]\\@

 Normal termination of Gaussian 09 at Wed Aug 26 11:04:20 2020.
