 Gaussian 09, Revision D.01,
 Gaussian 09:  ES64L-G09RevD.01 24-Apr-2013

 --------------------
 #p B2PLYPD3/Def2QZVP
 --------------------

 ---------
 butadiene
 ---------
 Symbolic Z-matrix:
 Charge =  0 Multiplicity = 1

                         Standard orientation:
 ---------------------------------------------------------------------
 Center     Atomic      Atomic             Coordinates (Angstroms)
 Number     Number       Type             X           Y           Z
 ---------------------------------------------------------------------
      1          6           0        1.823486   -0.133028    0.011089
      2          6           0        0.607536    0.410588   -0.033611
      3          6           0       -0.598409   -0.366175   -0.021462
      4          6           0       -1.819440    0.092758    0.032976
      5          1           0        2.650749    0.548846    0.149435
      6          1           0        1.943256   -1.205404   -0.029400
      7          1           0        0.468802    1.482612   -0.061145
      8          1           0       -0.447579   -1.473185   -0.003036
      9          1           0       -1.969418    1.172017    0.000274
     10          1           0       -2.724847   -0.549743    0.009915
 ---------------------------------------------------------------------

 SCF Done:  E(RB2PLYPD3) =  -155.696635478     A.U. after   11 cycles
 E2(B2PLYPD3) =    -0.2255243891D+00 E(B2PLYPD3) =    -0.15592215986701D+03

 The electronic state is 1-A.
 Alpha  occ. eigenvalues --  -10.62241 -10.62033 -10.61517 -10.61337  -0.93604
 Alpha  occ. eigenvalues --   -0.85319  -0.69963  -0.63719  -0.54591  -0.53926
 Alpha  occ. eigenvalues --   -0.46679  -0.45594  -0.40650  -0.38559  -0.27877
 Alpha virt. eigenvalues --    0.01929   0.06994   0.07274   0.08002   0.09908
 Alpha virt. eigenvalues --    0.11812   0.12314   0.14746   0.15622   0.16168
 Alpha virt. eigenvalues --    0.18636   0.19950   0.21636   0.22916   0.24108

 Mulliken charges:
               1
     1  C   -0.180487
     2  C   -0.031971
     3  C   -0.010725
     4  C   -0.173757
     5  H    0.088210
     6  H    0.074828
     7  H    0.051714
     8  H    0.038941
     9  H    0.056562
    10  H    0.086684
 Sum of Mulliken charges =   0.00000

 Dipole moment (field-independent basis, Debye):
    X=              0.0169    Y=              0.0253    Z=              0.0183  Tot=              0.0355
 Quadrupole moment (field-independent basis, Debye-Ang):
   XX=            -23.7942   YY=            -23.1176   ZZ=            -29.1504
   XY=             -0.0006   XZ=              0.3530   YZ=              0.0703

 1\1\GINC-NODE13\SP\RB2PLYPD3-FC\def2QZVP\C4H6\BOITTIER\26-Aug-2020\0\\
 #p B2PLYPD3/Def2QZVP\\butadiene\\0,1\C,0,-3.820085,0.24396,0.034541\C,
 0,-2.721906,-0.510487,0.005135\C,0,-1.395963,0.036817,-0.006926\C,0,-0
 .276958,-0.632376,0.060225\H,0,-4.755537,-0.273721,0.193885\H,0,-3.745
 46,1.318743,-0.037903\H,0,-2.778232,-1.590324,0.00956\H,0,-1.345305,1.
 152963,-0.021492\H,0,-0.323556,-1.7215,0.059692\H,0,0.729002,-0.164084
 ,0.017228\\Version=ES64L-G09RevD.01\State=1-A\HF=-155.6966355\MP2=-155
 .9221599\RMSD=6.211e-09\PG=C01 [X(C4H6)]\\@

 Normal termination of Gaussian 09 at Wed Aug 26 09:29:16 2020.
