 Gaussian 09, Revision D.01,
 Gaussian 09:  ES64L-G09RevD.01 24-Apr-2013

 --------------------
 #p B2PLYPD3/Def2QZVP
 --------------------

 ---------
 butadiene
 ---------
 Symbolic Z-matrix:
 Charge =  0 Multiplicity = 1

                         Standard orientation:
 ---------------------------------------------------------------------
 Center     Atomic      Atomic             Coordinates (Angstroms)
 Number     Number       Type             X           Y           Z
 ---------------------------------------------------------------------
      1          6           0        1.849916   -0.136263    0.040712
      2          6           0        0.635416    0.429772   -0.021740
      3          6           0       -0.612476   -0.378900   -0.059246
      4          6           0       -1.865492    0.092847    0.034965
      5          1           0        2.729452    0.509194   -0.072562
      6          1           0        1.986638   -1.228791    0.135714
      7          1           0        0.488723    1.526764   -0.101320
      8          1           0       -0.499588   -1.473875   -0.061797
      9          1           0       -2.037615    1.151440    0.161994
     10          1           0       -2.711796   -0.529470   -0.030169
 ---------------------------------------------------------------------

 SCF Done:  E(RB2PLYPD3) =  -155.696023156     A.U. after   11 cycles
 E2(B2PLYPD3) =    -0.2263528760D+00 E(B2PLYPD3) =    -0.15592237603219D+03

 The electronic state is 1-A.
 Alpha  occ. eigenvalues --  -10.63356 -10.62927 -10.62220 -10.61223  -0.92244
 Alpha  occ. eigenvalues --   -0.84843  -0.69809  -0.63530  -0.54324  -0.53685
 Alpha  occ. eigenvalues --   -0.47031  -0.45339  -0.40843  -0.37470  -0.27803
 Alpha virt. eigenvalues --    0.01644   0.07011   0.07327   0.07984   0.09356
 Alpha virt. eigenvalues --    0.11622   0.12290   0.14599   0.15655   0.16174
 Alpha virt. eigenvalues --    0.18956   0.20225   0.21367   0.22445   0.23816

 Mulliken charges:
               1
     1  C   -0.171602
     2  C   -0.043260
     3  C   -0.028405
     4  C   -0.177519
     5  H    0.086559
     6  H    0.073233
     7  H    0.058652
     8  H    0.050452
     9  H    0.060798
    10  H    0.091092
 Sum of Mulliken charges =   0.00000

 Dipole moment (field-independent basis, Debye):
    X=              0.0185    Y=             -0.0040    Z=             -0.0163  Tot=              0.0250
 Quadrupole moment (field-independent basis, Debye-Ang):
   XX=            -23.5132   YY=            -23.0848   ZZ=            -29.3837
   XY=             -0.1198   XZ=             -0.2343   YZ=             -0.0937

 1\1\GINC-NODE30\SP\RB2PLYPD3-FC\def2QZVP\C4H6\BOITTIER\26-Aug-2020\0\\
 #p B2PLYPD3/Def2QZVP\\butadiene\\0,1\C,0,-3.848147,0.24457,0.056121\C,
 0,-2.751676,-0.526672,0.008755\C,0,-1.381331,0.04988,-0.03954\C,0,-0.2
 30446,-0.632287,0.068084\H,0,-4.827193,-0.23879,-0.048095\H,0,-3.79123
 8,1.345772,0.129957\H,0,-2.799555,-1.633718,-0.049541\H,0,-1.300505,1.
 147436,-0.063199\H,0,-0.246605,-1.702018,0.215724\H,0,0.711867,-0.1693
 13,-0.005757\\Version=ES64L-G09RevD.01\State=1-A\HF=-155.6960232\MP2=-
 155.922376\RMSD=5.601e-09\PG=C01 [X(C4H6)]\\@

 Normal termination of Gaussian 09 at Wed Aug 26 09:04:41 2020.
