 Gaussian 09, Revision D.01,
 Gaussian 09:  ES64L-G09RevD.01 24-Apr-2013

 --------------------
 #p B2PLYPD3/Def2QZVP
 --------------------

 ---------
 butadiene
 ---------
 Symbolic Z-matrix:
 Charge =  0 Multiplicity = 1

                         Standard orientation:
 ---------------------------------------------------------------------
 Center     Atomic      Atomic             Coordinates (Angstroms)
 Number     Number       Type             X           Y           Z
 ---------------------------------------------------------------------
      1          6           0        1.849053    0.114241    0.011143
      2          6           0        0.616930   -0.415056   -0.024198
      3          6           0       -0.605216    0.391011   -0.022009
      4          6           0       -1.850689   -0.104829    0.019210
      5          1           0        2.740043   -0.494059    0.049811
      6          1           0        2.003453    1.213231    0.040594
      7          1           0        0.466997   -1.495904    0.003308
      8          1           0       -0.512538    1.485728   -0.048784
      9          1           0       -2.042135   -1.156134   -0.012863
     10          1           0       -2.716291    0.534932    0.063061
 ---------------------------------------------------------------------

 SCF Done:  E(RB2PLYPD3) =  -155.699748921     A.U. after   11 cycles
 E2(B2PLYPD3) =    -0.2260976153D+00 E(B2PLYPD3) =    -0.15592584653600D+03

 The electronic state is 1-A.
 Alpha  occ. eigenvalues --  -10.62986 -10.62814 -10.62019 -10.61366  -0.92627
 Alpha  occ. eigenvalues --   -0.84773  -0.70101  -0.63864  -0.54579  -0.53736
 Alpha  occ. eigenvalues --   -0.46742  -0.45380  -0.41093  -0.37911  -0.27660
 Alpha virt. eigenvalues --    0.01625   0.06996   0.07381   0.08022   0.09480
 Alpha virt. eigenvalues --    0.11598   0.12433   0.14586   0.15855   0.16231
 Alpha virt. eigenvalues --    0.18853   0.20503   0.21570   0.22782   0.23693

 Mulliken charges:
               1
     1  C   -0.168639
     2  C   -0.040789
     3  C   -0.024316
     4  C   -0.178260
     5  H    0.087277
     6  H    0.064984
     7  H    0.057513
     8  H    0.052447
     9  H    0.064498
    10  H    0.085284
 Sum of Mulliken charges =   0.00000

 Dipole moment (field-independent basis, Debye):
    X=              0.0112    Y=             -0.0180    Z=              0.0542  Tot=              0.0582
 Quadrupole moment (field-independent basis, Debye-Ang):
   XX=            -23.3341   YY=            -23.1336   ZZ=            -29.3669
   XY=              0.1370   XZ=              0.1067   YZ=              0.0127

 1\1\GINC-NODE37\SP\RB2PLYPD3-FC\def2QZVP\C4H6\BOITTIER\26-Aug-2020\0\\
 #p B2PLYPD3/Def2QZVP\\butadiene\\0,1\C,0,-3.849525,0.228343,0.003515\C
 ,0,-2.731588,-0.511109,0.057914\C,0,-1.38519,0.063412,0.034968\C,0,-0.
 248352,-0.647801,0.01188\H,0,-4.834893,-0.21201,-0.019387\H,0,-3.80534
 ,1.335869,-0.059095\H,0,-2.777083,-1.601693,0.06304\H,0,-1.280886,1.15
 7393,0.028851\H,0,-0.247567,-1.714965,0.075788\H,0,0.717431,-0.174434,
 -0.048706\\Version=ES64L-G09RevD.01\State=1-A\HF=-155.6997489\MP2=-155
 .9258465\RMSD=2.662e-09\PG=C01 [X(C4H6)]\\@

 Normal termination of Gaussian 09 at Wed Aug 26 20:14:27 2020.
