 Gaussian 09, Revision D.01,
 Gaussian 09:  ES64L-G09RevD.01 24-Apr-2013

 --------------------
 #p B2PLYPD3/Def2QZVP
 --------------------

 ---------
 butadiene
 ---------
 Symbolic Z-matrix:
 Charge =  0 Multiplicity = 1

                         Standard orientation:
 ---------------------------------------------------------------------
 Center     Atomic      Atomic             Coordinates (Angstroms)
 Number     Number       Type             X           Y           Z
 ---------------------------------------------------------------------
      1          6           0        1.854660    0.068503    0.006879
      2          6           0        0.587762   -0.381886   -0.057858
      3          6           0       -0.618499    0.448999   -0.039544
      4          6           0       -1.831879   -0.141402    0.059658
      5          1           0        2.784686   -0.501865    0.144401
      6          1           0        1.963172    1.151861    0.003052
      7          1           0        0.378124   -1.449875    0.010275
      8          1           0       -0.383702    1.506741    0.121127
      9          1           0       -1.965478   -1.146197    0.020061
     10          1           0       -2.729067    0.474050   -0.113731
 ---------------------------------------------------------------------

 SCF Done:  E(RB2PLYPD3) =  -155.685992866     A.U. after   11 cycles
 E2(B2PLYPD3) =    -0.2270653260D+00 E(B2PLYPD3) =    -0.15591305819232D+03

 The electronic state is 1-A.
 Alpha  occ. eigenvalues --  -10.63354 -10.62703 -10.61967 -10.61557  -0.92852
 Alpha  occ. eigenvalues --   -0.84569  -0.70464  -0.64401  -0.54626  -0.53489
 Alpha  occ. eigenvalues --   -0.47649  -0.45145  -0.40962  -0.37590  -0.27506
 Alpha virt. eigenvalues --    0.01107   0.07033   0.07371   0.08167   0.08954
 Alpha virt. eigenvalues --    0.11752   0.12718   0.14607   0.15333   0.16256
 Alpha virt. eigenvalues --    0.18778   0.19544   0.22430   0.23034   0.23827

 Mulliken charges:
               1
     1  C   -0.177595
     2  C   -0.021274
     3  C   -0.039256
     4  C   -0.168782
     5  H    0.091136
     6  H    0.051935
     7  H    0.048807
     8  H    0.064776
     9  H    0.073163
    10  H    0.077090
 Sum of Mulliken charges =   0.00000

 Dipole moment (field-independent basis, Debye):
    X=             -0.0121    Y=             -0.0318    Z=              0.1000  Tot=              0.1056
 Quadrupole moment (field-independent basis, Debye-Ang):
   XX=            -23.4682   YY=            -23.3885   ZZ=            -29.3012
   XY=              0.4348   XZ=              0.7792   YZ=             -0.0548

 1\1\GINC-NODE15\SP\RB2PLYPD3-FC\def2QZVP\C4H6\BOITTIER\26-Aug-2020\0\\
 #p B2PLYPD3/Def2QZVP\\butadiene\\0,1\C,0,-3.863598,0.194417,-0.002782\
 C,0,-2.701536,-0.479438,0.084416\C,0,-1.362817,0.114389,0.053253\C,0,-
 0.278667,-0.691807,-0.020045\H,0,-4.882365,-0.198688,-0.132247\H,0,-3.
 770707,1.278909,-0.029303\H,0,-2.692012,-1.569257,0.047057\H,0,-1.3982
 86,1.192312,-0.138023\H,0,-0.332556,-1.702501,0.047949\H,0,0.716024,-0
 .24735,0.143781\\Version=ES64L-G09RevD.01\State=1-A\HF=-155.6859929\MP
 2=-155.9130582\RMSD=8.851e-09\PG=C01 [X(C4H6)]\\@

 Normal termination of Gaussian 09 at Wed Aug 26 15:25:38 2020.
