 Gaussian 09, Revision D.01,
 Gaussian 09:  ES64L-G09RevD.01 24-Apr-2013

 --------------------
 #p B2PLYPD3/Def2QZVP
 --------------------

 ---------
 butadiene
 ---------
 Symbolic Z-matrix:
 Charge =  0 Multiplicity = 1

                         Standard orientation:
 ---------------------------------------------------------------------
 Center     Atomic      Atomic             Coordinates (Angstroms)
 Number     Number       Type             X           Y           Z
 ---------------------------------------------------------------------
      1          6           0        1.840257    0.089979   -0.069366
      2          6           0        0.597743   -0.421762    0.023757
      3          6           0       -0.592256    0.420427    0.037349
      4          6           0       -1.818011   -0.122371   -0.031667
      5          1           0        2.721035   -0.520889    0.115849
      6          1           0        1.914821    1.179802   -0.099916
      7          1           0        0.247866   -1.374901    0.183310
      8          1           0       -0.411751    1.535895    0.212809
      9          1           0       -1.943148   -1.136436   -0.104516
     10          1           0       -2.695224    0.518887   -0.067967
 ---------------------------------------------------------------------

 SCF Done:  E(RB2PLYPD3) =  -155.683795665     A.U. after   11 cycles
 E2(B2PLYPD3) =    -0.2266750273D+00 E(B2PLYPD3) =    -0.15591047069266D+03

 The electronic state is 1-A.
 Alpha  occ. eigenvalues --  -10.63001 -10.62155 -10.61964 -10.61141  -0.93298
 Alpha  occ. eigenvalues --   -0.84611  -0.70603  -0.64514  -0.54637  -0.53501
 Alpha  occ. eigenvalues --   -0.47175  -0.46361  -0.40809  -0.37510  -0.27585
 Alpha virt. eigenvalues --    0.01492   0.07060   0.07348   0.08102   0.09184
 Alpha virt. eigenvalues --    0.11849   0.12507   0.14697   0.15544   0.15925
 Alpha virt. eigenvalues --    0.18631   0.19801   0.21670   0.23111   0.23975

 Mulliken charges:
               1
     1  C   -0.171089
     2  C   -0.037199
     3  C   -0.016769
     4  C   -0.193631
     5  H    0.087036
     6  H    0.065716
     7  H    0.059883
     8  H    0.048808
     9  H    0.070437
    10  H    0.086807
 Sum of Mulliken charges =   0.00000

 Dipole moment (field-independent basis, Debye):
    X=             -0.1140    Y=             -0.0386    Z=              0.2557  Tot=              0.2826
 Quadrupole moment (field-independent basis, Debye-Ang):
   XX=            -23.8282   YY=            -23.2740   ZZ=            -29.1959
   XY=              0.4747   XZ=              0.5948   YZ=             -0.0766

 1\1\GINC-NODE28\SP\RB2PLYPD3-FC\def2QZVP\C4H6\BOITTIER\26-Aug-2020\0\\
 #p B2PLYPD3/Def2QZVP\\butadiene\\0,1\C,0,-3.838481,0.225341,0.074334\C
 ,0,-2.714679,-0.514021,0.005024\C,0,-1.387292,0.088059,-0.028277\C,0,-
 0.285781,-0.673371,0.065356\H,0,-4.818618,-0.214375,-0.096589\H,0,-3.7
 06327,1.310109,0.069676\H,0,-2.550709,-1.520666,-0.121961\H,0,-1.35437
 3,1.21127,-0.240289\H,0,-0.353979,-1.689949,0.171246\H,0,0.696564,-0.2
 07985,0.086451\\Version=ES64L-G09RevD.01\State=1-A\HF=-155.6837957\MP2
 =-155.9104707\RMSD=6.684e-09\PG=C01 [X(C4H6)]\\@

 Normal termination of Gaussian 09 at Wed Aug 26 15:33:57 2020.
