 Gaussian 09, Revision D.01,
 Gaussian 09:  ES64L-G09RevD.01 24-Apr-2013

 --------------------
 #p B2PLYPD3/Def2QZVP
 --------------------

 ---------
 butadiene
 ---------
 Symbolic Z-matrix:
 Charge =  0 Multiplicity = 1

                         Standard orientation:
 ---------------------------------------------------------------------
 Center     Atomic      Atomic             Coordinates (Angstroms)
 Number     Number       Type             X           Y           Z
 ---------------------------------------------------------------------
      1          6           0       -1.827675    0.091987   -0.016179
      2          6           0       -0.592651   -0.372764    0.013858
      3          6           0        0.599365    0.431985    0.006624
      4          6           0        1.827986   -0.140852   -0.031588
      5          1           0       -2.732984   -0.559110   -0.024931
      6          1           0       -2.033212    1.155101   -0.054752
      7          1           0       -0.471591   -1.499889    0.154926
      8          1           0        0.525848    1.536436    0.095522
      9          1           0        1.978236   -1.191078   -0.079689
     10          1           0        2.691548    0.496394    0.072636
 ---------------------------------------------------------------------

 SCF Done:  E(RB2PLYPD3) =  -155.694533620     A.U. after   11 cycles
 E2(B2PLYPD3) =    -0.2264904416D+00 E(B2PLYPD3) =    -0.15592102406183D+03

 The electronic state is 1-A.
 Alpha  occ. eigenvalues --  -10.63098 -10.62742 -10.61580 -10.61539  -0.93051
 Alpha  occ. eigenvalues --   -0.84766  -0.70022  -0.63429  -0.54459  -0.53840
 Alpha  occ. eigenvalues --   -0.46118  -0.45422  -0.41096  -0.38053  -0.27543
 Alpha virt. eigenvalues --    0.01607   0.07026   0.07163   0.07852   0.09564
 Alpha virt. eigenvalues --    0.11623   0.12362   0.14716   0.15725   0.16230
 Alpha virt. eigenvalues --    0.18688   0.20081   0.21665   0.22731   0.23751

 Mulliken charges:
               1
     1  C   -0.173693
     2  C   -0.018599
     3  C   -0.039318
     4  C   -0.176790
     5  H    0.082308
     6  H    0.061943
     7  H    0.049461
     8  H    0.057783
     9  H    0.073962
    10  H    0.082943
 Sum of Mulliken charges =   0.00000

 Dipole moment (field-independent basis, Debye):
    X=              0.0241    Y=              0.0256    Z=              0.1524  Tot=              0.1564
 Quadrupole moment (field-independent basis, Debye-Ang):
   XX=            -23.6191   YY=            -23.0641   ZZ=            -29.3231
   XY=             -0.1594   XZ=              0.2299   YZ=              0.0464

 1\1\GINC-NODE15\SP\RB2PLYPD3-FC\def2QZVP\C4H6\BOITTIER\26-Aug-2020\0\\
 #p B2PLYPD3/Def2QZVP\\butadiene\\0,1\C,0,-3.834943,0.202083,0.003343\C
 ,0,-2.703211,-0.475514,0.050518\C,0,-1.386243,0.102028,0.025705\C,0,-0
 .280278,-0.682588,0.007577\H,0,-4.842324,-0.276185,0.009035\H,0,-3.846
 605,1.283355,-0.064916\H,0,-2.786,-1.601781,0.22267\H,0,-1.260447,1.20
 3786,0.084222\H,0,-0.320809,-1.743655,-0.011357\H,0,0.683674,-0.207838
 ,0.097547\\Version=ES64L-G09RevD.01\State=1-A\HF=-155.6945336\MP2=-155
 .9210241\RMSD=7.218e-09\PG=C01 [X(C4H6)]\\@

 Normal termination of Gaussian 09 at Wed Aug 26 08:41:08 2020.
