 Gaussian 09, Revision D.01,
 Gaussian 09:  ES64L-G09RevD.01 24-Apr-2013

 --------------------
 #p B2PLYPD3/Def2QZVP
 --------------------

 ---------
 butadiene
 ---------
 Symbolic Z-matrix:
 Charge =  0 Multiplicity = 1

                         Standard orientation:
 ---------------------------------------------------------------------
 Center     Atomic      Atomic             Coordinates (Angstroms)
 Number     Number       Type             X           Y           Z
 ---------------------------------------------------------------------
      1          6           0       -1.836452   -0.108129   -0.019366
      2          6           0       -0.602370    0.415161    0.024945
      3          6           0        0.599475   -0.404785    0.003265
      4          6           0        1.832462    0.103290   -0.012221
      5          1           0       -2.729021    0.484194    0.000721
      6          1           0       -1.956744   -1.178838   -0.004744
      7          1           0       -0.460018    1.494697    0.014810
      8          1           0        0.439613   -1.481961    0.022298
      9          1           0        2.044205    1.168982   -0.036053
     10          1           0        2.703276   -0.520301    0.023229
 ---------------------------------------------------------------------

 SCF Done:  E(RB2PLYPD3) =  -155.700869943     A.U. after   11 cycles
 E2(B2PLYPD3) =    -0.2257404570D+00 E(B2PLYPD3) =    -0.15592661040002D+03

 The electronic state is 1-A.
 Alpha  occ. eigenvalues --  -10.62649 -10.62590 -10.61423 -10.61414  -0.92958
 Alpha  occ. eigenvalues --   -0.84811  -0.70257  -0.64157  -0.54890  -0.53711
 Alpha  occ. eigenvalues --   -0.46879  -0.45511  -0.41199  -0.38091  -0.27614
 Alpha virt. eigenvalues --    0.01737   0.07047   0.07365   0.08134   0.09469
 Alpha virt. eigenvalues --    0.11670   0.12543   0.14710   0.15888   0.16185
 Alpha virt. eigenvalues --    0.18785   0.20510   0.21834   0.22945   0.23664

 Mulliken charges:
               1
     1  C   -0.175204
     2  C   -0.029601
     3  C   -0.030222
     4  C   -0.174594
     5  H    0.087205
     6  H    0.062405
     7  H    0.056043
     8  H    0.055575
     9  H    0.065046
    10  H    0.083347
 Sum of Mulliken charges =   0.00000

 Dipole moment (field-independent basis, Debye):
    X=              0.0090    Y=              0.0107    Z=              0.0391  Tot=              0.0415
 Quadrupole moment (field-independent basis, Debye-Ang):
   XX=            -23.3782   YY=            -23.1196   ZZ=            -29.2777
   XY=              0.2541   XZ=              0.0193   YZ=             -0.0741

 1\1\GINC-NODE17\SP\RB2PLYPD3-FC\def2QZVP\C4H6\BOITTIER\26-Aug-2020\0\\
 #p B2PLYPD3/Def2QZVP\\butadiene\\0,1\C,0,-3.836806,0.228416,0.036409\C
 ,0,-2.719543,-0.513125,0.01207\C,0,-1.387849,0.073214,0.008514\C,0,-0.
 268623,-0.651182,0.043424\H,0,-4.822784,-0.190838,0.034508\H,0,-3.7591
 65,1.301959,-0.014392\H,0,-2.777131,-1.599528,0.058725\H,0,-1.347944,1
 .160207,-0.046989\H,0,-0.255401,-1.736229,0.103438\H,0,0.701454,-0.199
 077,-0.011272\\Version=ES64L-G09RevD.01\State=1-A\HF=-155.7008699\MP2=
 -155.9266104\RMSD=4.256e-09\PG=C01 [X(C4H6)]\\@

 Normal termination of Gaussian 09 at Wed Aug 26 21:01:38 2020.
