 Gaussian 09, Revision D.01,
 Gaussian 09:  ES64L-G09RevD.01 24-Apr-2013

 --------------------
 #p B2PLYPD3/Def2QZVP
 --------------------

 ---------
 butadiene
 ---------
 Symbolic Z-matrix:
 Charge =  0 Multiplicity = 1

                         Standard orientation:
 ---------------------------------------------------------------------
 Center     Atomic      Atomic             Coordinates (Angstroms)
 Number     Number       Type             X           Y           Z
 ---------------------------------------------------------------------
      1          6           0        1.832008   -0.106390   -0.018846
      2          6           0        0.592788    0.398848    0.008372
      3          6           0       -0.607886   -0.416827    0.034552
      4          6           0       -1.827571    0.111705   -0.026081
      5          1           0        2.669966    0.550438    0.019753
      6          1           0        2.026126   -1.160771   -0.059229
      7          1           0        0.461980    1.486653    0.065832
      8          1           0       -0.433548   -1.500727    0.023645
      9          1           0       -1.965123    1.216055   -0.051836
     10          1           0       -2.695428   -0.515659    0.013854
 ---------------------------------------------------------------------

 SCF Done:  E(RB2PLYPD3) =  -155.699587175     A.U. after   11 cycles
 E2(B2PLYPD3) =    -0.2258359120D+00 E(B2PLYPD3) =    -0.15592542308708D+03

 The electronic state is 1-A.
 Alpha  occ. eigenvalues --  -10.62572 -10.62501 -10.61688 -10.61160  -0.93029
 Alpha  occ. eigenvalues --   -0.84883  -0.70092  -0.63805  -0.54640  -0.53808
 Alpha  occ. eigenvalues --   -0.46535  -0.45686  -0.41134  -0.38138  -0.27642
 Alpha virt. eigenvalues --    0.01819   0.07056   0.07259   0.08097   0.09524
 Alpha virt. eigenvalues --    0.11733   0.12355   0.14768   0.15706   0.16166
 Alpha virt. eigenvalues --    0.18701   0.20332   0.21651   0.22823   0.24009

 Mulliken charges:
               1
     1  C   -0.183526
     2  C   -0.022131
     3  C   -0.033970
     4  C   -0.171968
     5  H    0.085532
     6  H    0.066974
     7  H    0.051721
     8  H    0.054444
     9  H    0.065136
    10  H    0.087787
 Sum of Mulliken charges =   0.00000

 Dipole moment (field-independent basis, Debye):
    X=             -0.0087    Y=             -0.0203    Z=              0.0392  Tot=              0.0450
 Quadrupole moment (field-independent basis, Debye-Ang):
   XX=            -23.6923   YY=            -22.9806   ZZ=            -29.2855
   XY=             -0.1991   XZ=              0.0346   YZ=              0.0786

 1\1\GINC-NODE20\SP\RB2PLYPD3-FC\def2QZVP\C4H6\BOITTIER\26-Aug-2020\0\\
 #p B2PLYPD3/Def2QZVP\\butadiene\\0,1\C,0,-3.835309,0.223487,-0.000367\
 C,0,-2.709526,-0.499087,0.046241\C,0,-1.379626,0.083145,0.046866\C,0,-
 0.277706,-0.661698,0.00643\H,0,-4.779245,-0.266968,0.05901\H,0,-3.8331
 37,1.293613,-0.076898\H,0,-2.779984,-1.589874,0.140861\H,0,-1.35247,1.
 179643,-0.001174\H,0,-0.344935,-1.772782,0.018457\H,0,0.690573,-0.2030
 21,0.026597\\Version=ES64L-G09RevD.01\State=1-A\HF=-155.6995872\MP2=-1
 55.9254231\RMSD=4.348e-09\PG=C01 [X(C4H6)]\\@

 Normal termination of Gaussian 09 at Wed Aug 26 21:46:24 2020.
