 Gaussian 09, Revision D.01,
 Gaussian 09:  ES64L-G09RevD.01 24-Apr-2013

 --------------------
 #p B2PLYPD3/Def2QZVP
 --------------------

 ---------
 butadiene
 ---------
 Symbolic Z-matrix:
 Charge =  0 Multiplicity = 1

                         Standard orientation:
 ---------------------------------------------------------------------
 Center     Atomic      Atomic             Coordinates (Angstroms)
 Number     Number       Type             X           Y           Z
 ---------------------------------------------------------------------
      1          6           0       -1.827668   -0.122953   -0.016751
      2          6           0       -0.602809    0.415272    0.006235
      3          6           0        0.594476   -0.390021    0.027893
      4          6           0        1.831489    0.098620   -0.012509
      5          1           0       -2.689171    0.500077   -0.005228
      6          1           0       -1.959153   -1.204587   -0.081006
      7          1           0       -0.534833    1.505061    0.101777
      8          1           0        0.462497   -1.442005    0.080848
      9          1           0        2.024907    1.166021   -0.090419
     10          1           0        2.722818   -0.530070   -0.035185
 ---------------------------------------------------------------------

 SCF Done:  E(RB2PLYPD3) =  -155.699964792     A.U. after   11 cycles
 E2(B2PLYPD3) =    -0.2256210996D+00 E(B2PLYPD3) =    -0.15592558589109D+03

 The electronic state is 1-A.
 Alpha  occ. eigenvalues --  -10.62524 -10.62151 -10.61496 -10.61380  -0.93205
 Alpha  occ. eigenvalues --   -0.84930  -0.70115  -0.64215  -0.54760  -0.54048
 Alpha  occ. eigenvalues --   -0.46563  -0.45349  -0.41469  -0.38192  -0.27616
 Alpha virt. eigenvalues --    0.01770   0.07063   0.07444   0.08008   0.09581
 Alpha virt. eigenvalues --    0.11682   0.12457   0.14710   0.15813   0.16265
 Alpha virt. eigenvalues --    0.18769   0.20405   0.21612   0.22768   0.23853

 Mulliken charges:
               1
     1  C   -0.179035
     2  C   -0.029210
     3  C   -0.033790
     4  C   -0.171697
     5  H    0.086843
     6  H    0.065045
     7  H    0.056586
     8  H    0.060062
     9  H    0.063367
    10  H    0.081827
 Sum of Mulliken charges =   0.00000

 Dipole moment (field-independent basis, Debye):
    X=             -0.0232    Y=              0.0028    Z=             -0.0069  Tot=              0.0243
 Quadrupole moment (field-independent basis, Debye-Ang):
   XX=            -23.5217   YY=            -23.0717   ZZ=            -29.2146
   XY=              0.0289   XZ=             -0.1542   YZ=              0.0513

 1\1\GINC-NODE03\SP\RB2PLYPD3-FC\def2QZVP\C4H6\BOITTIER\26-Aug-2020\0\\
 #p B2PLYPD3/Def2QZVP\\butadiene\\0,1\C,0,-3.827228,0.234763,0.033007\C
 ,0,-2.71916,-0.515329,0.026707\C,0,-1.396606,0.060788,-0.010685\C,0,-0
 .26758,-0.641193,0.045228\H,0,-4.786742,-0.223298,0.033862\H,0,-3.7619
 71,1.323644,0.070811\H,0,-2.848399,-1.601568,-0.042372\H,0,-1.337324,1
 .117761,-0.089344\H,0,-0.269165,-1.72377,0.149393\H,0,0.722306,-0.1826
 6,0.055478\\Version=ES64L-G09RevD.01\State=1-A\HF=-155.6999648\MP2=-15
 5.9255859\RMSD=5.028e-09\PG=C01 [X(C4H6)]\\@

 Normal termination of Gaussian 09 at Wed Aug 26 09:23:30 2020.
