 Gaussian 09, Revision D.01,
 Gaussian 09:  ES64L-G09RevD.01 24-Apr-2013

 --------------------
 #p B2PLYPD3/Def2QZVP
 --------------------

 ---------
 butadiene
 ---------
 Symbolic Z-matrix:
 Charge =  0 Multiplicity = 1

                         Standard orientation:
 ---------------------------------------------------------------------
 Center     Atomic      Atomic             Coordinates (Angstroms)
 Number     Number       Type             X           Y           Z
 ---------------------------------------------------------------------
      1          6           0        1.813342   -0.116880   -0.043776
      2          6           0        0.595264    0.429438    0.002443
      3          6           0       -0.588137   -0.381755    0.042195
      4          6           0       -1.829218    0.101837   -0.033318
      5          1           0        2.772521    0.437205    0.066729
      6          1           0        1.945289   -1.252091   -0.049811
      7          1           0        0.526650    1.527452    0.150424
      8          1           0       -0.487957   -1.447732    0.094319
      9          1           0       -2.071129    1.141186   -0.083204
     10          1           0       -2.632880   -0.601862    0.016275
 ---------------------------------------------------------------------

 SCF Done:  E(RB2PLYPD3) =  -155.694186886     A.U. after   11 cycles
 E2(B2PLYPD3) =    -0.2262813885D+00 E(B2PLYPD3) =    -0.15592046827412D+03

 The electronic state is 1-A.
 Alpha  occ. eigenvalues --  -10.62765 -10.62432 -10.62191 -10.61037  -0.93280
 Alpha  occ. eigenvalues --   -0.84778  -0.69794  -0.63898  -0.54392  -0.54049
 Alpha  occ. eigenvalues --   -0.46284  -0.44984  -0.41224  -0.38188  -0.27590
 Alpha virt. eigenvalues --    0.01690   0.07019   0.07305   0.07869   0.09550
 Alpha virt. eigenvalues --    0.11595   0.12382   0.14641   0.15730   0.16368
 Alpha virt. eigenvalues --    0.18762   0.20123   0.21591   0.22355   0.24090

 Mulliken charges:
               1
     1  C   -0.164128
     2  C   -0.033053
     3  C   -0.029976
     4  C   -0.175796
     5  H    0.079938
     6  H    0.052235
     7  H    0.060901
     8  H    0.058607
     9  H    0.071152
    10  H    0.080120
 Sum of Mulliken charges =   0.00000

 Dipole moment (field-independent basis, Debye):
    X=              0.0135    Y=              0.0071    Z=              0.2087  Tot=              0.2092
 Quadrupole moment (field-independent basis, Debye-Ang):
   XX=            -23.6593   YY=            -23.0599   ZZ=            -29.2776
   XY=             -0.1033   XZ=              0.3268   YZ=              0.0706

 1\1\GINC-NODE24\SP\RB2PLYPD3-FC\def2QZVP\C4H6\BOITTIER\26-Aug-2020\0\\
 #p B2PLYPD3/Def2QZVP\\butadiene\\0,1\C,0,-3.814662,0.230968,-0.017632\
 C,0,-2.715621,-0.525392,0.048261\C,0,-1.404403,0.058295,0.056425\C,0,-
 0.272287,-0.64511,-0.001715\H,0,-4.85759,-0.135226,0.114466\H,0,-3.738
 471,1.37025,-0.066454\H,0,-2.846262,-1.611364,0.237571\H,0,-1.309092,1
 .125925,0.068312\H,0,-0.223374,-1.712231,-0.012481\H,0,0.646078,-0.097
 724,0.020636\\Version=ES64L-G09RevD.01\State=1-A\HF=-155.6941869\MP2=-
 155.9204683\RMSD=7.610e-09\PG=C01 [X(C4H6)]\\@

 Normal termination of Gaussian 09 at Wed Aug 26 09:09:47 2020.
