 Gaussian 09, Revision D.01,
 Gaussian 09:  ES64L-G09RevD.01 24-Apr-2013

 --------------------
 #p B2PLYPD3/Def2QZVP
 --------------------

 ---------
 butadiene
 ---------
 Symbolic Z-matrix:
 Charge =  0 Multiplicity = 1

                         Standard orientation:
 ---------------------------------------------------------------------
 Center     Atomic      Atomic             Coordinates (Angstroms)
 Number     Number       Type             X           Y           Z
 ---------------------------------------------------------------------
      1          6           0        1.840213    0.089048    0.002098
      2          6           0        0.594337   -0.377887   -0.021250
      3          6           0       -0.603495    0.420686   -0.003091
      4          6           0       -1.832883   -0.129881   -0.002181
      5          1           0        2.689336   -0.539384    0.109271
      6          1           0        2.028119    1.104087   -0.002794
      7          1           0        0.398333   -1.430840   -0.076917
      8          1           0       -0.425889    1.489411    0.004334
      9          1           0       -1.986480   -1.182702    0.092106
     10          1           0       -2.692448    0.547633    0.020540
 ---------------------------------------------------------------------

 SCF Done:  E(RB2PLYPD3) =  -155.696782046     A.U. after   11 cycles
 E2(B2PLYPD3) =    -0.2255729050D+00 E(B2PLYPD3) =    -0.15592235495116D+03

 The electronic state is 1-A.
 Alpha  occ. eigenvalues --  -10.62543 -10.62005 -10.61794 -10.60624  -0.93284
 Alpha  occ. eigenvalues --   -0.84930  -0.70817  -0.64557  -0.54728  -0.54234
 Alpha  occ. eigenvalues --   -0.47037  -0.46195  -0.41201  -0.38132  -0.27478
 Alpha virt. eigenvalues --    0.01488   0.07003   0.07498   0.08190   0.09607
 Alpha virt. eigenvalues --    0.11818   0.12510   0.14968   0.15688   0.16135
 Alpha virt. eigenvalues --    0.18733   0.20366   0.22014   0.23140   0.23699

 Mulliken charges:
               1
     1  C   -0.182864
     2  C   -0.016608
     3  C   -0.035637
     4  C   -0.180644
     5  H    0.085541
     6  H    0.064028
     7  H    0.052270
     8  H    0.054953
     9  H    0.075330
    10  H    0.083631
 Sum of Mulliken charges =   0.00000

 Dipole moment (field-independent basis, Debye):
    X=              0.0004    Y=              0.0210    Z=              0.1277  Tot=              0.1294
 Quadrupole moment (field-independent basis, Debye-Ang):
   XX=            -23.5754   YY=            -23.0992   ZZ=            -29.1548
   XY=              0.3687   XZ=              0.0506   YZ=             -0.1007

 1\1\GINC-NODE24\SP\RB2PLYPD3-FC\def2QZVP\C4H6\BOITTIER\26-Aug-2020\0\\
 #p B2PLYPD3/Def2QZVP\\butadiene\\0,1\C,0,-3.844694,0.212736,0.01406\C,
 0,-2.706592,-0.47581,0.051607\C,0,-1.381799,0.086779,0.016\C,0,-0.2754
 29,-0.681485,0.031349\H,0,-4.795656,-0.250303,-0.079152\H,0,-3.841648,
 1.244819,-0.006751\H,0,-2.708534,-1.54513,0.133921\H,0,-1.358735,1.169
 393,-0.018442\H,0,-0.31941,-1.746566,-0.036335\H,0,0.694534,-0.175389,
 -0.006494\\Version=ES64L-G09RevD.01\State=1-A\HF=-155.696782\MP2=-155.
 922355\RMSD=5.979e-09\PG=C01 [X(C4H6)]\\@

 Normal termination of Gaussian 09 at Wed Aug 26 10:04:11 2020.
