 Gaussian 09, Revision D.01,
 Gaussian 09:  ES64L-G09RevD.01 24-Apr-2013

 --------------------
 #p B2PLYPD3/Def2QZVP
 --------------------

 ---------
 butadiene
 ---------
 Symbolic Z-matrix:
 Charge =  0 Multiplicity = 1

                         Standard orientation:
 ---------------------------------------------------------------------
 Center     Atomic      Atomic             Coordinates (Angstroms)
 Number     Number       Type             X           Y           Z
 ---------------------------------------------------------------------
      1          6           0       -1.847020    0.096517    0.011462
      2          6           0       -0.610592   -0.384050   -0.015945
      3          6           0        0.607100    0.407571   -0.024418
      4          6           0        1.844259   -0.117871    0.023241
      5          1           0       -2.692166   -0.536550   -0.033860
      6          1           0       -2.058504    1.153253    0.102855
      7          1           0       -0.432544   -1.453162   -0.010813
      8          1           0        0.501750    1.484389   -0.048626
      9          1           0        2.001848   -1.166390    0.035818
     10          1           0        2.717133    0.505459   -0.011419
 ---------------------------------------------------------------------

 SCF Done:  E(RB2PLYPD3) =  -155.700483453     A.U. after   11 cycles
 E2(B2PLYPD3) =    -0.2253780277D+00 E(B2PLYPD3) =    -0.15592586148096D+03

 The electronic state is 1-A.
 Alpha  occ. eigenvalues --  -10.62570 -10.62395 -10.61360 -10.61163  -0.92977
 Alpha  occ. eigenvalues --   -0.85050  -0.70653  -0.64218  -0.54934  -0.54057
 Alpha  occ. eigenvalues --   -0.46973  -0.45951  -0.41104  -0.38040  -0.27678
 Alpha virt. eigenvalues --    0.01608   0.07019   0.07508   0.08136   0.09692
 Alpha virt. eigenvalues --    0.11672   0.12499   0.14854   0.15904   0.16149
 Alpha virt. eigenvalues --    0.18894   0.20604   0.21745   0.22806   0.23686

 Mulliken charges:
               1
     1  C   -0.175337
     2  C   -0.030016
     3  C   -0.030287
     4  C   -0.177753
     5  H    0.087166
     6  H    0.065860
     7  H    0.053294
     8  H    0.055017
     9  H    0.066321
    10  H    0.085736
 Sum of Mulliken charges =   0.00000

 Dipole moment (field-independent basis, Debye):
    X=              0.0054    Y=             -0.0018    Z=              0.0065  Tot=              0.0087
 Quadrupole moment (field-independent basis, Debye-Ang):
   XX=            -23.2669   YY=            -23.1728   ZZ=            -29.1957
   XY=             -0.2354   XZ=             -0.0948   YZ=              0.0529

 1\1\GINC-NODE39\SP\RB2PLYPD3-FC\def2QZVP\C4H6\BOITTIER\26-Aug-2020\0\\
 #p B2PLYPD3/Def2QZVP\\butadiene\\0,1\C,0,-3.850402,0.214667,0.032378\C
 ,0,-2.721587,-0.482511,0.019352\C,0,-1.380705,0.074874,-0.010064\C,0,-
 0.258984,-0.664492,0.053192\H,0,-4.796412,-0.255816,0.003932\H,0,-3.86
 661,1.294334,0.094236\H,0,-2.740098,-1.565638,0.054296\H,0,-1.289384,1
 .151883,-0.064231\H,0,-0.293853,-1.723464,0.094991\H,0,0.712196,-0.210
 799,0.00198\\Version=ES64L-G09RevD.01\State=1-A\HF=-155.7004835\MP2=-1
 55.9258615\RMSD=5.359e-09\PG=C01 [X(C4H6)]\\@

 Normal termination of Gaussian 09 at Wed Aug 26 16:39:27 2020.
