 Gaussian 09, Revision D.01,
 Gaussian 09:  ES64L-G09RevD.01 24-Apr-2013

 --------------------
 #p B2PLYPD3/Def2QZVP
 --------------------

 ---------
 butadiene
 ---------
 Symbolic Z-matrix:
 Charge =  0 Multiplicity = 1

                         Standard orientation:
 ---------------------------------------------------------------------
 Center     Atomic      Atomic             Coordinates (Angstroms)
 Number     Number       Type             X           Y           Z
 ---------------------------------------------------------------------
      1          6           0        1.820644    0.104604    0.030898
      2          6           0        0.595397   -0.372337   -0.058451
      3          6           0       -0.593921    0.393421   -0.054307
      4          6           0       -1.793401   -0.096436   -0.017444
      5          1           0        2.549040   -0.629043    0.115415
      6          1           0        1.981557    1.144959    0.029137
      7          1           0        0.390722   -1.406848    0.065265
      8          1           0       -0.479720    1.528039    0.049343
      9          1           0       -1.869695   -1.213140    0.068822
     10          1           0       -2.744213    0.400518    0.267848
 ---------------------------------------------------------------------

 SCF Done:  E(RB2PLYPD3) =  -155.683786073     A.U. after   11 cycles
 E2(B2PLYPD3) =    -0.2254281725D+00 E(B2PLYPD3) =    -0.15590921424506D+03

 The electronic state is 1-A.
 Alpha  occ. eigenvalues --  -10.62162 -10.61538 -10.61518 -10.60551  -0.94355
 Alpha  occ. eigenvalues --   -0.85854  -0.70496  -0.63735  -0.55474  -0.53975
 Alpha  occ. eigenvalues --   -0.47057  -0.45389  -0.40163  -0.38876  -0.28144
 Alpha virt. eigenvalues --    0.01852   0.07101   0.07184   0.08075   0.09941
 Alpha virt. eigenvalues --    0.11852   0.12510   0.14658   0.15513   0.16388
 Alpha virt. eigenvalues --    0.18650   0.19720   0.21734   0.23560   0.23613

 Mulliken charges:
               1
     1  C   -0.186240
     2  C   -0.017896
     3  C   -0.012486
     4  C   -0.153059
     5  H    0.090563
     6  H    0.078912
     7  H    0.047570
     8  H    0.035121
     9  H    0.036865
    10  H    0.080651
 Sum of Mulliken charges =   0.00000

 Dipole moment (field-independent basis, Debye):
    X=              0.0371    Y=             -0.0179    Z=              0.4593  Tot=              0.4612
 Quadrupole moment (field-independent basis, Debye-Ang):
   XX=            -23.8440   YY=            -23.3900   ZZ=            -28.8625
   XY=              0.0648   XZ=             -0.5663   YZ=             -0.0372

 1\1\GINC-NODE31\SP\RB2PLYPD3-FC\def2QZVP\C4H6\BOITTIER\26-Aug-2020\0\\
 #p B2PLYPD3/Def2QZVP\\butadiene\\0,1\C,0,-3.819512,0.220201,-0.014038\
 C,0,-2.702879,-0.473109,0.081553\C,0,-1.392607,0.059302,0.056958\C,0,-
 0.304595,-0.644537,0.026731\H,0,-4.671519,-0.367707,-0.080294\H,0,-3.7
 85402,1.272182,-0.034212\H,0,-2.693784,-1.529953,-0.020469\H,0,-1.2959
 34,1.193091,-0.070792\H,0,-0.436584,-1.757631,-0.035653\H,0,0.719583,-
 0.337935,-0.272356\\Version=ES64L-G09RevD.01\State=1-A\HF=-155.6837861
 \MP2=-155.9092142\RMSD=8.033e-09\PG=C01 [X(C4H6)]\\@

 Normal termination of Gaussian 09 at Wed Aug 26 13:29:48 2020.
