 Gaussian 09, Revision D.01,
 Gaussian 09:  ES64L-G09RevD.01 24-Apr-2013

 --------------------
 #p B2PLYPD3/Def2QZVP
 --------------------

 ---------
 butadiene
 ---------
 Symbolic Z-matrix:
 Charge =  0 Multiplicity = 1

                         Standard orientation:
 ---------------------------------------------------------------------
 Center     Atomic      Atomic             Coordinates (Angstroms)
 Number     Number       Type             X           Y           Z
 ---------------------------------------------------------------------
      1          6           0        1.837733    0.066191    0.058482
      2          6           0        0.630202   -0.358011   -0.114064
      3          6           0       -0.613206    0.453025   -0.026983
      4          6           0       -1.834210   -0.159340    0.026415
      5          1           0        2.669081   -0.526476    0.010583
      6          1           0        1.912624    1.196102    0.224413
      7          1           0        0.474391   -1.445798   -0.042778
      8          1           0       -0.546155    1.539301   -0.125405
      9          1           0       -1.926154   -1.171748    0.260421
     10          1           0       -2.706896    0.397433    0.009664
 ---------------------------------------------------------------------

 SCF Done:  E(RB2PLYPD3) =  -155.682803991     A.U. after   12 cycles
 E2(B2PLYPD3) =    -0.2257406982D+00 E(B2PLYPD3) =    -0.15590854468878D+03

 The electronic state is 1-A.
 Alpha  occ. eigenvalues --  -10.63421 -10.62057 -10.61066 -10.60817  -0.92834
 Alpha  occ. eigenvalues --   -0.85451  -0.70335  -0.63662  -0.55704  -0.53778
 Alpha  occ. eigenvalues --   -0.47252  -0.45454  -0.40806  -0.37604  -0.27929
 Alpha virt. eigenvalues --    0.01756   0.07148   0.07372   0.08111   0.09265
 Alpha virt. eigenvalues --    0.11656   0.12447   0.14597   0.15422   0.16705
 Alpha virt. eigenvalues --    0.18689   0.19504   0.21771   0.22908   0.23984

 Mulliken charges:
               1
     1  C   -0.164459
     2  C   -0.018783
     3  C   -0.051659
     4  C   -0.176204
     5  H    0.098031
     6  H    0.048583
     7  H    0.048142
     8  H    0.060361
     9  H    0.072567
    10  H    0.083419
 Sum of Mulliken charges =   0.00000

 Dipole moment (field-independent basis, Debye):
    X=             -0.0224    Y=             -0.0452    Z=              0.2176  Tot=              0.2233
 Quadrupole moment (field-independent basis, Debye-Ang):
   XX=            -23.4727   YY=            -23.2459   ZZ=            -29.0720
   XY=             -0.2516   XZ=             -0.0253   YZ=             -0.2679

 1\1\GINC-NODE30\SP\RB2PLYPD3-FC\def2QZVP\C4H6\BOITTIER\26-Aug-2020\0\\
 #p B2PLYPD3/Def2QZVP\\butadiene\\0,1\C,0,-3.848142,0.169989,-0.041851\
 C,0,-2.732933,-0.457072,0.134079\C,0,-1.36732,0.124801,0.044903\C,0,-0
 .271489,-0.690939,-0.00425\H,0,-4.769964,-0.268737,0.007674\H,0,-3.725
 188,1.294914,-0.212928\H,0,-2.768768,-1.555694,0.067852\H,0,-1.244354,
 1.206614,0.138382\H,0,-0.357029,-1.70497,-0.233611\H,0,0.684765,-0.294
 453,0.011086\\Version=ES64L-G09RevD.01\State=1-A\HF=-155.682804\MP2=-1
 55.9085447\RMSD=3.497e-09\PG=C01 [X(C4H6)]\\@

 Normal termination of Gaussian 09 at Wed Aug 26 14:34:26 2020.
