 Gaussian 09, Revision D.01,
 Gaussian 09:  ES64L-G09RevD.01 24-Apr-2013

 --------------------
 #p B2PLYPD3/Def2QZVP
 --------------------

 ---------
 butadiene
 ---------
 Symbolic Z-matrix:
 Charge =  0 Multiplicity = 1

                         Standard orientation:
 ---------------------------------------------------------------------
 Center     Atomic      Atomic             Coordinates (Angstroms)
 Number     Number       Type             X           Y           Z
 ---------------------------------------------------------------------
      1          6           0        1.834744   -0.124900    0.010562
      2          6           0        0.600586    0.413731   -0.028210
      3          6           0       -0.601127   -0.377679   -0.001371
      4          6           0       -1.856077    0.090601    0.028292
      5          1           0        2.710951    0.500260    0.100332
      6          1           0        2.014890   -1.152960   -0.023422
      7          1           0        0.480706    1.507049   -0.025642
      8          1           0       -0.383600   -1.407051   -0.073248
      9          1           0       -2.057458    1.147414   -0.058504
     10          1           0       -2.634250   -0.605227    0.024838
 ---------------------------------------------------------------------

 SCF Done:  E(RB2PLYPD3) =  -155.696263404     A.U. after   11 cycles
 E2(B2PLYPD3) =    -0.2256918295D+00 E(B2PLYPD3) =    -0.15592195523307D+03

 The electronic state is 1-A.
 Alpha  occ. eigenvalues --  -10.62647 -10.62027 -10.61358 -10.61135  -0.93162
 Alpha  occ. eigenvalues --   -0.84911  -0.71015  -0.64405  -0.55029  -0.53972
 Alpha  occ. eigenvalues --   -0.46799  -0.46429  -0.41403  -0.37965  -0.27415
 Alpha virt. eigenvalues --    0.01366   0.07024   0.07507   0.08188   0.09636
 Alpha virt. eigenvalues --    0.11750   0.12432   0.15007   0.15774   0.16115
 Alpha virt. eigenvalues --    0.18797   0.20511   0.21697   0.23197   0.23821

 Mulliken charges:
               1
     1  C   -0.181068
     2  C   -0.023970
     3  C   -0.030989
     4  C   -0.183907
     5  H    0.082869
     6  H    0.068685
     7  H    0.051099
     8  H    0.055750
     9  H    0.072040
    10  H    0.089492
 Sum of Mulliken charges =   0.00000

 Dipole moment (field-independent basis, Debye):
    X=              0.0703    Y=             -0.0425    Z=             -0.0788  Tot=              0.1139
 Quadrupole moment (field-independent basis, Debye-Ang):
   XX=            -23.5321   YY=            -23.0716   ZZ=            -29.1887
   XY=             -0.3328   XZ=              0.3580   YZ=              0.0639

 1\1\GINC-NODE02\SP\RB2PLYPD3-FC\def2QZVP\C4H6\BOITTIER\26-Aug-2020\0\\
 #p B2PLYPD3/Def2QZVP\\butadiene\\0,1\C,0,-3.834516,0.247458,0.031412\C
 ,0,-2.721457,-0.511084,0.009361\C,0,-1.394027,0.04488,0.009461\C,0,-0.
 24707,-0.646218,0.053495\H,0,-4.810541,-0.20168,0.142192\H,0,-3.821783
 ,1.289478,-0.036007\H,0,-2.805689,-1.607062,0.047556\H,0,-1.418043,1.0
 93891,-0.095847\H,0,-0.245064,-1.724269,0.001122\H,0,0.646256,-0.10677
 9,0.026747\\Version=ES64L-G09RevD.01\State=1-A\HF=-155.6962634\MP2=-15
 5.9219552\RMSD=4.947e-09\PG=C01 [X(C4H6)]\\@

 Normal termination of Gaussian 09 at Wed Aug 26 10:48:42 2020.
