 Gaussian 09, Revision D.01,
 Gaussian 09:  ES64L-G09RevD.01 24-Apr-2013

 --------------------
 #p B2PLYPD3/Def2QZVP
 --------------------

 ---------
 butadiene
 ---------
 Symbolic Z-matrix:
 Charge =  0 Multiplicity = 1

                         Standard orientation:
 ---------------------------------------------------------------------
 Center     Atomic      Atomic             Coordinates (Angstroms)
 Number     Number       Type             X           Y           Z
 ---------------------------------------------------------------------
      1          6           0       -1.831303    0.111862   -0.008323
      2          6           0       -0.598822   -0.409835   -0.003952
      3          6           0        0.605344    0.395785    0.009764
      4          6           0        1.830662   -0.112516   -0.019328
      5          1           0       -2.718624   -0.510069    0.034682
      6          1           0       -1.949852    1.219361   -0.042218
      7          1           0       -0.498443   -1.476518    0.033639
      8          1           0        0.466535    1.473451    0.073571
      9          1           0        2.008021   -1.177965    0.027328
     10          1           0        2.657069    0.559961    0.004033
 ---------------------------------------------------------------------

 SCF Done:  E(RB2PLYPD3) =  -155.699751756     A.U. after   11 cycles
 E2(B2PLYPD3) =    -0.2256589439D+00 E(B2PLYPD3) =    -0.15592541070031D+03

 The electronic state is 1-A.
 Alpha  occ. eigenvalues --  -10.62341 -10.62254 -10.61828 -10.61131  -0.93155
 Alpha  occ. eigenvalues --   -0.84987  -0.69922  -0.64070  -0.54463  -0.54140
 Alpha  occ. eigenvalues --   -0.46492  -0.45516  -0.41385  -0.38149  -0.27675
 Alpha virt. eigenvalues --    0.01848   0.07035   0.07365   0.08056   0.09603
 Alpha virt. eigenvalues --    0.11748   0.12359   0.14683   0.15858   0.16113
 Alpha virt. eigenvalues --    0.18685   0.20501   0.21368   0.22825   0.24141

 Mulliken charges:
               1
     1  C   -0.176518
     2  C   -0.030318
     3  C   -0.027616
     4  C   -0.177892
     5  H    0.087720
     6  H    0.060748
     7  H    0.055640
     8  H    0.053100
     9  H    0.070084
    10  H    0.085050
 Sum of Mulliken charges =   0.00000

 Dipole moment (field-independent basis, Debye):
    X=              0.0074    Y=             -0.0271    Z=              0.1268  Tot=              0.1298
 Quadrupole moment (field-independent basis, Debye-Ang):
   XX=            -23.7394   YY=            -22.9752   ZZ=            -29.2529
   XY=              0.0115   XZ=              0.0557   YZ=             -0.0653

 1\1\GINC-NODE08\SP\RB2PLYPD3-FC\def2QZVP\C4H6\BOITTIER\26-Aug-2020\0\\
 #p B2PLYPD3/Def2QZVP\\butadiene\\0,1\C,0,-3.833844,0.225714,0.011094\C
 ,0,-2.715287,-0.508747,0.035472\C,0,-1.385819,0.067144,0.02584\C,0,-0.
 272015,-0.653946,0.016318\H,0,-4.818401,-0.224732,0.072198\H,0,-3.7513
 82,1.334775,-0.059184\H,0,-2.808269,-1.574292,0.108069\H,0,-1.328313,1
 .153696,0.054135\H,0,-0.28902,-1.73183,0.098123\H,0,0.661943,-0.140692
 ,0.019748\\Version=ES64L-G09RevD.01\State=1-A\HF=-155.6997518\MP2=-155
 .9254107\RMSD=3.244e-09\PG=C01 [X(C4H6)]\\@

 Normal termination of Gaussian 09 at Wed Aug 26 12:26:00 2020.
