 Gaussian 09, Revision D.01,
 Gaussian 09:  ES64L-G09RevD.01 24-Apr-2013

 --------------------
 #p B2PLYPD3/Def2QZVP
 --------------------

 ---------
 butadiene
 ---------
 Symbolic Z-matrix:
 Charge =  0 Multiplicity = 1

                         Standard orientation:
 ---------------------------------------------------------------------
 Center     Atomic      Atomic             Coordinates (Angstroms)
 Number     Number       Type             X           Y           Z
 ---------------------------------------------------------------------
      1          6           0        1.825573    0.081814    0.025743
      2          6           0        0.581263   -0.386609   -0.045787
      3          6           0       -0.596049    0.426190    0.017650
      4          6           0       -1.827519   -0.114111   -0.030298
      5          1           0        2.696878   -0.585748    0.003795
      6          1           0        2.074820    1.143140   -0.188947
      7          1           0        0.243099   -1.446828    0.246794
      8          1           0       -0.405788    1.511017    0.156604
      9          1           0       -1.915698   -1.221419   -0.093509
     10          1           0       -2.592919    0.556127    0.071416
 ---------------------------------------------------------------------

 SCF Done:  E(RB2PLYPD3) =  -155.679950798     A.U. after   11 cycles
 E2(B2PLYPD3) =    -0.2275342806D+00 E(B2PLYPD3) =    -0.15590748507813D+03

 The electronic state is 1-A.
 Alpha  occ. eigenvalues --  -10.62910 -10.62500 -10.62129 -10.61400  -0.93430
 Alpha  occ. eigenvalues --   -0.84788  -0.70568  -0.62959  -0.55314  -0.52562
 Alpha  occ. eigenvalues --   -0.46663  -0.45723  -0.40617  -0.37730  -0.27681
 Alpha virt. eigenvalues --    0.01312   0.06890   0.07242   0.08021   0.09096
 Alpha virt. eigenvalues --    0.11756   0.12281   0.14730   0.14987   0.15936
 Alpha virt. eigenvalues --    0.18473   0.19434   0.21745   0.23388   0.23637

 Mulliken charges:
               1
     1  C   -0.178809
     2  C   -0.021289
     3  C   -0.023525
     4  C   -0.186994
     5  H    0.080721
     6  H    0.065776
     7  H    0.049715
     8  H    0.047780
     9  H    0.071606
    10  H    0.095020
 Sum of Mulliken charges =   0.00000

 Dipole moment (field-independent basis, Debye):
    X=             -0.0062    Y=              0.0957    Z=              0.1319  Tot=              0.1631
 Quadrupole moment (field-independent basis, Debye-Ang):
   XX=            -23.9029   YY=            -23.3575   ZZ=            -29.2062
   XY=              0.4636   XZ=             -0.4253   YZ=             -0.1625

 1\1\GINC-NODE16\SP\RB2PLYPD3-FC\def2QZVP\C4H6\BOITTIER\26-Aug-2020\0\\
 #p B2PLYPD3/Def2QZVP\\butadiene\\0,1\C,0,-3.829551,0.218551,-0.003014\
 C,0,-2.699304,-0.481196,0.072756\C,0,-1.387099,0.086892,-0.005498\C,0,
 -0.283502,-0.681208,0.047799\H,0,-4.813615,-0.267002,0.030893\H,0,-3.8
 67227,1.31102,0.196286\H,0,-2.574582,-1.590934,-0.204641\H,0,-1.364156
 ,1.185924,-0.160286\H,0,-0.411334,-1.783579,0.127418\H,0,0.596779,-0.1
 73634,-0.065668\\Version=ES64L-G09RevD.01\State=1-A\HF=-155.6799508\MP
 2=-155.9074851\RMSD=7.768e-09\PG=C01 [X(C4H6)]\\@

 Normal termination of Gaussian 09 at Wed Aug 26 14:44:24 2020.
