 Gaussian 09, Revision D.01,
 Gaussian 09:  ES64L-G09RevD.01 24-Apr-2013

 --------------------
 #p B2PLYPD3/Def2QZVP
 --------------------

 ---------
 butadiene
 ---------
 Symbolic Z-matrix:
 Charge =  0 Multiplicity = 1

                         Standard orientation:
 ---------------------------------------------------------------------
 Center     Atomic      Atomic             Coordinates (Angstroms)
 Number     Number       Type             X           Y           Z
 ---------------------------------------------------------------------
      1          6           0       -1.849351    0.089400    0.023633
      2          6           0       -0.597461   -0.377671   -0.030162
      3          6           0        0.605173    0.412859   -0.066179
      4          6           0        1.847813   -0.127384    0.016946
      5          1           0       -2.730067   -0.563206    0.099133
      6          1           0       -2.079009    1.166586    0.020835
      7          1           0       -0.396463   -1.443164   -0.034467
      8          1           0        0.475342    1.475501    0.053894
      9          1           0        1.996676   -1.192489    0.064447
     10          1           0        2.696476    0.573544    0.130730
 ---------------------------------------------------------------------

 SCF Done:  E(RB2PLYPD3) =  -155.696324887     A.U. after   11 cycles
 E2(B2PLYPD3) =    -0.2266971088D+00 E(B2PLYPD3) =    -0.15592302199625D+03

 The electronic state is 1-A.
 Alpha  occ. eigenvalues --  -10.62637 -10.62489 -10.62224 -10.62001  -0.92997
 Alpha  occ. eigenvalues --   -0.84474  -0.70292  -0.64117  -0.54350  -0.53606
 Alpha  occ. eigenvalues --   -0.46443  -0.45823  -0.40966  -0.38114  -0.27429
 Alpha virt. eigenvalues --    0.01245   0.06955   0.07387   0.08013   0.09517
 Alpha virt. eigenvalues --    0.11697   0.12278   0.14793   0.15512   0.16157
 Alpha virt. eigenvalues --    0.18778   0.20051   0.21742   0.23066   0.23580

 Mulliken charges:
               1
     1  C   -0.174953
     2  C   -0.028217
     3  C   -0.029245
     4  C   -0.180825
     5  H    0.084609
     6  H    0.062899
     7  H    0.050545
     8  H    0.058152
     9  H    0.072629
    10  H    0.084405
 Sum of Mulliken charges =   0.00000

 Dipole moment (field-independent basis, Debye):
    X=              0.0118    Y=              0.0054    Z=              0.2397  Tot=              0.2401
 Quadrupole moment (field-independent basis, Debye-Ang):
   XX=            -23.6240   YY=            -23.1497   ZZ=            -29.3598
   XY=             -0.2728   XZ=              0.2608   YZ=              0.0921

 1\1\GINC-NODE36\SP\RB2PLYPD3-FC\def2QZVP\C4H6\BOITTIER\26-Aug-2020\0\\
 #p B2PLYPD3/Def2QZVP\\butadiene\\0,1\C,0,-3.854589,0.212883,0.046129\C
 ,0,-2.709498,-0.47674,0.007892\C,0,-1.382425,0.079042,-0.042591\C,0,-0
 .259716,-0.677517,0.057756\H,0,-4.839891,-0.265365,0.133958\H,0,-3.883
 026,1.313529,0.016952\H,0,-2.7071,-1.560815,0.029589\H,0,-1.315285,1.1
 50055,0.051767\H,0,-0.308456,-1.750419,0.131049\H,0,0.703088,-0.141368
 ,0.157896\\Version=ES64L-G09RevD.01\State=1-A\HF=-155.6963249\MP2=-155
 .923022\RMSD=5.987e-09\PG=C01 [X(C4H6)]\\@

 Normal termination of Gaussian 09 at Wed Aug 26 08:56:02 2020.
