 Gaussian 09, Revision D.01,
 Gaussian 09:  ES64L-G09RevD.01 24-Apr-2013

 --------------------
 #p B2PLYPD3/Def2QZVP
 --------------------

 ---------
 butadiene
 ---------
 Symbolic Z-matrix:
 Charge =  0 Multiplicity = 1

                         Standard orientation:
 ---------------------------------------------------------------------
 Center     Atomic      Atomic             Coordinates (Angstroms)
 Number     Number       Type             X           Y           Z
 ---------------------------------------------------------------------
      1          6           0        1.842026    0.109744   -0.018141
      2          6           0        0.609669   -0.398092    0.015421
      3          6           0       -0.610966    0.388866    0.040263
      4          6           0       -1.845986   -0.106983   -0.029113
      5          1           0        2.759823   -0.499167   -0.018118
      6          1           0        1.976891    1.182333   -0.036925
      7          1           0        0.507645   -1.470867    0.026274
      8          1           0       -0.471411    1.473762    0.010721
      9          1           0       -2.032024   -1.163516   -0.006195
     10          1           0       -2.709380    0.516247   -0.026339
 ---------------------------------------------------------------------

 SCF Done:  E(RB2PLYPD3) =  -155.700509562     A.U. after   11 cycles
 E2(B2PLYPD3) =    -0.2255560538D+00 E(B2PLYPD3) =    -0.15592606561550D+03

 The electronic state is 1-A.
 Alpha  occ. eigenvalues --  -10.62658 -10.62418 -10.61706 -10.61271  -0.93012
 Alpha  occ. eigenvalues --   -0.85050  -0.70289  -0.64110  -0.54734  -0.54002
 Alpha  occ. eigenvalues --   -0.46975  -0.45410  -0.40993  -0.38182  -0.27789
 Alpha virt. eigenvalues --    0.01684   0.06996   0.07490   0.08036   0.09706
 Alpha virt. eigenvalues --    0.11634   0.12535   0.14657   0.15830   0.16261
 Alpha virt. eigenvalues --    0.18886   0.20374   0.21807   0.22742   0.23674

 Mulliken charges:
               1
     1  C   -0.172659
     2  C   -0.027951
     3  C   -0.031885
     4  C   -0.172714
     5  H    0.085893
     6  H    0.061323
     7  H    0.054431
     8  H    0.052000
     9  H    0.065498
    10  H    0.086064
 Sum of Mulliken charges =   0.00000

 Dipole moment (field-independent basis, Debye):
    X=             -0.0116    Y=             -0.0152    Z=             -0.0054  Tot=              0.0199
 Quadrupole moment (field-independent basis, Debye-Ang):
   XX=            -23.2037   YY=            -23.2486   ZZ=            -29.2415
   XY=              0.0928   XZ=             -0.0118   YZ=             -0.0764

 1\1\GINC-NODE35\SP\RB2PLYPD3-FC\def2QZVP\C4H6\BOITTIER\26-Aug-2020\0\\
 #p B2PLYPD3/Def2QZVP\\butadiene\\0,1\C,0,-3.845596,0.222004,0.038448\C
 ,0,-2.723414,-0.49775,0.018702\C,0,-1.382265,0.058537,-0.022948\C,0,-0
 .255044,-0.647478,0.059935\H,0,-4.85712,-0.213625,0.051475\H,0,-3.7873
 3,1.30161,0.031677\H,0,-2.814007,-1.571505,0.033359\H,0,-1.326394,1.15
 1337,-0.019263\H,0,-0.260108,-1.720495,0.062269\H,0,0.705488,-0.188143
 ,0.043694\\Version=ES64L-G09RevD.01\State=1-A\HF=-155.7005096\MP2=-155
 .9260656\RMSD=3.907e-09\PG=C01 [X(C4H6)]\\@

 Normal termination of Gaussian 09 at Wed Aug 26 19:15:55 2020.
