 Gaussian 09, Revision D.01,
 Gaussian 09:  ES64L-G09RevD.01 24-Apr-2013

 --------------------
 #p B2PLYPD3/Def2QZVP
 --------------------

 ---------
 butadiene
 ---------
 Symbolic Z-matrix:
 Charge =  0 Multiplicity = 1

                         Standard orientation:
 ---------------------------------------------------------------------
 Center     Atomic      Atomic             Coordinates (Angstroms)
 Number     Number       Type             X           Y           Z
 ---------------------------------------------------------------------
      1          6           0        1.834134    0.113646   -0.030479
      2          6           0        0.606209   -0.440520    0.046055
      3          6           0       -0.579047    0.389703    0.068362
      4          6           0       -1.837526   -0.084012   -0.050162
      5          1           0        2.788017   -0.433970   -0.055521
      6          1           0        1.875967    1.206235   -0.077587
      7          1           0        0.420344   -1.457605   -0.029080
      8          1           0       -0.450745    1.452418    0.022248
      9          1           0       -2.073177   -1.168748    0.008639
     10          1           0       -2.703026    0.528768   -0.071351
 ---------------------------------------------------------------------

 SCF Done:  E(RB2PLYPD3) =  -155.694171723     A.U. after   11 cycles
 E2(B2PLYPD3) =    -0.2264884494D+00 E(B2PLYPD3) =    -0.15592066017214D+03

 The electronic state is 1-A.
 Alpha  occ. eigenvalues --  -10.62539 -10.62373 -10.62191 -10.61707  -0.93099
 Alpha  occ. eigenvalues --   -0.84385  -0.70275  -0.64902  -0.54918  -0.53372
 Alpha  occ. eigenvalues --   -0.46971  -0.45146  -0.41622  -0.37987  -0.27340
 Alpha virt. eigenvalues --    0.01356   0.07033   0.07440   0.08217   0.09195
 Alpha virt. eigenvalues --    0.11648   0.12662   0.14498   0.15800   0.16218
 Alpha virt. eigenvalues --    0.18826   0.20159   0.21870   0.22765   0.24115

 Mulliken charges:
               1
     1  C   -0.167742
     2  C   -0.037745
     3  C   -0.028031
     4  C   -0.177094
     5  H    0.086881
     6  H    0.060900
     7  H    0.067166
     8  H    0.056942
     9  H    0.055936
    10  H    0.082786
 Sum of Mulliken charges =   0.00000

 Dipole moment (field-independent basis, Debye):
    X=              0.0174    Y=             -0.0080    Z=             -0.1020  Tot=              0.1038
 Quadrupole moment (field-independent basis, Debye-Ang):
   XX=            -23.3042   YY=            -23.2662   ZZ=            -29.3246
   XY=              0.1380   XZ=             -0.1376   YZ=             -0.0802

 1\1\GINC-NODE09\SP\RB2PLYPD3-FC\def2QZVP\C4H6\BOITTIER\26-Aug-2020\0\\
 #p B2PLYPD3/Def2QZVP\\butadiene\\0,1\C,0,-3.830213,0.238113,0.055314\C
 ,0,-2.72615,-0.534997,-0.00873\C,0,-1.407915,0.061119,-0.047465\C,0,-0
 .258342,-0.634569,0.081851\H,0,-4.86881,-0.123055,0.091062\H,0,-3.6691
 88,1.320334,0.079592\H,0,-2.731286,-1.567141,0.087741\H,0,-1.337394,1.
 129955,-0.023622\H,0,-0.227476,-1.745151,0.045863\H,0,0.705587,-0.1920
 79,0.090899\\Version=ES64L-G09RevD.01\State=1-A\HF=-155.6941717\MP2=-1
 55.9206602\RMSD=5.684e-09\PG=C01 [X(C4H6)]\\@

 Normal termination of Gaussian 09 at Wed Aug 26 09:01:03 2020.
