 Gaussian 09, Revision D.01,
 Gaussian 09:  ES64L-G09RevD.01 24-Apr-2013

 --------------------
 #p B2PLYPD3/Def2QZVP
 --------------------

 ---------
 butadiene
 ---------
 Symbolic Z-matrix:
 Charge =  0 Multiplicity = 1

                         Standard orientation:
 ---------------------------------------------------------------------
 Center     Atomic      Atomic             Coordinates (Angstroms)
 Number     Number       Type             X           Y           Z
 ---------------------------------------------------------------------
      1          6           0       -1.835402   -0.117633   -0.026023
      2          6           0       -0.612384    0.408401    0.015458
      3          6           0        0.596755   -0.378897    0.023232
      4          6           0        1.844872    0.090341   -0.007943
      5          1           0       -2.719526    0.516110    0.018746
      6          1           0       -2.016244   -1.185017   -0.069543
      7          1           0       -0.475065    1.483414    0.059258
      8          1           0        0.457534   -1.445777    0.100532
      9          1           0        2.081433    1.166306   -0.063613
     10          1           0        2.708820   -0.548310   -0.073726
 ---------------------------------------------------------------------

 SCF Done:  E(RB2PLYPD3) =  -155.700292484     A.U. after   11 cycles
 E2(B2PLYPD3) =    -0.2256519011D+00 E(B2PLYPD3) =    -0.15592594438501D+03

 The electronic state is 1-A.
 Alpha  occ. eigenvalues --  -10.62479 -10.62335 -10.61673 -10.61639  -0.93139
 Alpha  occ. eigenvalues --   -0.84909  -0.70389  -0.64059  -0.54818  -0.53767
 Alpha  occ. eigenvalues --   -0.47043  -0.45323  -0.40929  -0.38199  -0.27723
 Alpha virt. eigenvalues --    0.01620   0.06994   0.07430   0.08052   0.09746
 Alpha virt. eigenvalues --    0.11613   0.12420   0.14780   0.15797   0.16209
 Alpha virt. eigenvalues --    0.18876   0.20303   0.21894   0.22518   0.23617

 Mulliken charges:
               1
     1  C   -0.172589
     2  C   -0.032587
     3  C   -0.028604
     4  C   -0.173785
     5  H    0.083679
     6  H    0.067655
     7  H    0.057258
     8  H    0.055333
     9  H    0.059157
    10  H    0.084482
 Sum of Mulliken charges =   0.00000

 Dipole moment (field-independent basis, Debye):
    X=             -0.0314    Y=             -0.0113    Z=             -0.0044  Tot=              0.0337
 Quadrupole moment (field-independent basis, Debye-Ang):
   XX=            -23.3117   YY=            -23.2185   ZZ=            -29.2267
   XY=              0.2545   XZ=             -0.2643   YZ=              0.0310

 1\1\GINC-NODE30\SP\RB2PLYPD3-FC\def2QZVP\C4H6\BOITTIER\26-Aug-2020\0\\
 #p B2PLYPD3/Def2QZVP\\butadiene\\0,1\C,0,-3.834264,0.236378,0.040243\C
 ,0,-2.727913,-0.505051,0.018404\C,0,-1.395353,0.047734,-0.006633\C,0,-
 0.253866,-0.640403,0.042661\H,0,-4.819299,-0.226317,0.009746\H,0,-3.81
 7108,1.319636,0.053088\H,0,-2.789254,-1.587868,0.00532\H,0,-1.337513,1
 .119478,-0.11438\H,0,-0.217688,-1.739458,0.12943\H,0,0.712253,-0.16860
 6,0.093946\\Version=ES64L-G09RevD.01\State=1-A\HF=-155.7002925\MP2=-15
 5.9259444\RMSD=4.771e-09\PG=C01 [X(C4H6)]\\@

 Normal termination of Gaussian 09 at Wed Aug 26 20:54:27 2020.
