 Gaussian 09, Revision D.01,
 Gaussian 09:  ES64L-G09RevD.01 24-Apr-2013

 --------------------
 #p B2PLYPD3/Def2QZVP
 --------------------

 ---------
 butadiene
 ---------
 Symbolic Z-matrix:
 Charge =  0 Multiplicity = 1

                         Standard orientation:
 ---------------------------------------------------------------------
 Center     Atomic      Atomic             Coordinates (Angstroms)
 Number     Number       Type             X           Y           Z
 ---------------------------------------------------------------------
      1          6           0        1.830154   -0.109863    0.012400
      2          6           0        0.591986    0.406679   -0.018168
      3          6           0       -0.596695   -0.393771   -0.020258
      4          6           0       -1.832970    0.097648    0.026164
      5          1           0        2.700477    0.505210    0.078828
      6          1           0        1.999728   -1.190438   -0.024602
      7          1           0        0.478981    1.502236   -0.046025
      8          1           0       -0.412895   -1.450528   -0.005998
      9          1           0       -2.003825    1.168930   -0.012289
     10          1           0       -2.717316   -0.539570    0.009253
 ---------------------------------------------------------------------

 SCF Done:  E(RB2PLYPD3) =  -155.700023831     A.U. after   11 cycles
 E2(B2PLYPD3) =    -0.2258914354D+00 E(B2PLYPD3) =    -0.15592591526661D+03

 The electronic state is 1-A.
 Alpha  occ. eigenvalues --  -10.62587 -10.62195 -10.61588 -10.61585  -0.93313
 Alpha  occ. eigenvalues --   -0.84781  -0.70392  -0.64064  -0.54798  -0.53783
 Alpha  occ. eigenvalues --   -0.46764  -0.45409  -0.41275  -0.38339  -0.27515
 Alpha virt. eigenvalues --    0.01570   0.07029   0.07354   0.08080   0.09676
 Alpha virt. eigenvalues --    0.11698   0.12466   0.14744   0.15791   0.16238
 Alpha virt. eigenvalues --    0.18757   0.20318   0.21756   0.22950   0.23718

 Mulliken charges:
               1
     1  C   -0.179565
     2  C   -0.024038
     3  C   -0.028310
     4  C   -0.173455
     5  H    0.087087
     6  H    0.062179
     7  H    0.050682
     8  H    0.055762
     9  H    0.064892
    10  H    0.084765
 Sum of Mulliken charges =   0.00000

 Dipole moment (field-independent basis, Debye):
    X=              0.0242    Y=             -0.0014    Z=             -0.0306  Tot=              0.0390
 Quadrupole moment (field-independent basis, Debye-Ang):
   XX=            -23.4509   YY=            -23.1612   ZZ=            -29.2539
   XY=             -0.1805   XZ=              0.1742   YZ=              0.0088

 1\1\GINC-NODE12\SP\RB2PLYPD3-FC\def2QZVP\C4H6\BOITTIER\26-Aug-2020\0\\
 #p B2PLYPD3/Def2QZVP\\butadiene\\0,1\C,0,-3.831452,0.230638,0.033058\C
 ,0,-2.709831,-0.50593,0.017435\C,0,-1.394021,0.061325,-0.006092\C,0,-0
 .269281,-0.648115,0.054551\H,0,-4.799905,-0.211421,0.115957\H,0,-3.799
 158,1.322539,-0.033843\H,0,-2.80078,-1.603889,0.019883\H,0,-1.379865,1
 .133844,-0.021101\H,0,-0.298947,-1.733176,0.045769\H,0,0.717261,-0.185
 535,0.020546\\Version=ES64L-G09RevD.01\State=1-A\HF=-155.7000238\MP2=-
 155.9259153\RMSD=3.903e-09\PG=C01 [X(C4H6)]\\@

 Normal termination of Gaussian 09 at Wed Aug 26 12:43:05 2020.
