 Gaussian 09, Revision D.01,
 Gaussian 09:  ES64L-G09RevD.01 24-Apr-2013

 --------------------
 #p B2PLYPD3/Def2QZVP
 --------------------

 ---------
 butadiene
 ---------
 Symbolic Z-matrix:
 Charge =  0 Multiplicity = 1

                         Standard orientation:
 ---------------------------------------------------------------------
 Center     Atomic      Atomic             Coordinates (Angstroms)
 Number     Number       Type             X           Y           Z
 ---------------------------------------------------------------------
      1          6           0       -1.869133    0.086791    0.053421
      2          6           0       -0.600349   -0.353181   -0.089499
      3          6           0        0.621169    0.400333   -0.028988
      4          6           0        1.854274   -0.120848    0.082446
      5          1           0       -2.600644   -0.631419   -0.004484
      6          1           0       -2.168217    1.160967    0.246671
      7          1           0       -0.422055   -1.397487   -0.200798
      8          1           0        0.510808    1.438846   -0.211729
      9          1           0        1.963675   -1.178511    0.227337
     10          1           0        2.680669    0.529035   -0.161278
 ---------------------------------------------------------------------

 SCF Done:  E(RB2PLYPD3) =  -155.689535920     A.U. after   11 cycles
 E2(B2PLYPD3) =    -0.2261924081D+00 E(B2PLYPD3) =    -0.15591572832814D+03

 The electronic state is 1-A.
 Alpha  occ. eigenvalues --  -10.62320 -10.62009 -10.61831 -10.61544  -0.93064
 Alpha  occ. eigenvalues --   -0.84942  -0.71028  -0.64055  -0.54464  -0.54108
 Alpha  occ. eigenvalues --   -0.46929  -0.46516  -0.41116  -0.37468  -0.27539
 Alpha virt. eigenvalues --    0.00982   0.07069   0.07592   0.08027   0.09853
 Alpha virt. eigenvalues --    0.11592   0.12222   0.15058   0.15756   0.15885
 Alpha virt. eigenvalues --    0.19104   0.19953   0.20937   0.21885   0.24239

 Mulliken charges:
               1
     1  C   -0.177204
     2  C   -0.047834
     3  C   -0.023284
     4  C   -0.186237
     5  H    0.091248
     6  H    0.072375
     7  H    0.052233
     8  H    0.060732
     9  H    0.068903
    10  H    0.089067
 Sum of Mulliken charges =   0.00000

 Dipole moment (field-independent basis, Debye):
    X=             -0.0444    Y=             -0.0328    Z=             -0.1586  Tot=              0.1679
 Quadrupole moment (field-independent basis, Debye-Ang):
   XX=            -23.7569   YY=            -23.1828   ZZ=            -29.0720
   XY=             -0.2163   XZ=             -0.6729   YZ=             -0.1472

 1\1\GINC-NODE06\SP\RB2PLYPD3-FC\def2QZVP\C4H6\BOITTIER\26-Aug-2020\0\\
 #p B2PLYPD3/Def2QZVP\\butadiene\\0,1\C,0,-3.87412,0.21373,0.077368\C,0
 ,-2.708925,-0.457046,-0.049896\C,0,-1.369612,0.061905,-0.027963\C,0,-0
 .251344,-0.670901,0.102675\H,0,-4.725234,-0.360185,0.054709\H,0,-3.969
 489,1.331958,0.222699\H,0,-2.725876,-1.520209,-0.114292\H,0,-1.290399,
 1.094002,-0.257279\H,0,-0.335447,-1.723294,0.295053\H,0,0.677005,-0.19
 4738,-0.173214\\Version=ES64L-G09RevD.01\State=1-A\HF=-155.6895359\MP2
 =-155.9157283\RMSD=5.745e-09\PG=C01 [X(C4H6)]\\@

 Normal termination of Gaussian 09 at Wed Aug 26 15:08:32 2020.
