 Gaussian 09, Revision D.01,
 Gaussian 09:  ES64L-G09RevD.01 24-Apr-2013

 --------------------
 #p B2PLYPD3/Def2QZVP
 --------------------

 ---------
 butadiene
 ---------
 Symbolic Z-matrix:
 Charge =  0 Multiplicity = 1

                         Standard orientation:
 ---------------------------------------------------------------------
 Center     Atomic      Atomic             Coordinates (Angstroms)
 Number     Number       Type             X           Y           Z
 ---------------------------------------------------------------------
      1          6           0        1.814255    0.084802    0.060750
      2          6           0        0.583825   -0.349473   -0.061698
      3          6           0       -0.579208    0.454152   -0.086821
      4          6           0       -1.800369   -0.164364    0.083339
      5          1           0        2.651757   -0.650978   -0.128143
      6          1           0        1.948271    1.152469    0.333072
      7          1           0        0.482045   -1.437016   -0.108708
      8          1           0       -0.549063    1.510486   -0.185701
      9          1           0       -1.961070   -1.163724    0.146926
     10          1           0       -2.682955    0.438062   -0.030866
 ---------------------------------------------------------------------

 SCF Done:  E(RB2PLYPD3) =  -155.682144751     A.U. after   12 cycles
 E2(B2PLYPD3) =    -0.2266776627D+00 E(B2PLYPD3) =    -0.15590882241328D+03

 The electronic state is 1-A.
 Alpha  occ. eigenvalues --  -10.62708 -10.61592 -10.61447 -10.61287  -0.93654
 Alpha  occ. eigenvalues --   -0.84732  -0.70501  -0.64274  -0.55136  -0.53380
 Alpha  occ. eigenvalues --   -0.47206  -0.44681  -0.42101  -0.37784  -0.27047
 Alpha virt. eigenvalues --    0.01133   0.06988   0.07487   0.07823   0.09592
 Alpha virt. eigenvalues --    0.11864   0.12259   0.15026   0.15625   0.16178
 Alpha virt. eigenvalues --    0.18853   0.20151   0.20755   0.22405   0.24479

 Mulliken charges:
               1
     1  C   -0.190080
     2  C   -0.004140
     3  C   -0.056907
     4  C   -0.172160
     5  H    0.085187
     6  H    0.065998
     7  H    0.053317
     8  H    0.071072
     9  H    0.075542
    10  H    0.072170
 Sum of Mulliken charges =   0.00000

 Dipole moment (field-independent basis, Debye):
    X=             -0.1470    Y=             -0.0488    Z=             -0.0719  Tot=              0.1707
 Quadrupole moment (field-independent basis, Debye-Ang):
   XX=            -24.2930   YY=            -22.8781   ZZ=            -29.0786
   XY=             -0.0304   XZ=              0.0835   YZ=              0.1564

 1\1\GINC-NODE25\SP\RB2PLYPD3-FC\def2QZVP\C4H6\BOITTIER\26-Aug-2020\0\\
 #p B2PLYPD3/Def2QZVP\\butadiene\\0,1\C,0,-3.820469,0.190023,-0.043588\
 C,0,-2.687734,-0.454291,0.095396\C,0,-1.399304,0.127949,0.101211\C,0,-
 0.309315,-0.70434,-0.047014\H,0,-4.776069,-0.377731,0.163647\H,0,-3.76
 12,1.256073,-0.346997\H,0,-2.782714,-1.54062,0.174053\H,0,-1.239175,1.
 174954,0.169518\H,0,-0.330715,-1.71773,-0.081252\H,0,0.667281,-0.26703
 9,0.052713\\Version=ES64L-G09RevD.01\State=1-A\HF=-155.6821448\MP2=-15
 5.9088224\RMSD=4.353e-09\PG=C01 [X(C4H6)]\\@

 Normal termination of Gaussian 09 at Wed Aug 26 12:43:35 2020.
