 Gaussian 09, Revision D.01,
 Gaussian 09:  ES64L-G09RevD.01 24-Apr-2013

 --------------------
 #p B2PLYPD3/Def2QZVP
 --------------------

 ---------
 butadiene
 ---------
 Symbolic Z-matrix:
 Charge =  0 Multiplicity = 1

                         Standard orientation:
 ---------------------------------------------------------------------
 Center     Atomic      Atomic             Coordinates (Angstroms)
 Number     Number       Type             X           Y           Z
 ---------------------------------------------------------------------
      1          6           0       -1.836865   -0.091622    0.021428
      2          6           0       -0.601943    0.410967   -0.046860
      3          6           0        0.603553   -0.437639   -0.012426
      4          6           0        1.832461    0.120077    0.031773
      5          1           0       -2.716819    0.474188   -0.028228
      6          1           0       -1.987039   -1.165248    0.151194
      7          1           0       -0.371425    1.482312   -0.021097
      8          1           0        0.455260   -1.484831   -0.100592
      9          1           0        1.942942    1.199949    0.094058
     10          1           0        2.693842   -0.517068   -0.058823
 ---------------------------------------------------------------------

 SCF Done:  E(RB2PLYPD3) =  -155.696659702     A.U. after   11 cycles
 E2(B2PLYPD3) =    -0.2260349832D+00 E(B2PLYPD3) =    -0.15592269468479D+03

 The electronic state is 1-A.
 Alpha  occ. eigenvalues --  -10.62779 -10.62531 -10.61684 -10.61238  -0.92715
 Alpha  occ. eigenvalues --   -0.84673  -0.70080  -0.64423  -0.54875  -0.53502
 Alpha  occ. eigenvalues --   -0.46907  -0.45930  -0.41196  -0.37657  -0.27557
 Alpha virt. eigenvalues --    0.01753   0.07093   0.07312   0.08230   0.09125
 Alpha virt. eigenvalues --    0.11742   0.12517   0.14667   0.15547   0.16298
 Alpha virt. eigenvalues --    0.18807   0.20170   0.21760   0.23167   0.23771

 Mulliken charges:
               1
     1  C   -0.172880
     2  C   -0.032248
     3  C   -0.034597
     4  C   -0.182045
     5  H    0.088158
     6  H    0.059917
     7  H    0.054440
     8  H    0.063720
     9  H    0.068741
    10  H    0.086793
 Sum of Mulliken charges =   0.00000

 Dipole moment (field-independent basis, Debye):
    X=             -0.0129    Y=             -0.0251    Z=             -0.0117  Tot=              0.0305
 Quadrupole moment (field-independent basis, Debye-Ang):
   XX=            -23.6184   YY=            -23.0537   ZZ=            -29.2827
   XY=              0.2809   XZ=             -0.2775   YZ=              0.0827

 1\1\GINC-NODE37\SP\RB2PLYPD3-FC\def2QZVP\C4H6\BOITTIER\26-Aug-2020\0\\
 #p B2PLYPD3/Def2QZVP\\butadiene\\0,1\C,0,-3.84043,0.21353,-0.006239\C,
 0,-2.719395,-0.506522,0.078008\C,0,-1.378061,0.104256,0.02995\C,0,-0.2
 73109,-0.671352,0.002916\H,0,-4.809647,-0.179066,0.052186\H,0,-3.79000
 5,1.293287,-0.160013\H,0,-2.690441,-1.602306,0.076567\H,0,-1.330653,1.
 16253,0.094638\H,0,-0.363707,-1.754189,-0.035339\H,0,0.691016,-0.20212
 4,0.083076\\Version=ES64L-G09RevD.01\State=1-A\HF=-155.6966597\MP2=-15
 5.9226947\RMSD=6.615e-09\PG=C01 [X(C4H6)]\\@

 Normal termination of Gaussian 09 at Wed Aug 26 09:23:40 2020.
