 Gaussian 09, Revision D.01,
 Gaussian 09:  ES64L-G09RevD.01 24-Apr-2013

 --------------------
 #p B2PLYPD3/Def2QZVP
 --------------------

 ---------
 butadiene
 ---------
 Symbolic Z-matrix:
 Charge =  0 Multiplicity = 1

                         Standard orientation:
 ---------------------------------------------------------------------
 Center     Atomic      Atomic             Coordinates (Angstroms)
 Number     Number       Type             X           Y           Z
 ---------------------------------------------------------------------
      1          6           0        1.853444    0.094576    0.005647
      2          6           0        0.614933   -0.379006   -0.012174
      3          6           0       -0.624464    0.435106   -0.052119
      4          6           0       -1.855452   -0.139046    0.031032
      5          1           0        2.731777   -0.585821   -0.018206
      6          1           0        2.064620    1.180477    0.205851
      7          1           0        0.473047   -1.472800   -0.089260
      8          1           0       -0.483917    1.493161   -0.052009
      9          1           0       -2.006809   -1.201363    0.138562
     10          1           0       -2.709488    0.516564   -0.019251
 ---------------------------------------------------------------------

 SCF Done:  E(RB2PLYPD3) =  -155.694660225     A.U. after   11 cycles
 E2(B2PLYPD3) =    -0.2265641502D+00 E(B2PLYPD3) =    -0.15592122437499D+03

 The electronic state is 1-A.
 Alpha  occ. eigenvalues --  -10.63115 -10.62757 -10.62045 -10.62018  -0.92343
 Alpha  occ. eigenvalues --   -0.84651  -0.69723  -0.63778  -0.54038  -0.53534
 Alpha  occ. eigenvalues --   -0.46842  -0.45592  -0.40658  -0.37572  -0.27733
 Alpha virt. eigenvalues --    0.01591   0.06954   0.07338   0.07985   0.09242
 Alpha virt. eigenvalues --    0.11633   0.12166   0.14709   0.15681   0.16119
 Alpha virt. eigenvalues --    0.18859   0.20094   0.21386   0.22591   0.23727

 Mulliken charges:
               1
     1  C   -0.174137
     2  C   -0.025536
     3  C   -0.050621
     4  C   -0.173271
     5  H    0.081956
     6  H    0.061592
     7  H    0.052761
     8  H    0.065198
     9  H    0.076419
    10  H    0.085639
 Sum of Mulliken charges =   0.00000

 Dipole moment (field-independent basis, Debye):
    X=             -0.0672    Y=             -0.0050    Z=              0.1220  Tot=              0.1394
 Quadrupole moment (field-independent basis, Debye-Ang):
   XX=            -23.7030   YY=            -23.0256   ZZ=            -29.3987
   XY=              0.1693   XZ=              0.0965   YZ=              0.1187

 1\1\GINC-NODE13\SP\RB2PLYPD3-FC\def2QZVP\C4H6\BOITTIER\26-Aug-2020\0\\
 #p B2PLYPD3/Def2QZVP\\butadiene\\0,1\C,0,-3.861257,0.205424,0.007358\C
 ,0,-2.726216,-0.479169,0.046384\C,0,-1.36204,0.10333,0.060437\C,0,-0.2
 52567,-0.68253,0.002213\H,0,-4.846174,-0.30722,0.053308\H,0,-3.877337,
 1.303508,-0.233082\H,0,-2.780144,-1.577235,0.16386\H,0,-1.312867,1.168
 823,0.021197\H,0,-0.29222,-1.758064,-0.065925\H,0,0.704297,-0.187249,0
 .031179\\Version=ES64L-G09RevD.01\State=1-A\HF=-155.6946602\MP2=-155.9
 212244\RMSD=7.068e-09\PG=C01 [X(C4H6)]\\@

 Normal termination of Gaussian 09 at Wed Aug 26 08:58:24 2020.
