 Gaussian 09, Revision D.01,
 Gaussian 09:  ES64L-G09RevD.01 24-Apr-2013

 --------------------
 #p B2PLYPD3/Def2QZVP
 --------------------

 ---------
 butadiene
 ---------
 Symbolic Z-matrix:
 Charge =  0 Multiplicity = 1

                         Standard orientation:
 ---------------------------------------------------------------------
 Center     Atomic      Atomic             Coordinates (Angstroms)
 Number     Number       Type             X           Y           Z
 ---------------------------------------------------------------------
      1          6           0       -1.846558   -0.137041   -0.036108
      2          6           0       -0.622567    0.417417    0.028401
      3          6           0        0.596713   -0.375355    0.029295
      4          6           0        1.858753    0.098946   -0.050741
      5          1           0       -2.708924    0.531751    0.046730
      6          1           0       -2.002726   -1.170211   -0.140495
      7          1           0       -0.491377    1.481101    0.094358
      8          1           0        0.501715   -1.432570    0.197818
      9          1           0        2.084589    1.145014   -0.037092
     10          1           0        2.698679   -0.578884    0.013600
 ---------------------------------------------------------------------

 SCF Done:  E(RB2PLYPD3) =  -155.697382442     A.U. after   11 cycles
 E2(B2PLYPD3) =    -0.2260265651D+00 E(B2PLYPD3) =    -0.15592340900737D+03

 The electronic state is 1-A.
 Alpha  occ. eigenvalues --  -10.62666 -10.62498 -10.61604 -10.61492  -0.92752
 Alpha  occ. eigenvalues --   -0.84753  -0.70448  -0.64418  -0.54466  -0.54066
 Alpha  occ. eigenvalues --   -0.46896  -0.45933  -0.41429  -0.37530  -0.27510
 Alpha virt. eigenvalues --    0.01368   0.07005   0.07597   0.07962   0.09502
 Alpha virt. eigenvalues --    0.11695   0.12357   0.14870   0.15702   0.16163
 Alpha virt. eigenvalues --    0.18925   0.20231   0.21626   0.22482   0.24018

 Mulliken charges:
               1
     1  C   -0.176414
     2  C   -0.040193
     3  C   -0.032309
     4  C   -0.180742
     5  H    0.083366
     6  H    0.078292
     7  H    0.061846
     8  H    0.058686
     9  H    0.065654
    10  H    0.081814
 Sum of Mulliken charges =   0.00000

 Dipole moment (field-independent basis, Debye):
    X=             -0.0436    Y=              0.0053    Z=              0.1895  Tot=              0.1945
 Quadrupole moment (field-independent basis, Debye-Ang):
   XX=            -23.5968   YY=            -23.0346   ZZ=            -29.2575
   XY=              0.2183   XZ=              0.1911   YZ=              0.0441

 1\1\GINC-NODE28\SP\RB2PLYPD3-FC\def2QZVP\C4H6\BOITTIER\26-Aug-2020\0\\
 #p B2PLYPD3/Def2QZVP\\butadiene\\0,1\C,0,-3.842798,0.249323,0.052354\C
 ,0,-2.737299,-0.515638,0.002885\C,0,-1.39642,0.047143,-0.018391\C,0,-0
 .238593,-0.641995,0.074542\H,0,-4.810762,-0.257203,-0.013199\H,0,-3.81
 2166,1.296144,0.129502\H,0,-2.797774,-1.587034,-0.035054\H,0,-1.302495
 ,1.099655,-0.214669\H,0,-0.202572,-1.711553,0.088465\H,0,0.708263,-0.1
 26399,-0.007279\\Version=ES64L-G09RevD.01\State=1-A\HF=-155.6973824\MP
 2=-155.923409\RMSD=6.223e-09\PG=C01 [X(C4H6)]\\@

 Normal termination of Gaussian 09 at Wed Aug 26 11:05:25 2020.
