 Gaussian 09, Revision D.01,
 Gaussian 09:  ES64L-G09RevD.01 24-Apr-2013

 --------------------
 #p B2PLYPD3/Def2QZVP
 --------------------

 ---------
 butadiene
 ---------
 Symbolic Z-matrix:
 Charge =  0 Multiplicity = 1

                         Standard orientation:
 ---------------------------------------------------------------------
 Center     Atomic      Atomic             Coordinates (Angstroms)
 Number     Number       Type             X           Y           Z
 ---------------------------------------------------------------------
      1          6           0       -1.794051   -0.134717    0.011684
      2          6           0       -0.595851    0.424990   -0.048475
      3          6           0        0.581769   -0.339743   -0.082070
      4          6           0        1.836344    0.067104    0.056028
      5          1           0       -2.733637    0.426005    0.307765
      6          1           0       -1.998486   -1.158486    0.069428
      7          1           0       -0.548375    1.564826   -0.127415
      8          1           0        0.278065   -1.423329   -0.089751
      9          1           0        2.098115    1.111533    0.057578
     10          1           0        2.735046   -0.626352    0.159402
 ---------------------------------------------------------------------

 SCF Done:  E(RB2PLYPD3) =  -155.682181848     A.U. after   11 cycles
 E2(B2PLYPD3) =    -0.2268648543D+00 E(B2PLYPD3) =    -0.15590904670259D+03

 The electronic state is 1-A.
 Alpha  occ. eigenvalues --  -10.62899 -10.62606 -10.62116 -10.61637  -0.93988
 Alpha  occ. eigenvalues --   -0.84881  -0.70691  -0.63591  -0.54748  -0.53750
 Alpha  occ. eigenvalues --   -0.46697  -0.44342  -0.40664  -0.38480  -0.27671
 Alpha virt. eigenvalues --    0.01313   0.06904   0.07219   0.07742   0.09841
 Alpha virt. eigenvalues --    0.11562   0.12438   0.14719   0.15548   0.16410
 Alpha virt. eigenvalues --    0.18752   0.19756   0.21393   0.22833   0.24004

 Mulliken charges:
               1
     1  C   -0.162905
     2  C   -0.014982
     3  C   -0.024513
     4  C   -0.172598
     5  H    0.067210
     6  H    0.060346
     7  H    0.052189
     8  H    0.044145
     9  H    0.068185
    10  H    0.082923
 Sum of Mulliken charges =   0.00000

 Dipole moment (field-independent basis, Debye):
    X=             -0.0632    Y=             -0.0082    Z=              0.2355  Tot=              0.2440
 Quadrupole moment (field-independent basis, Debye-Ang):
   XX=            -23.3885   YY=            -23.5784   ZZ=            -29.1005
   XY=              0.6337   XZ=             -0.3844   YZ=             -0.0709

 1\1\GINC-NODE33\SP\RB2PLYPD3-FC\def2QZVP\C4H6\BOITTIER\26-Aug-2020\0\\
 #p B2PLYPD3/Def2QZVP\\butadiene\\0,1\C,0,-3.791914,0.253987,-0.009593\
 C,0,-2.719484,-0.516497,0.08433\C,0,-1.419352,0.014904,0.085968\C,0,-0
 .263768,-0.626014,-0.02541\H,0,-4.821147,-0.134871,-0.282293\H,0,-3.80
 1254,1.293777,-0.119051\H,0,-2.88597,-1.639712,0.219912\H,0,-1.51472,1
 .135214,0.038383\H,0,-0.202231,-1.699753,0.026143\H,0,0.748447,-0.1191
 11,-0.158457\\Version=ES64L-G09RevD.01\State=1-A\HF=-155.6821818\MP2=-
 155.9090467\RMSD=5.421e-09\PG=C01 [X(C4H6)]\\@

 Normal termination of Gaussian 09 at Wed Aug 26 11:57:37 2020.
