 Gaussian 09, Revision D.01,
 Gaussian 09:  ES64L-G09RevD.01 24-Apr-2013

 --------------------
 #p B2PLYPD3/Def2QZVP
 --------------------

 ---------
 butadiene
 ---------
 Symbolic Z-matrix:
 Charge =  0 Multiplicity = 1

                         Standard orientation:
 ---------------------------------------------------------------------
 Center     Atomic      Atomic             Coordinates (Angstroms)
 Number     Number       Type             X           Y           Z
 ---------------------------------------------------------------------
      1          6           0       -1.825958    0.119219   -0.060074
      2          6           0       -0.582789   -0.449503    0.014895
      3          6           0        0.609045    0.426106    0.084620
      4          6           0        1.827970   -0.107744   -0.020659
      5          1           0       -2.848891   -0.448663   -0.004777
      6          1           0       -1.975581    1.177500   -0.194128
      7          1           0       -0.472007   -1.555404    0.331664
      8          1           0        0.397410    1.543859    0.206585
      9          1           0        2.005681   -1.139388   -0.306155
     10          1           0        2.723772    0.493634   -0.145878
 ---------------------------------------------------------------------

 SCF Done:  E(RB2PLYPD3) =  -155.678047264     A.U. after   11 cycles
 E2(B2PLYPD3) =    -0.2284325342D+00 E(B2PLYPD3) =    -0.15590647979843D+03

 The electronic state is 1-A.
 Alpha  occ. eigenvalues --  -10.64129 -10.63776 -10.62986 -10.61554  -0.92295
 Alpha  occ. eigenvalues --   -0.83995  -0.69280  -0.63225  -0.53960  -0.52803
 Alpha  occ. eigenvalues --   -0.46393  -0.44556  -0.40490  -0.37303  -0.27611
 Alpha virt. eigenvalues --    0.01457   0.06841   0.07096   0.07423   0.08659
 Alpha virt. eigenvalues --    0.11334   0.12587   0.14401   0.15268   0.16308
 Alpha virt. eigenvalues --    0.18694   0.19722   0.21943   0.22511   0.22811

 Mulliken charges:
               1
     1  C   -0.177048
     2  C   -0.040702
     3  C   -0.037319
     4  C   -0.160498
     5  H    0.072315
     6  H    0.066372
     7  H    0.074337
     8  H    0.062733
     9  H    0.065436
    10  H    0.074374
 Sum of Mulliken charges =   0.00000

 Dipole moment (field-independent basis, Debye):
    X=             -0.0434    Y=              0.1101    Z=             -0.0432  Tot=              0.1260
 Quadrupole moment (field-independent basis, Debye-Ang):
   XX=            -23.7121   YY=            -23.3395   ZZ=            -29.3747
   XY=             -0.5573   XZ=             -0.7984   YZ=             -0.1627

 1\1\GINC-NODE12\SP\RB2PLYPD3-FC\def2QZVP\C4H6\BOITTIER\26-Aug-2020\0\\
 #p B2PLYPD3/Def2QZVP\\butadiene\\0,1\C,0,-3.8293,0.234977,-0.032384\C,
 0,-2.709996,-0.548077,0.059916\C,0,-1.377646,0.096926,0.088821\C,0,-0.
 277943,-0.654454,-0.000278\H,0,-4.937963,-0.133734,0.050429\H,0,-3.784
 857,1.296744,-0.208434\H,0,-2.799157,-1.642411,0.42063\H,0,-1.380292,1
 .238418,0.166453\H,0,-0.294868,-1.711517,-0.244634\H,0,0.711019,-0.232
 316,-0.153737\\Version=ES64L-G09RevD.01\State=1-A\HF=-155.6780473\MP2=
 -155.9064798\RMSD=8.042e-09\PG=C01 [X(C4H6)]\\@

 Normal termination of Gaussian 09 at Wed Aug 26 12:36:21 2020.
