 Gaussian 09, Revision D.01,
 Gaussian 09:  ES64L-G09RevD.01 24-Apr-2013

 --------------------
 #p B2PLYPD3/Def2QZVP
 --------------------

 ---------
 butadiene
 ---------
 Symbolic Z-matrix:
 Charge =  0 Multiplicity = 1

                         Standard orientation:
 ---------------------------------------------------------------------
 Center     Atomic      Atomic             Coordinates (Angstroms)
 Number     Number       Type             X           Y           Z
 ---------------------------------------------------------------------
      1          6           0       -1.844107   -0.121811    0.019985
      2          6           0       -0.621022    0.425693   -0.031191
      3          6           0        0.603159   -0.394096   -0.013271
      4          6           0        1.851937    0.100625    0.009706
      5          1           0       -2.732015    0.501185    0.044356
      6          1           0       -1.973036   -1.204977   -0.007625
      7          1           0       -0.455704    1.480018    0.009445
      8          1           0        0.484104   -1.450932   -0.021524
      9          1           0        2.054543    1.158198    0.008997
     10          1           0        2.682303   -0.545960    0.054976
 ---------------------------------------------------------------------

 SCF Done:  E(RB2PLYPD3) =  -155.699802802     A.U. after   11 cycles
 E2(B2PLYPD3) =    -0.2256598978D+00 E(B2PLYPD3) =    -0.15592546269998D+03

 The electronic state is 1-A.
 Alpha  occ. eigenvalues --  -10.62659 -10.62427 -10.61838 -10.61146  -0.92651
 Alpha  occ. eigenvalues --   -0.84826  -0.70168  -0.64532  -0.54551  -0.53958
 Alpha  occ. eigenvalues --   -0.46881  -0.45913  -0.41277  -0.37775  -0.27643
 Alpha virt. eigenvalues --    0.01739   0.07016   0.07480   0.08193   0.09356
 Alpha virt. eigenvalues --    0.11696   0.12434   0.14712   0.15801   0.16196
 Alpha virt. eigenvalues --    0.18817   0.20398   0.21648   0.22945   0.24083

 Mulliken charges:
               1
     1  C   -0.172026
     2  C   -0.041461
     3  C   -0.029734
     4  C   -0.181453
     5  H    0.085679
     6  H    0.069027
     7  H    0.062371
     8  H    0.057016
     9  H    0.064536
    10  H    0.086043
 Sum of Mulliken charges =   0.00000

 Dipole moment (field-independent basis, Debye):
    X=             -0.0200    Y=              0.0012    Z=              0.0495  Tot=              0.0534
 Quadrupole moment (field-independent basis, Debye-Ang):
   XX=            -23.5096   YY=            -22.9938   ZZ=            -29.3013
   XY=              0.1884   XZ=              0.0393   YZ=              0.0573

 1\1\GINC-NODE32\SP\RB2PLYPD3-FC\def2QZVP\C4H6\BOITTIER\26-Aug-2020\0\\
 #p B2PLYPD3/Def2QZVP\\butadiene\\0,1\C,0,-3.842812,0.236674,-0.002513\
 C,0,-2.73795,-0.520372,0.064405\C,0,-1.386377,0.065157,0.026966\C,0,-0
 .246997,-0.646506,0.018428\H,0,-4.828348,-0.216896,-0.011981\H,0,-3.77
 4774,1.325712,-0.003037\H,0,-2.765049,-1.587927,0.051212\H,0,-1.313426
 ,1.126031,0.007784\H,0,-0.237863,-1.722901,0.046699\H,0,0.685945,-0.16
 1175,-0.042407\\Version=ES64L-G09RevD.01\State=1-A\HF=-155.6998028\MP2
 =-155.9254627\RMSD=3.683e-09\PG=C01 [X(C4H6)]\\@

 Normal termination of Gaussian 09 at Wed Aug 26 19:42:58 2020.
