 Gaussian 09, Revision D.01,
 Gaussian 09:  ES64L-G09RevD.01 24-Apr-2013

 --------------------
 #p B2PLYPD3/Def2QZVP
 --------------------

 ---------
 butadiene
 ---------
 Symbolic Z-matrix:
 Charge =  0 Multiplicity = 1

                         Standard orientation:
 ---------------------------------------------------------------------
 Center     Atomic      Atomic             Coordinates (Angstroms)
 Number     Number       Type             X           Y           Z
 ---------------------------------------------------------------------
      1          6           0        1.805018    0.088386   -0.023081
      2          6           0        0.560235   -0.348417    0.017493
      3          6           0       -0.597797    0.415488   -0.011496
      4          6           0       -1.799528   -0.129837    0.008156
      5          1           0        2.629699   -0.647499   -0.044001
      6          1           0        2.052476    1.183213   -0.095973
      7          1           0        0.538200   -1.420340    0.304314
      8          1           0       -0.392110    1.488213    0.150190
      9          1           0       -1.831014   -1.231850   -0.293860
     10          1           0       -2.804825    0.474546    0.032897
 ---------------------------------------------------------------------

 SCF Done:  E(RB2PLYPD3) =  -155.676400064     A.U. after   11 cycles
 E2(B2PLYPD3) =    -0.2273517814D+00 E(B2PLYPD3) =    -0.15590375184489D+03

 The electronic state is 1-A.
 Alpha  occ. eigenvalues --  -10.63028 -10.62196 -10.61861 -10.61667  -0.94448
 Alpha  occ. eigenvalues --   -0.84970  -0.69656  -0.63119  -0.53932  -0.53653
 Alpha  occ. eigenvalues --   -0.46361  -0.44152  -0.41168  -0.38165  -0.27729
 Alpha virt. eigenvalues --    0.01466   0.07023   0.07110   0.07520   0.09483
 Alpha virt. eigenvalues --    0.11740   0.12227   0.14453   0.15207   0.15944
 Alpha virt. eigenvalues --    0.18447   0.19033   0.21510   0.22326   0.24545

 Mulliken charges:
               1
     1  C   -0.184597
     2  C   -0.011063
     3  C   -0.032488
     4  C   -0.167333
     5  H    0.082798
     6  H    0.057078
     7  H    0.054717
     8  H    0.055422
     9  H    0.066417
    10  H    0.079049
 Sum of Mulliken charges =   0.00000

 Dipole moment (field-independent basis, Debye):
    X=              0.0240    Y=              0.0415    Z=              0.0439  Tot=              0.0650
 Quadrupole moment (field-independent basis, Debye-Ang):
   XX=            -23.9481   YY=            -23.5185   ZZ=            -29.0752
   XY=             -0.2251   XZ=              0.1976   YZ=              0.1724

 1\1\GINC-NODE36\SP\RB2PLYPD3-FC\def2QZVP\C4H6\BOITTIER\26-Aug-2020\0\\
 #p B2PLYPD3/Def2QZVP\\butadiene\\0,1\C,0,-3.815008,0.199934,0.034889\C
 ,0,-2.670889,-0.457795,0.017196\C,0,-1.392889,0.082706,0.019137\C,0,-0
 .310809,-0.672919,0.026658\H,0,-4.759952,-0.371758,0.082952\H,0,-3.858
 431,1.323587,0.061594\H,0,-2.845727,-1.526677,-0.225072\H,0,-1.400142,
 1.16735,-0.187462\H,0,-0.479655,-1.748783,0.373999\H,0,0.787733,-0.263
 499,-0.019097\\Version=ES64L-G09RevD.01\State=1-A\HF=-155.6764001\MP2=
 -155.9037518\RMSD=8.143e-09\PG=C01 [X(C4H6)]\\@

 Normal termination of Gaussian 09 at Wed Aug 26 15:05:55 2020.
