 Gaussian 09, Revision D.01,
 Gaussian 09:  ES64L-G09RevD.01 24-Apr-2013

 --------------------
 #p B2PLYPD3/Def2QZVP
 --------------------

 ---------
 butadiene
 ---------
 Symbolic Z-matrix:
 Charge =  0 Multiplicity = 1

                         Standard orientation:
 ---------------------------------------------------------------------
 Center     Atomic      Atomic             Coordinates (Angstroms)
 Number     Number       Type             X           Y           Z
 ---------------------------------------------------------------------
      1          6           0        1.850281    0.111053    0.022995
      2          6           0        0.611581   -0.397867   -0.012353
      3          6           0       -0.606754    0.405418   -0.009030
      4          6           0       -1.849087   -0.110365    0.004884
      5          1           0        2.692120   -0.563651    0.010173
      6          1           0        2.014598    1.176473   -0.051898
      7          1           0        0.453127   -1.451924    0.003368
      8          1           0       -0.449131    1.479809   -0.032462
      9          1           0       -1.971641   -1.203238   -0.048809
     10          1           0       -2.775196    0.513095    0.080646
 ---------------------------------------------------------------------

 SCF Done:  E(RB2PLYPD3) =  -155.698356897     A.U. after   11 cycles
 E2(B2PLYPD3) =    -0.2262763308D+00 E(B2PLYPD3) =    -0.15592463322814D+03

 The electronic state is 1-A.
 Alpha  occ. eigenvalues --  -10.62747 -10.62436 -10.62343 -10.61587  -0.92825
 Alpha  occ. eigenvalues --   -0.84649  -0.69945  -0.64206  -0.54256  -0.53655
 Alpha  occ. eigenvalues --   -0.46672  -0.45722  -0.41105  -0.37920  -0.27616
 Alpha virt. eigenvalues --    0.01546   0.06951   0.07394   0.08060   0.09476
 Alpha virt. eigenvalues --    0.11689   0.12364   0.14624   0.15753   0.16090
 Alpha virt. eigenvalues --    0.18718   0.20291   0.21503   0.23009   0.23823

 Mulliken charges:
               1
     1  C   -0.178122
     2  C   -0.030977
     3  C   -0.030457
     4  C   -0.175332
     5  H    0.086405
     6  H    0.069492
     7  H    0.055576
     8  H    0.053513
     9  H    0.062735
    10  H    0.087168
 Sum of Mulliken charges =   0.00000

 Dipole moment (field-independent basis, Debye):
    X=              0.0033    Y=             -0.0105    Z=             -0.0559  Tot=              0.0569
 Quadrupole moment (field-independent basis, Debye-Ang):
   XX=            -23.5722   YY=            -23.1225   ZZ=            -29.3711
   XY=              0.1088   XZ=             -0.2236   YZ=             -0.0044

 1\1\GINC-NODE24\SP\RB2PLYPD3-FC\def2QZVP\C4H6\BOITTIER\26-Aug-2020\0\\
 #p B2PLYPD3/Def2QZVP\\butadiene\\0,1\C,0,-3.851978,0.224813,-0.000548\
 C,0,-2.724526,-0.497021,0.048784\C,0,-1.381871,0.074164,0.023415\C,0,-
 0.252319,-0.656403,0.023692\H,0,-4.801135,-0.287244,0.03079\H,0,-3.822
 108,1.304052,0.045049\H,0,-2.757835,-1.562435,0.062024\H,0,-1.344059,1
 .159633,0.017325\H,0,-0.327567,-1.751669,0.107386\H,0,0.770236,-0.2115
 65,-0.069153\\Version=ES64L-G09RevD.01\State=1-A\HF=-155.6983569\MP2=-
 155.9246332\RMSD=4.466e-09\PG=C01 [X(C4H6)]\\@

 Normal termination of Gaussian 09 at Wed Aug 26 21:34:24 2020.
