 Gaussian 09, Revision D.01,
 Gaussian 09:  ES64L-G09RevD.01 24-Apr-2013

 --------------------
 #p B2PLYPD3/Def2QZVP
 --------------------

 ---------
 butadiene
 ---------
 Symbolic Z-matrix:
 Charge =  0 Multiplicity = 1

                         Standard orientation:
 ---------------------------------------------------------------------
 Center     Atomic      Atomic             Coordinates (Angstroms)
 Number     Number       Type             X           Y           Z
 ---------------------------------------------------------------------
      1          6           0       -1.848453    0.147324    0.036748
      2          6           0       -0.638923   -0.430891   -0.109222
      3          6           0        0.598032    0.333213   -0.046010
      4          6           0        1.867614   -0.074938    0.066751
      5          1           0       -2.799802   -0.495049    0.221870
      6          1           0       -1.987753    1.186116   -0.005331
      7          1           0       -0.484934   -1.446453    0.099793
      8          1           0        0.501435    1.400785   -0.024153
      9          1           0        2.202257   -1.059466   -0.056095
     10          1           0        2.699178    0.565815    0.074313
 ---------------------------------------------------------------------

 SCF Done:  E(RB2PLYPD3) =  -155.683894211     A.U. after   11 cycles
 E2(B2PLYPD3) =    -0.2262281808D+00 E(B2PLYPD3) =    -0.15591012239170D+03

 The electronic state is 1-A.
 Alpha  occ. eigenvalues --  -10.62864 -10.62667 -10.62445 -10.60638  -0.92931
 Alpha  occ. eigenvalues --   -0.84972  -0.70976  -0.64917  -0.54658  -0.54080
 Alpha  occ. eigenvalues --   -0.47579  -0.45179  -0.40575  -0.38003  -0.27689
 Alpha virt. eigenvalues --    0.01081   0.06913   0.07694   0.08088   0.09272
 Alpha virt. eigenvalues --    0.11597   0.12576   0.14884   0.15278   0.16470
 Alpha virt. eigenvalues --    0.19089   0.19494   0.21927   0.23263   0.24194

 Mulliken charges:
               1
     1  C   -0.164627
     2  C   -0.047033
     3  C   -0.025376
     4  C   -0.172665
     5  H    0.076165
     6  H    0.079214
     7  H    0.074548
     8  H    0.048337
     9  H    0.055584
    10  H    0.075852
 Sum of Mulliken charges =   0.00000

 Dipole moment (field-independent basis, Debye):
    X=             -0.1096    Y=              0.0520    Z=              0.1488  Tot=              0.1920
 Quadrupole moment (field-independent basis, Debye-Ang):
   XX=            -22.9957   YY=            -23.4936   ZZ=            -29.1423
   XY=             -0.3859   XZ=             -0.6872   YZ=             -0.2003

 1\1\GINC-NODE35\SP\RB2PLYPD3-FC\def2QZVP\C4H6\BOITTIER\26-Aug-2020\0\\
 #p B2PLYPD3/Def2QZVP\\butadiene\\0,1\C,0,-3.840914,0.262199,0.068377\C
 ,0,-2.754875,-0.526746,-0.060803\C,0,-1.401249,0.00672,-0.028881\C,0,-
 0.223421,-0.61674,0.094246\H,0,-4.88949,-0.193817,0.279365\H,0,-3.7937
 37,1.307118,-0.010259\H,0,-2.781876,-1.545674,0.183787\H,0,-1.306327,1
 .074547,-0.044788\H,0,-0.070301,-1.648753,0.005496\H,0,0.708831,-0.134
 349,0.076264\\Version=ES64L-G09RevD.01\State=1-A\HF=-155.6838942\MP2=-
 155.9101224\RMSD=8.496e-09\PG=C01 [X(C4H6)]\\@

 Normal termination of Gaussian 09 at Wed Aug 26 14:54:53 2020.
