 Gaussian 09, Revision D.01,
 Gaussian 09:  ES64L-G09RevD.01 24-Apr-2013

 --------------------
 #p B2PLYPD3/Def2QZVP
 --------------------

 ---------
 butadiene
 ---------
 Symbolic Z-matrix:
 Charge =  0 Multiplicity = 1

                         Standard orientation:
 ---------------------------------------------------------------------
 Center     Atomic      Atomic             Coordinates (Angstroms)
 Number     Number       Type             X           Y           Z
 ---------------------------------------------------------------------
      1          6           0       -1.847792   -0.106713   -0.018432
      2          6           0       -0.609965    0.390464    0.011764
      3          6           0        0.627042   -0.414938    0.049775
      4          6           0        1.845567    0.110408   -0.048393
      5          1           0       -2.717695    0.524248   -0.069911
      6          1           0       -2.058884   -1.161664   -0.012199
      7          1           0       -0.568778    1.467193    0.076269
      8          1           0        0.487927   -1.477540    0.024520
      9          1           0        1.987540    1.229244    0.041151
     10          1           0        2.780775   -0.456813   -0.028112
 ---------------------------------------------------------------------

 SCF Done:  E(RB2PLYPD3) =  -155.696492440     A.U. after   11 cycles
 E2(B2PLYPD3) =    -0.2258209102D+00 E(B2PLYPD3) =    -0.15592231335053D+03

 The electronic state is 1-A.
 Alpha  occ. eigenvalues --  -10.62835 -10.62630 -10.62213 -10.61288  -0.92684
 Alpha  occ. eigenvalues --   -0.85025  -0.69780  -0.64179  -0.54664  -0.53726
 Alpha  occ. eigenvalues --   -0.47036  -0.44812  -0.40912  -0.37896  -0.27965
 Alpha virt. eigenvalues --    0.01824   0.06985   0.07452   0.08024   0.09407
 Alpha virt. eigenvalues --    0.11538   0.12504   0.14436   0.15660   0.16622
 Alpha virt. eigenvalues --    0.18952   0.19877   0.21781   0.22667   0.23919

 Mulliken charges:
               1
     1  C   -0.174990
     2  C   -0.025583
     3  C   -0.048313
     4  C   -0.156007
     5  H    0.082167
     6  H    0.061340
     7  H    0.057247
     8  H    0.064061
     9  H    0.057772
    10  H    0.082307
 Sum of Mulliken charges =   0.00000

 Dipole moment (field-independent basis, Debye):
    X=             -0.0038    Y=             -0.0300    Z=              0.0755  Tot=              0.0814
 Quadrupole moment (field-independent basis, Debye-Ang):
   XX=            -23.1768   YY=            -23.2482   ZZ=            -29.2987
   XY=              0.0367   XZ=              0.1752   YZ=              0.1252

 1\1\GINC-NODE16\SP\RB2PLYPD3-FC\def2QZVP\C4H6\BOITTIER\26-Aug-2020\0\\
 #p B2PLYPD3/Def2QZVP\\butadiene\\0,1\C,0,-3.85467,0.212805,0.040307\C,
 0,-2.723431,-0.494448,0.020252\C,0,-1.364416,0.08037,-0.034219\C,0,-0.
 256661,-0.64864,0.074638\H,0,-4.821617,-0.254488,0.104675\H,0,-3.87735
 7,1.288089,0.012534\H,0,-2.872088,-1.562763,-0.022251\H,0,-1.314787,1.
 151182,-0.030668\H,0,-0.313577,-1.776595,0.00796\H,0,0.763503,-0.25492
 ,0.042763\\Version=ES64L-G09RevD.01\State=1-A\HF=-155.6964924\MP2=-155
 .9223134\RMSD=3.691e-09\PG=C01 [X(C4H6)]\\@

 Normal termination of Gaussian 09 at Wed Aug 26 09:26:08 2020.
