 Gaussian 09, Revision D.01,
 Gaussian 09:  ES64L-G09RevD.01 24-Apr-2013

 --------------------
 #p B2PLYPD3/Def2QZVP
 --------------------

 ---------
 butadiene
 ---------
 Symbolic Z-matrix:
 Charge =  0 Multiplicity = 1

                         Standard orientation:
 ---------------------------------------------------------------------
 Center     Atomic      Atomic             Coordinates (Angstroms)
 Number     Number       Type             X           Y           Z
 ---------------------------------------------------------------------
      1          6           0        1.888700   -0.092367   -0.086839
      2          6           0        0.628240    0.363471    0.026625
      3          6           0       -0.619407   -0.436217    0.076475
      4          6           0       -1.877727    0.117355   -0.050687
      5          1           0        2.579338    0.666505    0.133186
      6          1           0        2.135270   -1.172518   -0.087166
      7          1           0        0.409562    1.416218    0.234381
      8          1           0       -0.482562   -1.454556    0.126903
      9          1           0       -1.879894    1.272778   -0.173426
     10          1           0       -2.880551   -0.441885   -0.027319
 ---------------------------------------------------------------------

 SCF Done:  E(RB2PLYPD3) =  -155.677018283     A.U. after   12 cycles
 E2(B2PLYPD3) =    -0.2282074451D+00 E(B2PLYPD3) =    -0.15590522572798D+03

 The electronic state is 1-A.
 Alpha  occ. eigenvalues --  -10.64076 -10.63107 -10.62922 -10.61680  -0.92204
 Alpha  occ. eigenvalues --   -0.84287  -0.69737  -0.64069  -0.53719  -0.53387
 Alpha  occ. eigenvalues --   -0.46792  -0.45242  -0.40743  -0.37044  -0.27663
 Alpha virt. eigenvalues --    0.00909   0.06827   0.07365   0.07901   0.09227
 Alpha virt. eigenvalues --    0.11524   0.12203   0.14324   0.15494   0.16064
 Alpha virt. eigenvalues --    0.18817   0.20153   0.20886   0.21910   0.23884

 Mulliken charges:
               1
     1  C   -0.181056
     2  C   -0.020499
     3  C   -0.054127
     4  C   -0.163282
     5  H    0.085823
     6  H    0.071949
     7  H    0.051395
     8  H    0.063465
     9  H    0.053308
    10  H    0.093025
 Sum of Mulliken charges =   0.00000

 Dipole moment (field-independent basis, Debye):
    X=             -0.1075    Y=             -0.1007    Z=              0.2660  Tot=              0.3041
 Quadrupole moment (field-independent basis, Debye-Ang):
   XX=            -23.7681   YY=            -23.2514   ZZ=            -29.5308
   XY=             -0.1172   XZ=              0.6809   YZ=              0.1695

 1\1\GINC-NODE26\SP\RB2PLYPD3-FC\def2QZVP\C4H6\BOITTIER\26-Aug-2020\0\\
 #p B2PLYPD3/Def2QZVP\\butadiene\\0,1\C,0,-3.893479,0.20529,-0.054736\C
 ,0,-2.733523,-0.464223,0.070469\C,0,-1.362943,0.101218,0.090396\C,0,-0
 .224567,-0.671783,-0.021637\H,0,-4.706408,-0.410692,0.192226\H,0,-3.94
 3578,1.311521,-0.090311\H,0,-2.704212,-1.531842,0.312522\H,0,-1.315661
 ,1.128721,0.10731\H,0,-0.429416,-1.8124,-0.105908\H,0,0.862037,-0.2999
 78,-0.019535\\Version=ES64L-G09RevD.01\State=1-A\HF=-155.6770183\MP2=-
 155.9052257\RMSD=6.925e-09\PG=C01 [X(C4H6)]\\@

 Normal termination of Gaussian 09 at Wed Aug 26 15:33:49 2020.
