 Gaussian 09, Revision D.01,
 Gaussian 09:  ES64L-G09RevD.01 24-Apr-2013

 --------------------
 #p B2PLYPD3/Def2QZVP
 --------------------

 ---------
 butadiene
 ---------
 Symbolic Z-matrix:
 Charge =  0 Multiplicity = 1

                         Standard orientation:
 ---------------------------------------------------------------------
 Center     Atomic      Atomic             Coordinates (Angstroms)
 Number     Number       Type             X           Y           Z
 ---------------------------------------------------------------------
      1          6           0        1.832567    0.103128    0.021380
      2          6           0        0.598578   -0.407173   -0.013256
      3          6           0       -0.596713    0.399695   -0.031735
      4          6           0       -1.832115   -0.104514    0.008061
      5          1           0        2.728714   -0.498677    0.054317
      6          1           0        1.986427    1.195438   -0.008630
      7          1           0        0.456289   -1.496551   -0.052154
      8          1           0       -0.439674    1.472762   -0.027774
      9          1           0       -2.047448   -1.145231    0.018683
     10          1           0       -2.698209    0.525444    0.108858
 ---------------------------------------------------------------------

 SCF Done:  E(RB2PLYPD3) =  -155.700038968     A.U. after   11 cycles
 E2(B2PLYPD3) =    -0.2257728524D+00 E(B2PLYPD3) =    -0.15592581182092D+03

 The electronic state is 1-A.
 Alpha  occ. eigenvalues --  -10.62599 -10.62479 -10.61729 -10.61246  -0.93154
 Alpha  occ. eigenvalues --   -0.84823  -0.70401  -0.64058  -0.54919  -0.53728
 Alpha  occ. eigenvalues --   -0.46904  -0.45359  -0.41160  -0.38224  -0.27585
 Alpha virt. eigenvalues --    0.01659   0.07025   0.07358   0.08089   0.09596
 Alpha virt. eigenvalues --    0.11654   0.12527   0.14751   0.15882   0.16176
 Alpha virt. eigenvalues --    0.18779   0.20549   0.21811   0.22889   0.23579

 Mulliken charges:
               1
     1  C   -0.174243
     2  C   -0.028425
     3  C   -0.027553
     4  C   -0.174497
     5  H    0.087130
     6  H    0.059795
     7  H    0.053396
     8  H    0.056109
     9  H    0.066783
    10  H    0.081505
 Sum of Mulliken charges =   0.00000

 Dipole moment (field-independent basis, Debye):
    X=             -0.0081    Y=             -0.0219    Z=              0.0536  Tot=              0.0584
 Quadrupole moment (field-independent basis, Debye-Ang):
   XX=            -23.3611   YY=            -23.1791   ZZ=            -29.2419
   XY=              0.2863   XZ=             -0.2495   YZ=              0.0400

 1\1\GINC-NODE14\SP\RB2PLYPD3-FC\def2QZVP\C4H6\BOITTIER\26-Aug-2020\0\\
 #p B2PLYPD3/Def2QZVP\\butadiene\\0,1\C,0,-3.833978,0.224149,-0.001525\
 C,0,-2.714918,-0.503469,0.049594\C,0,-1.391364,0.069455,0.041831\C,0,-
 0.270241,-0.654812,0.018359\H,0,-4.825827,-0.202924,-0.014879\H,0,-3.7
 83814,1.326496,-0.006962\H,0,-2.7755,-1.598606,0.123808\H,0,-1.348074,
 1.152401,0.003065\H,0,-0.250365,-1.717188,0.041498\H,0,0.696449,-0.198
 808,-0.102862\\Version=ES64L-G09RevD.01\State=1-A\HF=-155.700039\MP2=-
 155.9258118\RMSD=4.360e-09\PG=C01 [X(C4H6)]\\@

 Normal termination of Gaussian 09 at Wed Aug 26 14:58:57 2020.
