 Gaussian 09, Revision D.01,
 Gaussian 09:  ES64L-G09RevD.01 24-Apr-2013

 --------------------
 #p B2PLYPD3/Def2QZVP
 --------------------

 ---------
 butadiene
 ---------
 Symbolic Z-matrix:
 Charge =  0 Multiplicity = 1

                         Standard orientation:
 ---------------------------------------------------------------------
 Center     Atomic      Atomic             Coordinates (Angstroms)
 Number     Number       Type             X           Y           Z
 ---------------------------------------------------------------------
      1          6           0       -1.825582   -0.138029    0.036996
      2          6           0       -0.602222    0.441802   -0.048095
      3          6           0        0.609665   -0.385854   -0.022506
      4          6           0        1.840891    0.101050    0.010470
      5          1           0       -2.754790    0.480102    0.034289
      6          1           0       -1.977758   -1.233859   -0.027785
      7          1           0       -0.528152    1.503494    0.049247
      8          1           0        0.467382   -1.479601   -0.017769
      9          1           0        1.934902    1.180593    0.003163
     10          1           0        2.721903   -0.564542    0.097663
 ---------------------------------------------------------------------

 SCF Done:  E(RB2PLYPD3) =  -155.695115292     A.U. after   11 cycles
 E2(B2PLYPD3) =    -0.2266284350D+00 E(B2PLYPD3) =    -0.15592174372701D+03

 The electronic state is 1-A.
 Alpha  occ. eigenvalues --  -10.62963 -10.62558 -10.62500 -10.61472  -0.92776
 Alpha  occ. eigenvalues --   -0.84621  -0.69215  -0.64067  -0.54147  -0.53562
 Alpha  occ. eigenvalues --   -0.46390  -0.44913  -0.41263  -0.37980  -0.27653
 Alpha virt. eigenvalues --    0.01778   0.06980   0.07327   0.07913   0.09204
 Alpha virt. eigenvalues --    0.11702   0.12348   0.14455   0.15607   0.16239
 Alpha virt. eigenvalues --    0.18613   0.19793   0.21667   0.23183   0.23984

 Mulliken charges:
               1
     1  C   -0.168823
     2  C   -0.048302
     3  C   -0.018276
     4  C   -0.179045
     5  H    0.076789
     6  H    0.067283
     7  H    0.065553
     8  H    0.051459
     9  H    0.064206
    10  H    0.089156
 Sum of Mulliken charges =   0.00000

 Dipole moment (field-independent basis, Debye):
    X=             -0.0611    Y=             -0.0038    Z=              0.0767  Tot=              0.0981
 Quadrupole moment (field-independent basis, Debye-Ang):
   XX=            -23.8213   YY=            -22.9723   ZZ=            -29.4244
   XY=             -0.0481   XZ=              0.2073   YZ=              0.0879

 1\1\GINC-NODE08\SP\RB2PLYPD3-FC\def2QZVP\C4H6\BOITTIER\26-Aug-2020\0\\
 #p B2PLYPD3/Def2QZVP\\butadiene\\0,1\C,0,-3.827211,0.242739,-0.018132\
 C,0,-2.724402,-0.540901,0.080731\C,0,-1.38607,0.060038,0.035128\C,0,-0
 .259702,-0.636321,0.013724\H,0,-4.850549,-0.202219,-0.000471\H,0,-3.78
 42,1.349477,0.020316\H,0,-2.838446,-1.601085,0.008919\H,0,-1.333987,1.
 161344,0.004128\H,0,-0.356798,-1.715104,0.046958\H,0,0.724164,-0.13818
 ,-0.089534\\Version=ES64L-G09RevD.01\State=1-A\HF=-155.6951153\MP2=-15
 5.9217437\RMSD=6.809e-09\PG=C01 [X(C4H6)]\\@

 Normal termination of Gaussian 09 at Wed Aug 26 09:23:04 2020.
