 Gaussian 09, Revision D.01,
 Gaussian 09:  ES64L-G09RevD.01 24-Apr-2013

 --------------------
 #p B2PLYPD3/Def2QZVP
 --------------------

 ---------
 butadiene
 ---------
 Symbolic Z-matrix:
 Charge =  0 Multiplicity = 1

                         Standard orientation:
 ---------------------------------------------------------------------
 Center     Atomic      Atomic             Coordinates (Angstroms)
 Number     Number       Type             X           Y           Z
 ---------------------------------------------------------------------
      1          6           0       -1.825629    0.092706    0.007898
      2          6           0       -0.566841   -0.396042   -0.035254
      3          6           0        0.609566    0.465524   -0.032409
      4          6           0        1.788529   -0.125796    0.049444
      5          1           0       -2.540301   -0.619722   -0.019250
      6          1           0       -2.215771    1.089326    0.385213
      7          1           0       -0.359026   -1.437345   -0.175035
      8          1           0        0.450641    1.553845   -0.332079
      9          1           0        1.855070   -1.272993    0.127824
     10          1           0        2.775639    0.468536    0.075253
 ---------------------------------------------------------------------

 SCF Done:  E(RB2PLYPD3) =  -155.672943569     A.U. after   12 cycles
 E2(B2PLYPD3) =    -0.2275008731D+00 E(B2PLYPD3) =    -0.15590044444215D+03

 The electronic state is 1-A.
 Alpha  occ. eigenvalues --  -10.62928 -10.62785 -10.62702 -10.61057  -0.93143
 Alpha  occ. eigenvalues --   -0.84552  -0.69510  -0.63337  -0.54185  -0.52906
 Alpha  occ. eigenvalues --   -0.46622  -0.45003  -0.40533  -0.37588  -0.27620
 Alpha virt. eigenvalues --    0.01730   0.06901   0.07222   0.07569   0.08852
 Alpha virt. eigenvalues --    0.11413   0.12422   0.14763   0.15141   0.16234
 Alpha virt. eigenvalues --    0.18254   0.20006   0.21689   0.22159   0.24118

 Mulliken charges:
               1
     1  C   -0.181654
     2  C   -0.041532
     3  C   -0.034735
     4  C   -0.166311
     5  H    0.073410
     6  H    0.074589
     7  H    0.063844
     8  H    0.075652
     9  H    0.058584
    10  H    0.078153
 Sum of Mulliken charges =   0.00000

 Dipole moment (field-independent basis, Debye):
    X=              0.0858    Y=             -0.0739    Z=              0.0266  Tot=              0.1163
 Quadrupole moment (field-independent basis, Debye-Ang):
   XX=            -24.1265   YY=            -23.1312   ZZ=            -29.1432
   XY=             -0.4055   XZ=             -0.5179   YZ=              0.1315

 1\1\GINC-NODE07\SP\RB2PLYPD3-FC\def2QZVP\C4H6\BOITTIER\26-Aug-2020\0\\
 #p B2PLYPD3/Def2QZVP\\butadiene\\0,1\C,0,-3.828183,0.220896,0.035588\C
 ,0,-2.686037,-0.500113,0.005062\C,0,-1.367091,0.120887,-0.026195\C,0,-
 0.321583,-0.681343,0.072056\H,0,-4.665709,-0.342661,0.03575\H,0,-4.017
 527,1.285696,0.37936\H,0,-2.681791,-1.566023,-0.099128\H,0,-1.318815,1
 .208884,-0.362995\H,0,-0.473991,-1.816894,0.190074\H,0,0.760871,-0.285
 649,0.073711\\Version=ES64L-G09RevD.01\State=1-A\HF=-155.6729436\MP2=-
 155.9004444\RMSD=4.469e-09\PG=C01 [X(C4H6)]\\@

 Normal termination of Gaussian 09 at Wed Aug 26 15:12:37 2020.
