 Gaussian 09, Revision D.01,
 Gaussian 09:  ES64L-G09RevD.01 24-Apr-2013

 --------------------
 #p B2PLYPD3/Def2QZVP
 --------------------

 ---------
 butadiene
 ---------
 Symbolic Z-matrix:
 Charge =  0 Multiplicity = 1

                         Standard orientation:
 ---------------------------------------------------------------------
 Center     Atomic      Atomic             Coordinates (Angstroms)
 Number     Number       Type             X           Y           Z
 ---------------------------------------------------------------------
      1          6           0        1.841118    0.097723   -0.000159
      2          6           0        0.604613   -0.396273   -0.025147
      3          6           0       -0.604760    0.416626   -0.016524
      4          6           0       -1.829250   -0.115850    0.010079
      5          1           0        2.724251   -0.519319    0.101914
      6          1           0        1.993031    1.174161   -0.000808
      7          1           0        0.444425   -1.457567    0.002679
      8          1           0       -0.515423    1.525140    0.039408
      9          1           0       -1.982072   -1.203012    0.021444
     10          1           0       -2.734540    0.467245    0.025872
 ---------------------------------------------------------------------

 SCF Done:  E(RB2PLYPD3) =  -155.699855868     A.U. after   11 cycles
 E2(B2PLYPD3) =    -0.2258269819D+00 E(B2PLYPD3) =    -0.15592568284966D+03

 The electronic state is 1-A.
 Alpha  occ. eigenvalues --  -10.62911 -10.62454 -10.61641 -10.61492  -0.92956
 Alpha  occ. eigenvalues --   -0.84886  -0.69988  -0.63945  -0.54764  -0.53706
 Alpha  occ. eigenvalues --   -0.46822  -0.45141  -0.41108  -0.38138  -0.27731
 Alpha virt. eigenvalues --    0.01805   0.07041   0.07332   0.08041   0.09509
 Alpha virt. eigenvalues --    0.11637   0.12528   0.14540   0.15851   0.16280
 Alpha virt. eigenvalues --    0.18807   0.20320   0.21773   0.22967   0.23629

 Mulliken charges:
               1
     1  C   -0.172324
     2  C   -0.031033
     3  C   -0.029455
     4  C   -0.172147
     5  H    0.086551
     6  H    0.063469
     7  H    0.057651
     8  H    0.052525
     9  H    0.059447
    10  H    0.085317
 Sum of Mulliken charges =   0.00000

 Dipole moment (field-independent basis, Debye):
    X=             -0.0406    Y=             -0.0115    Z=              0.1462  Tot=              0.1522
 Quadrupole moment (field-independent basis, Debye-Ang):
   XX=            -23.3621   YY=            -23.1764   ZZ=            -29.2866
   XY=              0.1070   XZ=              0.1803   YZ=             -0.0339

 1\1\GINC-NODE01\SP\RB2PLYPD3-FC\def2QZVP\C4H6\BOITTIER\26-Aug-2020\0\\
 #p B2PLYPD3/Def2QZVP\\butadiene\\0,1\C,0,-3.84441,0.211856,0.012708\C,
 0,-2.71687,-0.495563,0.055299\C,0,-1.381033,0.086025,0.027809\C,0,-0.2
 72334,-0.658513,0.019863\H,0,-4.824317,-0.238912,-0.074893\H,0,-3.8002
 4,1.297654,-0.017097\H,0,-2.750229,-1.568718,0.057541\H,0,-1.269649,1.
 190528,-0.059253\H,0,-0.317559,-1.755319,0.039258\H,0,0.723034,-0.2484
 04,-0.009341\\Version=ES64L-G09RevD.01\State=1-A\HF=-155.6998559\MP2=-
 155.9256828\RMSD=2.503e-09\PG=C01 [X(C4H6)]\\@

 Normal termination of Gaussian 09 at Wed Aug 26 15:22:04 2020.
