 Gaussian 09, Revision D.01,
 Gaussian 09:  ES64L-G09RevD.01 24-Apr-2013

 --------------------
 #p B2PLYPD3/Def2QZVP
 --------------------

 ---------
 butadiene
 ---------
 Symbolic Z-matrix:
 Charge =  0 Multiplicity = 1

                         Standard orientation:
 ---------------------------------------------------------------------
 Center     Atomic      Atomic             Coordinates (Angstroms)
 Number     Number       Type             X           Y           Z
 ---------------------------------------------------------------------
      1          6           0       -1.832500   -0.105170    0.028889
      2          6           0       -0.580734    0.390853   -0.043498
      3          6           0        0.600272   -0.399580   -0.038614
      4          6           0        1.831301    0.108025    0.054748
      5          1           0       -2.676273    0.543295    0.131843
      6          1           0       -2.048241   -1.144565    0.009302
      7          1           0       -0.501426    1.476804   -0.106980
      8          1           0        0.381768   -1.473263   -0.061148
      9          1           0        1.990077    1.149291    0.004985
     10          1           0        2.744058   -0.516327    0.012850
 ---------------------------------------------------------------------

 SCF Done:  E(RB2PLYPD3) =  -155.696587842     A.U. after   11 cycles
 E2(B2PLYPD3) =    -0.2260793798D+00 E(B2PLYPD3) =    -0.15592266722187D+03

 The electronic state is 1-A.
 Alpha  occ. eigenvalues --  -10.62538 -10.62397 -10.61574 -10.61300  -0.93436
 Alpha  occ. eigenvalues --   -0.84764  -0.70829  -0.64223  -0.54715  -0.54110
 Alpha  occ. eigenvalues --   -0.46721  -0.45660  -0.41421  -0.38255  -0.27352
 Alpha virt. eigenvalues --    0.01304   0.07010   0.07445   0.08032   0.09714
 Alpha virt. eigenvalues --    0.11706   0.12540   0.14901   0.15761   0.16295
 Alpha virt. eigenvalues --    0.18786   0.20144   0.21877   0.22718   0.23972

 Mulliken charges:
               1
     1  C   -0.184496
     2  C   -0.018486
     3  C   -0.031802
     4  C   -0.169104
     5  H    0.083853
     6  H    0.064619
     7  H    0.051494
     8  H    0.054082
     9  H    0.068898
    10  H    0.080942
 Sum of Mulliken charges =   0.00000

 Dipole moment (field-independent basis, Debye):
    X=             -0.0299    Y=              0.0186    Z=             -0.0696  Tot=              0.0780
 Quadrupole moment (field-independent basis, Debye-Ang):
   XX=            -23.4117   YY=            -23.2132   ZZ=            -29.2085
   XY=              0.3142   XZ=             -0.3536   YZ=              0.0231

 1\1\GINC-NODE38\SP\RB2PLYPD3-FC\def2QZVP\C4H6\BOITTIER\26-Aug-2020\0\\
 #p B2PLYPD3/Def2QZVP\\butadiene\\0,1\C,0,-3.835893,0.225802,-0.015063\
 C,0,-2.697347,-0.490643,0.077766\C,0,-1.390565,0.067367,0.054816\C,0,-
 0.274704,-0.661602,-0.017781\H,0,-4.785115,-0.258324,-0.102574\H,0,-3.
 85572,1.287275,-0.027353\H,0,-2.820127,-1.570136,0.173844\H,0,-1.40676
 5,1.163121,0.044441\H,0,-0.311137,-1.712301,0.063622\H,0,0.737794,-0.2
 15747,0.009734\\Version=ES64L-G09RevD.01\State=1-A\HF=-155.6965878\MP2
 =-155.9226672\RMSD=4.368e-09\PG=C01 [X(C4H6)]\\@

 Normal termination of Gaussian 09 at Wed Aug 26 08:47:35 2020.
