 Gaussian 09, Revision D.01,
 Gaussian 09:  ES64L-G09RevD.01 24-Apr-2013

 --------------------
 #p B2PLYPD3/Def2QZVP
 --------------------

 ---------
 butadiene
 ---------
 Symbolic Z-matrix:
 Charge =  0 Multiplicity = 1

                         Standard orientation:
 ---------------------------------------------------------------------
 Center     Atomic      Atomic             Coordinates (Angstroms)
 Number     Number       Type             X           Y           Z
 ---------------------------------------------------------------------
      1          6           0        1.860956   -0.114111   -0.031097
      2          6           0        0.609721    0.380226    0.022222
      3          6           0       -0.611699   -0.400835    0.050791
      4          6           0       -1.843666    0.106688   -0.024162
      5          1           0        2.701731    0.570251   -0.102575
      6          1           0        2.036885   -1.137007   -0.006244
      7          1           0        0.477005    1.469111    0.131565
      8          1           0       -0.525780   -1.517039    0.040387
      9          1           0       -1.943785    1.219967   -0.053798
     10          1           0       -2.837927   -0.437088   -0.115862
 ---------------------------------------------------------------------

 SCF Done:  E(RB2PLYPD3) =  -155.692484531     A.U. after   11 cycles
 E2(B2PLYPD3) =    -0.2267085129D+00 E(B2PLYPD3) =    -0.15591919304410D+03

 The electronic state is 1-A.
 Alpha  occ. eigenvalues --  -10.63082 -10.63012 -10.62618 -10.61389  -0.92835
 Alpha  occ. eigenvalues --   -0.84795  -0.70030  -0.63583  -0.54303  -0.53855
 Alpha  occ. eigenvalues --   -0.46700  -0.45120  -0.40722  -0.37977  -0.27684
 Alpha virt. eigenvalues --    0.01441   0.06930   0.07374   0.07814   0.09597
 Alpha virt. eigenvalues --    0.11508   0.12484   0.14361   0.15618   0.16408
 Alpha virt. eigenvalues --    0.18782   0.20160   0.21748   0.22587   0.23502

 Mulliken charges:
               1
     1  C   -0.183060
     2  C   -0.027641
     3  C   -0.030969
     4  C   -0.160504
     5  H    0.088344
     6  H    0.075033
     7  H    0.053269
     8  H    0.048043
     9  H    0.050585
    10  H    0.086901
 Sum of Mulliken charges =   0.00000

 Dipole moment (field-independent basis, Debye):
    X=             -0.0225    Y=             -0.0147    Z=             -0.0485  Tot=              0.0554
 Quadrupole moment (field-independent basis, Debye-Ang):
   XX=            -23.1755   YY=            -23.3924   ZZ=            -29.3757
   XY=             -0.0176   XZ=              0.2160   YZ=              0.0624

 1\1\GINC-NODE08\SP\RB2PLYPD3-FC\def2QZVP\C4H6\BOITTIER\26-Aug-2020\0\\
 #p B2PLYPD3/Def2QZVP\\butadiene\\0,1\C,0,-3.863257,0.219357,-0.011723\
 C,0,-2.717705,-0.484674,0.057922\C,0,-1.378187,0.070685,0.06083\C,0,-0
 .254648,-0.647104,0.002706\H,0,-4.811327,-0.308971,-0.060678\H,0,-3.85
 7101,1.257513,-0.020578\H,0,-2.777201,-1.575835,0.20307\H,0,-1.267268,
 1.183732,0.013671\H,0,-0.351304,-1.761061,0.009752\H,0,0.818967,-0.289
 307,-0.10679\\Version=ES64L-G09RevD.01\State=1-A\HF=-155.6924845\MP2=-
 155.919193\RMSD=8.724e-09\PG=C01 [X(C4H6)]\\@

 Normal termination of Gaussian 09 at Wed Aug 26 08:59:50 2020.
