 Gaussian 09, Revision D.01,
 Gaussian 09:  ES64L-G09RevD.01 24-Apr-2013

 --------------------
 #p B2PLYPD3/Def2QZVP
 --------------------

 ---------
 butadiene
 ---------
 Symbolic Z-matrix:
 Charge =  0 Multiplicity = 1

                         Standard orientation:
 ---------------------------------------------------------------------
 Center     Atomic      Atomic             Coordinates (Angstroms)
 Number     Number       Type             X           Y           Z
 ---------------------------------------------------------------------
      1          6           0       -1.828825    0.108492    0.033685
      2          6           0       -0.603919   -0.412021   -0.048160
      3          6           0        0.584511    0.380138   -0.037499
      4          6           0        1.830311   -0.104191    0.055385
      5          1           0       -2.756040   -0.468129    0.142915
      6          1           0       -1.920101    1.214746   -0.011503
      7          1           0       -0.448886   -1.480785   -0.113656
      8          1           0        0.502110    1.522278   -0.068383
      9          1           0        2.014386   -1.158436    0.011994
     10          1           0        2.716053    0.535813    0.018169
 ---------------------------------------------------------------------

 SCF Done:  E(RB2PLYPD3) =  -155.694917945     A.U. after   11 cycles
 E2(B2PLYPD3) =    -0.2265599801D+00 E(B2PLYPD3) =    -0.15592147792488D+03

 The electronic state is 1-A.
 Alpha  occ. eigenvalues --  -10.62996 -10.62518 -10.62121 -10.61476  -0.93327
 Alpha  occ. eigenvalues --   -0.84740  -0.70138  -0.63556  -0.54696  -0.53633
 Alpha  occ. eigenvalues --   -0.46677  -0.44792  -0.41231  -0.38240  -0.27529
 Alpha virt. eigenvalues --    0.01483   0.06972   0.07256   0.07897   0.09682
 Alpha virt. eigenvalues --    0.11621   0.12516   0.14541   0.15802   0.16292
 Alpha virt. eigenvalues --    0.18721   0.20036   0.21759   0.22625   0.23793

 Mulliken charges:
               1
     1  C   -0.167096
     2  C   -0.034074
     3  C   -0.016418
     4  C   -0.175378
     5  H    0.089034
     6  H    0.061927
     7  H    0.056464
     8  H    0.041900
     9  H    0.060475
    10  H    0.083164
 Sum of Mulliken charges =   0.00000

 Dipole moment (field-independent basis, Debye):
    X=             -0.0417    Y=             -0.0542    Z=             -0.0796  Tot=              0.1050
 Quadrupole moment (field-independent basis, Debye-Ang):
   XX=            -23.4021   YY=            -23.2958   ZZ=            -29.3109
   XY=             -0.0007   XZ=             -0.3516   YZ=             -0.0471

 1\1\GINC-NODE04\SP\RB2PLYPD3-FC\def2QZVP\C4H6\BOITTIER\26-Aug-2020\0\\
 #p B2PLYPD3/Def2QZVP\\butadiene\\0,1\C,0,-3.828391,0.225206,0.055939\C
 ,0,-2.717968,-0.509906,-0.011874\C,0,-1.40611,0.054763,-0.025012\C,0,-
 0.267561,-0.643618,0.080771\H,0,-4.843729,-0.17131,0.182495\H,0,-3.718
 913,1.328048,-0.02103\H,0,-2.758639,-1.590515,-0.046674\H,0,-1.281345,
 1.191689,-0.088725\H,0,-0.276915,-1.71457,0.067625\H,0,0.718848,-0.175
 271,0.024407\\Version=ES64L-G09RevD.01\State=1-A\HF=-155.6949179\MP2=-
 155.9214779\RMSD=4.325e-09\PG=C01 [X(C4H6)]\\@

 Normal termination of Gaussian 09 at Wed Aug 26 09:01:42 2020.
