 Gaussian 09, Revision D.01,
 Gaussian 09:  ES64L-G09RevD.01 24-Apr-2013

 --------------------
 #p B2PLYPD3/Def2QZVP
 --------------------

 ---------
 butadiene
 ---------
 Symbolic Z-matrix:
 Charge =  0 Multiplicity = 1

                         Standard orientation:
 ---------------------------------------------------------------------
 Center     Atomic      Atomic             Coordinates (Angstroms)
 Number     Number       Type             X           Y           Z
 ---------------------------------------------------------------------
      1          6           0        1.839852   -0.109467    0.024198
      2          6           0        0.601692    0.406039   -0.037409
      3          6           0       -0.606979   -0.397864   -0.016462
      4          6           0       -1.836805    0.104692    0.027019
      5          1           0        2.778553    0.492524    0.071794
      6          1           0        1.979056   -1.186536   -0.008717
      7          1           0        0.457318    1.487620   -0.014113
      8          1           0       -0.463306   -1.461232   -0.061661
      9          1           0       -2.013121    1.170737   -0.028961
     10          1           0       -2.725064   -0.523516    0.057580
 ---------------------------------------------------------------------

 SCF Done:  E(RB2PLYPD3) =  -155.699425358     A.U. after   11 cycles
 E2(B2PLYPD3) =    -0.2259762671D+00 E(B2PLYPD3) =    -0.15592540162482D+03

 The electronic state is 1-A.
 Alpha  occ. eigenvalues --  -10.62761 -10.62380 -10.62099 -10.61520  -0.93037
 Alpha  occ. eigenvalues --   -0.84746  -0.69997  -0.64209  -0.54532  -0.53669
 Alpha  occ. eigenvalues --   -0.46885  -0.45263  -0.41058  -0.38130  -0.27678
 Alpha virt. eigenvalues --    0.01674   0.06978   0.07404   0.08030   0.09536
 Alpha virt. eigenvalues --    0.11629   0.12513   0.14577   0.15770   0.16266
 Alpha virt. eigenvalues --    0.18805   0.20349   0.21713   0.22947   0.23586

 Mulliken charges:
               1
     1  C   -0.171716
     2  C   -0.032054
     3  C   -0.028236
     4  C   -0.174115
     5  H    0.083972
     6  H    0.062271
     7  H    0.054953
     8  H    0.056248
     9  H    0.064601
    10  H    0.084076
 Sum of Mulliken charges =   0.00000

 Dipole moment (field-independent basis, Debye):
    X=             -0.0104    Y=             -0.0138    Z=             -0.0272  Tot=              0.0322
 Quadrupole moment (field-independent basis, Debye-Ang):
   XX=            -23.3174   YY=            -23.2433   ZZ=            -29.3037
   XY=             -0.1827   XZ=              0.1340   YZ=              0.0504

 1\1\GINC-NODE19\SP\RB2PLYPD3-FC\def2QZVP\C4H6\BOITTIER\26-Aug-2020\0\\
 #p B2PLYPD3/Def2QZVP\\butadiene\\0,1\C,0,-3.842163,0.225477,0.04404\C,
 0,-2.717566,-0.506617,0.000439\C,0,-1.383674,0.066353,-0.004087\C,0,-0
 .2644,-0.648091,0.05691\H,0,-4.873759,-0.195464,0.110649\H,0,-3.785068
 ,1.308341,-0.024408\H,0,-2.770439,-1.595161,0.059425\H,0,-1.333507,1.1
 36155,-0.084365\H,0,-0.283461,-1.729701,0.036179\H,0,0.722709,-0.18973
 8,0.067512\\Version=ES64L-G09RevD.01\State=1-A\HF=-155.6994254\MP2=-15
 5.9254016\RMSD=4.217e-09\PG=C01 [X(C4H6)]\\@

 Normal termination of Gaussian 09 at Wed Aug 26 21:24:41 2020.
