 Gaussian 09, Revision D.01,
 Gaussian 09:  ES64L-G09RevD.01 24-Apr-2013

 --------------------
 #p B2PLYPD3/Def2QZVP
 --------------------

 ---------
 butadiene
 ---------
 Symbolic Z-matrix:
 Charge =  0 Multiplicity = 1

                         Standard orientation:
 ---------------------------------------------------------------------
 Center     Atomic      Atomic             Coordinates (Angstroms)
 Number     Number       Type             X           Y           Z
 ---------------------------------------------------------------------
      1          6           0       -1.842122   -0.115396   -0.027890
      2          6           0       -0.613325    0.383095    0.055074
      3          6           0        0.624513   -0.409677    0.017332
      4          6           0        1.849119    0.126360   -0.027330
      5          1           0       -2.668812    0.586960   -0.027934
      6          1           0       -2.059078   -1.140511   -0.046094
      7          1           0       -0.534863    1.490197   -0.027943
      8          1           0        0.454798   -1.486376    0.030405
      9          1           0        2.019097    1.158876   -0.028778
     10          1           0        2.679747   -0.515443   -0.002778
 ---------------------------------------------------------------------

 SCF Done:  E(RB2PLYPD3) =  -155.696876569     A.U. after   11 cycles
 E2(B2PLYPD3) =    -0.2253235804D+00 E(B2PLYPD3) =    -0.15592220014984D+03

 The electronic state is 1-A.
 Alpha  occ. eigenvalues --  -10.62794 -10.62594 -10.61007 -10.60893  -0.92728
 Alpha  occ. eigenvalues --   -0.85307  -0.70459  -0.63954  -0.54727  -0.54326
 Alpha  occ. eigenvalues --   -0.46751  -0.46220  -0.40845  -0.37876  -0.27846
 Alpha virt. eigenvalues --    0.01830   0.07003   0.07480   0.08070   0.09550
 Alpha virt. eigenvalues --    0.11724   0.12408   0.14976   0.15620   0.16166
 Alpha virt. eigenvalues --    0.18830   0.20149   0.22006   0.22841   0.24112

 Mulliken charges:
               1
     1  C   -0.178776
     2  C   -0.020984
     3  C   -0.041354
     4  C   -0.175511
     5  H    0.081556
     6  H    0.069185
     7  H    0.048793
     8  H    0.055516
     9  H    0.074687
    10  H    0.086889
 Sum of Mulliken charges =   0.00000

 Dipole moment (field-independent basis, Debye):
    X=              0.0072    Y=             -0.0210    Z=             -0.0440  Tot=              0.0493
 Quadrupole moment (field-independent basis, Debye-Ang):
   XX=            -23.5366   YY=            -22.9658   ZZ=            -29.2098
   XY=              0.2723   XZ=              0.1746   YZ=             -0.0952

 1\1\GINC-NODE21\SP\RB2PLYPD3-FC\def2QZVP\C4H6\BOITTIER\26-Aug-2020\0\\
 #p B2PLYPD3/Def2QZVP\\butadiene\\0,1\C,0,-3.846964,0.224528,0.049179\C
 ,0,-2.726327,-0.486446,-0.014123\C,0,-1.367512,0.075431,-0.005779\C,0,
 -0.256858,-0.66695,0.059875\H,0,-4.784895,-0.319823,0.075397\H,0,-3.87
 8947,1.271813,0.028364\H,0,-2.844536,-1.586048,0.110873\H,0,-1.344063,
 1.163911,-0.059779\H,0,-0.2723,-1.712458,0.100583\H,0,0.67408,-0.18376
 6,0.011466\\Version=ES64L-G09RevD.01\State=1-A\HF=-155.6968766\MP2=-15
 5.9222001\RMSD=6.104e-09\PG=C01 [X(C4H6)]\\@

 Normal termination of Gaussian 09 at Wed Aug 26 11:15:44 2020.
