 Gaussian 09, Revision D.01,
 Gaussian 09:  ES64L-G09RevD.01 24-Apr-2013

 --------------------
 #p B2PLYPD3/Def2QZVP
 --------------------

 ---------
 butadiene
 ---------
 Symbolic Z-matrix:
 Charge =  0 Multiplicity = 1

                         Standard orientation:
 ---------------------------------------------------------------------
 Center     Atomic      Atomic             Coordinates (Angstroms)
 Number     Number       Type             X           Y           Z
 ---------------------------------------------------------------------
      1          6           0        1.830860   -0.094580    0.035140
      2          6           0        0.581739    0.385157   -0.025623
      3          6           0       -0.597071   -0.418292   -0.051347
      4          6           0       -1.821387    0.119565    0.020114
      5          1           0        2.751428    0.538630    0.034395
      6          1           0        1.963768   -1.162585   -0.026881
      7          1           0        0.416331    1.482868   -0.016586
      8          1           0       -0.416217   -1.452159    0.031110
      9          1           0       -2.010097    1.207031    0.009595
     10          1           0       -2.670060   -0.564885    0.098659
 ---------------------------------------------------------------------

 SCF Done:  E(RB2PLYPD3) =  -155.695524949     A.U. after   11 cycles
 E2(B2PLYPD3) =    -0.2264359853D+00 E(B2PLYPD3) =    -0.15592196093381D+03

 The electronic state is 1-A.
 Alpha  occ. eigenvalues --  -10.62433 -10.62155 -10.62034 -10.61769  -0.93483
 Alpha  occ. eigenvalues --   -0.84563  -0.70119  -0.64221  -0.54333  -0.53668
 Alpha  occ. eigenvalues --   -0.46796  -0.45188  -0.41129  -0.38451  -0.27423
 Alpha virt. eigenvalues --    0.01495   0.06994   0.07318   0.08032   0.09559
 Alpha virt. eigenvalues --    0.11773   0.12335   0.14757   0.15693   0.16016
 Alpha virt. eigenvalues --    0.18610   0.20176   0.21537   0.23181   0.23802

 Mulliken charges:
               1
     1  C   -0.181353
     2  C   -0.014122
     3  C   -0.037033
     4  C   -0.175123
     5  H    0.085828
     6  H    0.059222
     7  H    0.045349
     8  H    0.061258
     9  H    0.074146
    10  H    0.081829
 Sum of Mulliken charges =   0.00000

 Dipole moment (field-independent basis, Debye):
    X=             -0.0606    Y=             -0.0202    Z=              0.0580  Tot=              0.0863
 Quadrupole moment (field-independent basis, Debye-Ang):
   XX=            -23.7341   YY=            -23.1050   ZZ=            -29.3068
   XY=             -0.2256   XZ=             -0.3110   YZ=             -0.0644

 1\1\GINC-NODE02\SP\RB2PLYPD3-FC\def2QZVP\C4H6\BOITTIER\26-Aug-2020\0\\
 #p B2PLYPD3/Def2QZVP\\butadiene\\0,1\C,0,-3.834793,0.217758,0.052477\C
 ,0,-2.696428,-0.486798,0.009254\C,0,-1.389023,0.083073,-0.03228\C,0,-0
 .285721,-0.670525,0.058071\H,0,-4.856871,-0.233485,0.064234\H,0,-3.767
 262,1.289894,-0.037578\H,0,-2.737574,-1.595524,0.047242\H,0,-1.374835,
 1.134336,0.022775\H,0,-0.302083,-1.774021,0.076342\H,0,0.675274,-0.153
 584,0.12247\\Version=ES64L-G09RevD.01\State=1-A\HF=-155.6955249\MP2=-1
 55.9219609\RMSD=6.013e-09\PG=C01 [X(C4H6)]\\@

 Normal termination of Gaussian 09 at Wed Aug 26 09:12:53 2020.
