 Gaussian 09, Revision D.01,
 Gaussian 09:  ES64L-G09RevD.01 24-Apr-2013

 --------------------
 #p B2PLYPD3/Def2QZVP
 --------------------

 ---------
 butadiene
 ---------
 Symbolic Z-matrix:
 Charge =  0 Multiplicity = 1

                         Standard orientation:
 ---------------------------------------------------------------------
 Center     Atomic      Atomic             Coordinates (Angstroms)
 Number     Number       Type             X           Y           Z
 ---------------------------------------------------------------------
      1          6           0        1.776394   -0.146411    0.063225
      2          6           0        0.575322    0.452139   -0.109784
      3          6           0       -0.576656   -0.362164   -0.087392
      4          6           0       -1.816908    0.090240    0.032499
      5          1           0        2.726759    0.392686    0.279465
      6          1           0        1.939137   -1.203587   -0.014274
      7          1           0        0.674293    1.522773   -0.086529
      8          1           0       -0.405622   -1.405774    0.028783
      9          1           0       -2.032913    1.130422    0.252984
     10          1           0       -2.650568   -0.639345    0.148284
 ---------------------------------------------------------------------

 SCF Done:  E(RB2PLYPD3) =  -155.685275129     A.U. after   11 cycles
 E2(B2PLYPD3) =    -0.2267763031D+00 E(B2PLYPD3) =    -0.15591205143261D+03

 The electronic state is 1-A.
 Alpha  occ. eigenvalues --  -10.62445 -10.61995 -10.61899 -10.61372  -0.93918
 Alpha  occ. eigenvalues --   -0.84693  -0.69890  -0.64807  -0.54831  -0.54081
 Alpha  occ. eigenvalues --   -0.45452  -0.45040  -0.42025  -0.38451  -0.27078
 Alpha virt. eigenvalues --    0.01413   0.07040   0.07543   0.07824   0.09221
 Alpha virt. eigenvalues --    0.11672   0.12540   0.14645   0.15736   0.16774
 Alpha virt. eigenvalues --    0.18794   0.19775   0.21369   0.22741   0.24324

 Mulliken charges:
               1
     1  C   -0.171501
     2  C   -0.031766
     3  C   -0.029031
     4  C   -0.173231
     5  H    0.067370
     6  H    0.063786
     7  H    0.068629
     8  H    0.064511
     9  H    0.069474
    10  H    0.071758
 Sum of Mulliken charges =   0.00000

 Dipole moment (field-independent basis, Debye):
    X=              0.2163    Y=             -0.0230    Z=              0.3995  Tot=              0.4549
 Quadrupole moment (field-independent basis, Debye-Ang):
   XX=            -24.0228   YY=            -23.0856   ZZ=            -29.0665
   XY=             -0.0160   XZ=             -0.2256   YZ=              0.2025

 1\1\GINC-NODE37\SP\RB2PLYPD3-FC\def2QZVP\C4H6\BOITTIER\26-Aug-2020\0\\
 #p B2PLYPD3/Def2QZVP\\butadiene\\0,1\C,0,-3.776552,0.255942,0.088012\C
 ,0,-2.703753,-0.554206,-0.065387\C,0,-1.423343,0.038357,-0.057402\C,0,
 -0.285538,-0.628085,0.078695\H,0,-4.808835,-0.096757,0.312899\H,0,-3.7
 45133,1.322912,-0.015428\H,0,-2.994995,-1.588338,-0.017001\H,0,-1.4025
 33,1.098194,0.033064\H,0,-0.261495,-1.684519,0.324905\H,0,0.666476,-0.
 058911,0.180674\\Version=ES64L-G09RevD.01\State=1-A\HF=-155.6852751\MP
 2=-155.9120514\RMSD=7.352e-09\PG=C01 [X(C4H6)]\\@

 Normal termination of Gaussian 09 at Wed Aug 26 13:33:50 2020.
