 Gaussian 09, Revision D.01,
 Gaussian 09:  ES64L-G09RevD.01 24-Apr-2013

 --------------------
 #p B2PLYPD3/Def2QZVP
 --------------------

 ---------
 butadiene
 ---------
 Symbolic Z-matrix:
 Charge =  0 Multiplicity = 1

                         Standard orientation:
 ---------------------------------------------------------------------
 Center     Atomic      Atomic             Coordinates (Angstroms)
 Number     Number       Type             X           Y           Z
 ---------------------------------------------------------------------
      1          6           0       -1.830525    0.101573    0.005269
      2          6           0       -0.600412   -0.390229   -0.026906
      3          6           0        0.608178    0.416072   -0.028423
      4          6           0        1.823807   -0.124477    0.017968
      5          1           0       -2.691087   -0.549556    0.062050
      6          1           0       -1.982082    1.181982    0.051151
      7          1           0       -0.473363   -1.477867    0.030338
      8          1           0        0.475950    1.503929   -0.005881
      9          1           0        1.992308   -1.189955   -0.010145
     10          1           0        2.671984    0.513828    0.065036
 ---------------------------------------------------------------------

 SCF Done:  E(RB2PLYPD3) =  -155.700485542     A.U. after   11 cycles
 E2(B2PLYPD3) =    -0.2254543470D+00 E(B2PLYPD3) =    -0.15592593988952D+03

 The electronic state is 1-A.
 Alpha  occ. eigenvalues --  -10.62567 -10.62285 -10.61295 -10.61213  -0.93127
 Alpha  occ. eigenvalues --   -0.85123  -0.70008  -0.63826  -0.54572  -0.54124
 Alpha  occ. eigenvalues --   -0.46639  -0.45566  -0.41101  -0.38231  -0.27775
 Alpha virt. eigenvalues --    0.01974   0.07058   0.07308   0.08071   0.09603
 Alpha virt. eigenvalues --    0.11751   0.12387   0.14766   0.15823   0.16114
 Alpha virt. eigenvalues --    0.18700   0.20416   0.21573   0.22989   0.24015

 Mulliken charges:
               1
     1  C   -0.177947
     2  C   -0.021792
     3  C   -0.033307
     4  C   -0.176279
     5  H    0.086938
     6  H    0.062392
     7  H    0.050396
     8  H    0.053701
     9  H    0.070901
    10  H    0.084996
 Sum of Mulliken charges =   0.00000

 Dipole moment (field-independent basis, Debye):
    X=              0.0473    Y=             -0.0087    Z=              0.1368  Tot=              0.1450
 Quadrupole moment (field-independent basis, Debye-Ang):
   XX=            -23.6948   YY=            -22.9806   ZZ=            -29.2191
   XY=             -0.1006   XZ=             -0.1416   YZ=              0.0311

 1\1\GINC-NODE31\SP\RB2PLYPD3-FC\def2QZVP\C4H6\BOITTIER\26-Aug-2020\0\\
 #p B2PLYPD3/Def2QZVP\\butadiene\\0,1\C,0,-3.834565,0.215123,0.029927\C
 ,0,-2.713464,-0.491213,0.012521\C,0,-1.379311,0.083482,-0.011481\C,0,-
 0.28088,-0.665945,0.051037\H,0,-4.79816,-0.268223,0.104904\H,0,-3.7886
 ,1.306006,0.044724\H,0,-2.784358,-1.581864,0.101001\H,0,-1.313099,1.17
 7541,-0.020218\H,0,-0.307405,-1.744702,0.053582\H,0,0.668704,-0.190034
 ,0.080227\\Version=ES64L-G09RevD.01\State=1-A\HF=-155.7004855\MP2=-155
 .9259399\RMSD=5.478e-09\PG=C01 [X(C4H6)]\\@

 Normal termination of Gaussian 09 at Wed Aug 26 21:28:17 2020.
