 Gaussian 09, Revision D.01,
 Gaussian 09:  ES64L-G09RevD.01 24-Apr-2013

 --------------------
 #p B2PLYPD3/Def2QZVP
 --------------------

 ---------
 butadiene
 ---------
 Symbolic Z-matrix:
 Charge =  0 Multiplicity = 1

                         Standard orientation:
 ---------------------------------------------------------------------
 Center     Atomic      Atomic             Coordinates (Angstroms)
 Number     Number       Type             X           Y           Z
 ---------------------------------------------------------------------
      1          6           0       -1.845140    0.091490   -0.000928
      2          6           0       -0.607566   -0.371105   -0.027148
      3          6           0        0.602337    0.422140   -0.023793
      4          6           0        1.846033   -0.137567    0.015824
      5          1           0       -2.707656   -0.618126    0.174569
      6          1           0       -2.014418    1.147839   -0.004662
      7          1           0       -0.427848   -1.406812   -0.063000
      8          1           0        0.465184    1.515057    0.018456
      9          1           0        2.030892   -1.200927    0.022154
     10          1           0        2.679860    0.533225    0.068747
 ---------------------------------------------------------------------

 SCF Done:  E(RB2PLYPD3) =  -155.694893025     A.U. after   11 cycles
 E2(B2PLYPD3) =    -0.2262549380D+00 E(B2PLYPD3) =    -0.15592114796300D+03

 The electronic state is 1-A.
 Alpha  occ. eigenvalues --  -10.63105 -10.61960 -10.61773 -10.61593  -0.93042
 Alpha  occ. eigenvalues --   -0.84700  -0.70257  -0.64295  -0.54118  -0.53940
 Alpha  occ. eigenvalues --   -0.46349  -0.46237  -0.41143  -0.38000  -0.27490
 Alpha virt. eigenvalues --    0.01414   0.06924   0.07434   0.08038   0.09598
 Alpha virt. eigenvalues --    0.11775   0.12250   0.14850   0.15523   0.16128
 Alpha virt. eigenvalues --    0.18762   0.20069   0.21724   0.22995   0.23816

 Mulliken charges:
               1
     1  C   -0.177773
     2  C   -0.017237
     3  C   -0.040895
     4  C   -0.183660
     5  H    0.083009
     6  H    0.066011
     7  H    0.057503
     8  H    0.051904
     9  H    0.074926
    10  H    0.086212
 Sum of Mulliken charges =   0.00000

 Dipole moment (field-independent basis, Debye):
    X=              0.0708    Y=             -0.0184    Z=              0.1619  Tot=              0.1777
 Quadrupole moment (field-independent basis, Debye-Ang):
   XX=            -23.8493   YY=            -22.9829   ZZ=            -29.2967
   XY=             -0.2539   XZ=             -0.2246   YZ=             -0.0265

 1\1\GINC-NODE08\SP\RB2PLYPD3-FC\def2QZVP\C4H6\BOITTIER\26-Aug-2020\0\\
 #p B2PLYPD3/Def2QZVP\\butadiene\\0,1\C,0,-3.849794,0.209627,0.025101\C
 ,0,-2.716793,-0.470408,0.013513\C,0,-1.383106,0.089879,-0.008205\C,0,-
 0.261318,-0.684674,0.04908\H,0,-4.825668,-0.325926,0.222938\H,0,-3.824
 729,1.278522,-0.012017\H,0,-2.728075,-1.522138,0.010412\H,0,-1.319555,
 1.190317,-0.000519\H,0,-0.272316,-1.763206,0.089014\H,0,0.680614,-0.17
 4977,0.080776\\Version=ES64L-G09RevD.01\State=1-A\HF=-155.694893\MP2=-
 155.921148\RMSD=5.995e-09\PG=C01 [X(C4H6)]\\@

 Normal termination of Gaussian 09 at Wed Aug 26 10:38:07 2020.
