 Gaussian 09, Revision D.01,
 Gaussian 09:  ES64L-G09RevD.01 24-Apr-2013

 --------------------
 #p B2PLYPD3/Def2QZVP
 --------------------

 ---------
 butadiene
 ---------
 Symbolic Z-matrix:
 Charge =  0 Multiplicity = 1

                         Standard orientation:
 ---------------------------------------------------------------------
 Center     Atomic      Atomic             Coordinates (Angstroms)
 Number     Number       Type             X           Y           Z
 ---------------------------------------------------------------------
      1          6           0        1.825304    0.057368    0.051065
      2          6           0        0.553745   -0.352518   -0.072623
      3          6           0       -0.577711    0.446184   -0.064485
      4          6           0       -1.816009   -0.148062    0.004022
      5          1           0        2.737429   -0.578903    0.059513
      6          1           0        2.144575    1.099104    0.066678
      7          1           0        0.329156   -1.382829    0.075280
      8          1           0       -0.460229    1.463922   -0.031054
      9          1           0       -1.969075   -1.152202    0.033078
     10          1           0       -2.693830    0.533080    0.288629
 ---------------------------------------------------------------------

 SCF Done:  E(RB2PLYPD3) =  -155.678193248     A.U. after   11 cycles
 E2(B2PLYPD3) =    -0.2273202994D+00 E(B2PLYPD3) =    -0.15590551354757D+03

 The electronic state is 1-A.
 Alpha  occ. eigenvalues --  -10.62192 -10.62058 -10.62018 -10.61827  -0.94158
 Alpha  occ. eigenvalues --   -0.84083  -0.71158  -0.65672  -0.54851  -0.54069
 Alpha  occ. eigenvalues --   -0.46961  -0.44996  -0.41513  -0.38573  -0.26759
 Alpha virt. eigenvalues --    0.00547   0.06928   0.07555   0.08083   0.09473
 Alpha virt. eigenvalues --    0.11744   0.12495   0.15000   0.15528   0.16442
 Alpha virt. eigenvalues --    0.18664   0.19523   0.22219   0.23168   0.23860

 Mulliken charges:
               1
     1  C   -0.177696
     2  C   -0.019850
     3  C   -0.029865
     4  C   -0.178753
     5  H    0.075857
     6  H    0.054965
     7  H    0.058526
     8  H    0.069928
     9  H    0.078098
    10  H    0.068790
 Sum of Mulliken charges =   0.00000

 Dipole moment (field-independent basis, Debye):
    X=              0.0336    Y=              0.0315    Z=              0.3293  Tot=              0.3325
 Quadrupole moment (field-independent basis, Debye-Ang):
   XX=            -23.7525   YY=            -23.2651   ZZ=            -29.1395
   XY=              0.5987   XZ=             -0.5541   YZ=              0.0461

 1\1\GINC-NODE30\SP\RB2PLYPD3-FC\def2QZVP\C4H6\BOITTIER\26-Aug-2020\0\\
 #p B2PLYPD3/Def2QZVP\\butadiene\\0,1\C,0,-3.834571,0.192872,-0.032461\
 C,0,-2.665203,-0.45217,0.096633\C,0,-1.40099,0.11279,0.068924\C,0,-0.3
 01072,-0.710552,0.009816\H,0,-4.852349,-0.255414,-0.025288\H,0,-3.9469
 6,1.276116,-0.06913\H,0,-2.644573,-1.509218,-0.030182\H,0,-1.32013,1.1
 33184,0.014442\H,0,-0.344799,-1.725731,0.001451\H,0,0.689801,-0.217517
 ,-0.291202\\Version=ES64L-G09RevD.01\State=1-A\HF=-155.6781932\MP2=-15
 5.9055135\RMSD=8.385e-09\PG=C01 [X(C4H6)]\\@

 Normal termination of Gaussian 09 at Wed Aug 26 15:13:56 2020.
