 Gaussian 09, Revision D.01,
 Gaussian 09:  ES64L-G09RevD.01 24-Apr-2013

 --------------------
 #p B2PLYPD3/Def2QZVP
 --------------------

 ---------
 butadiene
 ---------
 Symbolic Z-matrix:
 Charge =  0 Multiplicity = 1

                         Standard orientation:
 ---------------------------------------------------------------------
 Center     Atomic      Atomic             Coordinates (Angstroms)
 Number     Number       Type             X           Y           Z
 ---------------------------------------------------------------------
      1          6           0        1.841207   -0.123271    0.014780
      2          6           0        0.592355    0.410002   -0.058078
      3          6           0       -0.605629   -0.385433   -0.056593
      4          6           0       -1.842424    0.101041    0.044027
      5          1           0        2.688046    0.502604    0.160459
      6          1           0        2.044358   -1.167528    0.086719
      7          1           0        0.515676    1.525446   -0.035211
      8          1           0       -0.430961   -1.423554    0.004380
      9          1           0       -2.041122    1.131235    0.085194
     10          1           0       -2.689052   -0.582237    0.033647
 ---------------------------------------------------------------------

 SCF Done:  E(RB2PLYPD3) =  -155.696002668     A.U. after   11 cycles
 E2(B2PLYPD3) =    -0.2260354425D+00 E(B2PLYPD3) =    -0.15592203811028D+03

 The electronic state is 1-A.
 Alpha  occ. eigenvalues --  -10.63099 -10.62069 -10.61478 -10.61234  -0.93075
 Alpha  occ. eigenvalues --   -0.84758  -0.70817  -0.64340  -0.54594  -0.54279
 Alpha  occ. eigenvalues --   -0.46578  -0.45910  -0.41463  -0.38096  -0.27355
 Alpha virt. eigenvalues --    0.01292   0.06999   0.07507   0.08056   0.09568
 Alpha virt. eigenvalues --    0.11702   0.12472   0.14953   0.15746   0.16291
 Alpha virt. eigenvalues --    0.18880   0.20084   0.21802   0.23210   0.23703

 Mulliken charges:
               1
     1  C   -0.177229
     2  C   -0.029845
     3  C   -0.031175
     4  C   -0.175887
     5  H    0.081461
     6  H    0.064310
     7  H    0.050775
     8  H    0.062444
     9  H    0.072081
    10  H    0.083064
 Sum of Mulliken charges =   0.00000

 Dipole moment (field-independent basis, Debye):
    X=              0.0037    Y=             -0.0139    Z=              0.2304  Tot=              0.2309
 Quadrupole moment (field-independent basis, Debye-Ang):
   XX=            -23.5324   YY=            -23.0644   ZZ=            -29.2252
   XY=             -0.2891   XZ=              0.3891   YZ=              0.0334

 1\1\GINC-NODE09\SP\RB2PLYPD3-FC\def2QZVP\C4H6\BOITTIER\26-Aug-2020\0\\
 #p B2PLYPD3/Def2QZVP\\butadiene\\0,1\C,0,-3.841489,0.24251,0.044772\C,
 0,-2.711196,-0.511223,-0.01559\C,0,-1.38832,0.052209,-0.036337\C,0,-0.
 260323,-0.648901,0.075509\H,0,-4.787331,-0.214535,0.20778\H,0,-3.85049
 2,1.307792,0.089606\H,0,-2.838955,-1.620996,0.036362\H,0,-1.370502,1.1
 05987,-0.002339\H,0,-0.252464,-1.696664,0.14338\H,0,0.696576,-0.131945
 ,0.046252\\Version=ES64L-G09RevD.01\State=1-A\HF=-155.6960027\MP2=-155
 .9220381\RMSD=6.238e-09\PG=C01 [X(C4H6)]\\@

 Normal termination of Gaussian 09 at Wed Aug 26 08:46:37 2020.
