 Gaussian 09, Revision D.01,
 Gaussian 09:  ES64L-G09RevD.01 24-Apr-2013

 --------------------
 #p B2PLYPD3/Def2QZVP
 --------------------

 ---------
 butadiene
 ---------
 Symbolic Z-matrix:
 Charge =  0 Multiplicity = 1

                         Standard orientation:
 ---------------------------------------------------------------------
 Center     Atomic      Atomic             Coordinates (Angstroms)
 Number     Number       Type             X           Y           Z
 ---------------------------------------------------------------------
      1          6           0       -1.826634    0.117000    0.007658
      2          6           0       -0.609892   -0.413924   -0.015700
      3          6           0        0.600442    0.398077   -0.020276
      4          6           0        1.829122   -0.111145    0.005162
      5          1           0       -2.696779   -0.507670    0.038367
      6          1           0       -1.928988    1.214613    0.021074
      7          1           0       -0.495398   -1.489411    0.010159
      8          1           0        0.467332    1.458965   -0.005749
      9          1           0        2.021585   -1.158956    0.009301
     10          1           0        2.674021    0.542411    0.065782
 ---------------------------------------------------------------------

 SCF Done:  E(RB2PLYPD3) =  -155.700929170     A.U. after   11 cycles
 E2(B2PLYPD3) =    -0.2251997242D+00 E(B2PLYPD3) =    -0.15592612889416D+03

 The electronic state is 1-A.
 Alpha  occ. eigenvalues --  -10.62262 -10.62195 -10.61403 -10.61005  -0.93135
 Alpha  occ. eigenvalues --   -0.85133  -0.69987  -0.64303  -0.54744  -0.54096
 Alpha  occ. eigenvalues --   -0.46665  -0.45719  -0.41317  -0.38166  -0.27761
 Alpha virt. eigenvalues --    0.02030   0.07046   0.07418   0.08123   0.09575
 Alpha virt. eigenvalues --    0.11771   0.12430   0.14747   0.15888   0.16112
 Alpha virt. eigenvalues --    0.18698   0.20498   0.21536   0.23014   0.24155

 Mulliken charges:
               1
     1  C   -0.176164
     2  C   -0.030374
     3  C   -0.029915
     4  C   -0.178275
     5  H    0.088419
     6  H    0.063128
     7  H    0.054857
     8  H    0.056542
     9  H    0.068928
    10  H    0.082856
 Sum of Mulliken charges =   0.00000

 Dipole moment (field-independent basis, Debye):
    X=              0.0031    Y=             -0.0278    Z=              0.1029  Tot=              0.1066
 Quadrupole moment (field-independent basis, Debye-Ang):
   XX=            -23.6981   YY=            -22.9468   ZZ=            -29.1916
   XY=             -0.0515   XZ=              0.0533   YZ=              0.0167

 1\1\GINC-NODE18\SP\RB2PLYPD3-FC\def2QZVP\C4H6\BOITTIER\26-Aug-2020\0\\
 #p B2PLYPD3/Def2QZVP\\butadiene\\0,1\C,0,-3.827026,0.228941,0.027824\C
 ,0,-2.725363,-0.512135,0.021993\C,0,-1.388996,0.069061,-0.002667\C,0,-
 0.271554,-0.651452,0.039697\H,0,-4.795039,-0.228351,0.074106\H,0,-3.73
 074,1.327044,0.010288\H,0,-2.805623,-1.589562,0.078195\H,0,-1.329553,1
 .136601,-0.018132\H,0,-0.270207,-1.71626,0.073583\H,0,0.677069,-0.1586
 74,0.083844\\Version=ES64L-G09RevD.01\State=1-A\HF=-155.7009292\MP2=-1
 55.9261289\RMSD=3.833e-09\PG=C01 [X(C4H6)]\\@

 Normal termination of Gaussian 09 at Wed Aug 26 10:11:22 2020.
