 Gaussian 09, Revision D.01,
 Gaussian 09:  ES64L-G09RevD.01 24-Apr-2013

 --------------------
 #p B2PLYPD3/Def2QZVP
 --------------------

 ---------
 butadiene
 ---------
 Symbolic Z-matrix:
 Charge =  0 Multiplicity = 1

                         Standard orientation:
 ---------------------------------------------------------------------
 Center     Atomic      Atomic             Coordinates (Angstroms)
 Number     Number       Type             X           Y           Z
 ---------------------------------------------------------------------
      1          6           0        1.828273    0.107765    0.018717
      2          6           0        0.591553   -0.387727   -0.039723
      3          6           0       -0.604912    0.422071   -0.043499
      4          6           0       -1.823550   -0.125982    0.028217
      5          1           0        2.634970   -0.579319    0.093672
      6          1           0        2.083993    1.156136    0.125812
      7          1           0        0.452360   -1.486739   -0.046168
      8          1           0       -0.521544    1.516356   -0.132632
      9          1           0       -1.888802   -1.191042    0.010785
     10          1           0       -2.709167    0.487838    0.166255
 ---------------------------------------------------------------------

 SCF Done:  E(RB2PLYPD3) =  -155.697493625     A.U. after   11 cycles
 E2(B2PLYPD3) =    -0.2259598686D+00 E(B2PLYPD3) =    -0.15592345349365D+03

 The electronic state is 1-A.
 Alpha  occ. eigenvalues --  -10.62701 -10.62520 -10.61352 -10.61163  -0.93130
 Alpha  occ. eigenvalues --   -0.84959  -0.70071  -0.63824  -0.54672  -0.53973
 Alpha  occ. eigenvalues --   -0.46282  -0.45654  -0.41510  -0.38065  -0.27514
 Alpha virt. eigenvalues --    0.01761   0.07048   0.07319   0.08006   0.09472
 Alpha virt. eigenvalues --    0.11702   0.12451   0.14807   0.15691   0.16227
 Alpha virt. eigenvalues --    0.18664   0.20373   0.21689   0.22670   0.24077

 Mulliken charges:
               1
     1  C   -0.176245
     2  C   -0.031667
     3  C   -0.026758
     4  C   -0.179166
     5  H    0.080405
     6  H    0.070620
     7  H    0.050811
     8  H    0.058100
     9  H    0.065899
    10  H    0.088000
 Sum of Mulliken charges =   0.00000

 Dipole moment (field-independent basis, Debye):
    X=             -0.0158    Y=              0.0195    Z=              0.1503  Tot=              0.1524
 Quadrupole moment (field-independent basis, Debye-Ang):
   XX=            -23.8210   YY=            -22.9566   ZZ=            -29.2151
   XY=              0.0781   XZ=              0.0722   YZ=              0.0719

 1\1\GINC-NODE25\SP\RB2PLYPD3-FC\def2QZVP\C4H6\BOITTIER\26-Aug-2020\0\\
 #p B2PLYPD3/Def2QZVP\\butadiene\\0,1\C,0,-3.832422,0.218395,-0.005656\
 C,0,-2.705109,-0.490024,0.069931\C,0,-1.382295,0.0907,0.054517\C,0,-0.
 282539,-0.66976,0.001409\H,0,-4.749899,-0.313888,-0.063726\H,0,-3.8952
 76,1.292294,-0.142527\H,0,-2.766231,-1.595516,0.107276\H,0,-1.266895,1
 .184143,0.112998\H,0,-0.410247,-1.72824,0.04859\H,0,0.698876,-0.229658
 ,-0.151179\\Version=ES64L-G09RevD.01\State=1-A\HF=-155.6974936\MP2=-15
 5.9234535\RMSD=4.545e-09\PG=C01 [X(C4H6)]\\@

 Normal termination of Gaussian 09 at Wed Aug 26 08:55:25 2020.
