 Gaussian 09, Revision D.01,
 Gaussian 09:  ES64L-G09RevD.01 24-Apr-2013

 --------------------
 #p B2PLYPD3/Def2QZVP
 --------------------

 ---------
 butadiene
 ---------
 Symbolic Z-matrix:
 Charge =  0 Multiplicity = 1

                         Standard orientation:
 ---------------------------------------------------------------------
 Center     Atomic      Atomic             Coordinates (Angstroms)
 Number     Number       Type             X           Y           Z
 ---------------------------------------------------------------------
      1          6           0        1.854202    0.082586   -0.083039
      2          6           0        0.618843   -0.363994    0.075735
      3          6           0       -0.592567    0.406195    0.131482
      4          6           0       -1.845617   -0.114750   -0.067002
      5          1           0        2.634372   -0.691138   -0.130173
      6          1           0        2.096121    1.175584    0.013876
      7          1           0        0.297644   -1.340567    0.096979
      8          1           0       -0.509203    1.519222   -0.081547
      9          1           0       -2.029120   -1.219471   -0.062805
     10          1           0       -2.698974    0.496144   -0.179382
 ---------------------------------------------------------------------

 SCF Done:  E(RB2PLYPD3) =  -155.680118619     A.U. after   12 cycles
 E2(B2PLYPD3) =    -0.2274844918D+00 E(B2PLYPD3) =    -0.15590760311087D+03

 The electronic state is 1-A.
 Alpha  occ. eigenvalues --  -10.63242 -10.62549 -10.62180 -10.61743  -0.93260
 Alpha  occ. eigenvalues --   -0.84553  -0.70948  -0.63662  -0.54591  -0.53134
 Alpha  occ. eigenvalues --   -0.47381  -0.45100  -0.40266  -0.38190  -0.27539
 Alpha virt. eigenvalues --    0.00945   0.07036   0.07323   0.08087   0.09279
 Alpha virt. eigenvalues --    0.11647   0.12234   0.14697   0.15266   0.16146
 Alpha virt. eigenvalues --    0.18768   0.19325   0.21986   0.23334   0.23758

 Mulliken charges:
               1
     1  C   -0.176609
     2  C   -0.027462
     3  C   -0.026741
     4  C   -0.177409
     5  H    0.085687
     6  H    0.078672
     7  H    0.053572
     8  H    0.044116
     9  H    0.055656
    10  H    0.090517
 Sum of Mulliken charges =   0.00000

 Dipole moment (field-independent basis, Debye):
    X=             -0.1377    Y=             -0.0694    Z=             -0.1640  Tot=              0.2251
 Quadrupole moment (field-independent basis, Debye-Ang):
   XX=            -23.5656   YY=            -23.3741   ZZ=            -29.3152
   XY=              0.3171   XZ=              0.5071   YZ=             -0.1628

 1\1\GINC-NODE06\SP\RB2PLYPD3-FC\def2QZVP\C4H6\BOITTIER\26-Aug-2020\0\\
 #p B2PLYPD3/Def2QZVP\\butadiene\\0,1\C,0,-3.854155,0.214419,0.10223\C,
 0,-2.724197,-0.459527,-0.038292\C,0,-1.389972,0.068563,-0.107416\C,0,-
 0.25672,-0.672285,0.111213\H,0,-4.765425,-0.398086,0.165156\H,0,-3.887
 089,1.330434,-0.024217\H,0,-2.591532,-1.479175,-0.032547\H,0,-1.263544
 ,1.182754,0.076308\H,0,-0.283319,-1.791547,0.136572\H,0,0.695882,-0.22
 916,0.21235\\Version=ES64L-G09RevD.01\State=1-A\HF=-155.6801186\MP2=-1
 55.9076031\RMSD=3.325e-09\PG=C01 [X(C4H6)]\\@

 Normal termination of Gaussian 09 at Wed Aug 26 15:44:08 2020.
