 Gaussian 09, Revision D.01,
 Gaussian 09:  ES64L-G09RevD.01 24-Apr-2013

 --------------------
 #p B2PLYPD3/Def2QZVP
 --------------------

 ---------
 butadiene
 ---------
 Symbolic Z-matrix:
 Charge =  0 Multiplicity = 1

                         Standard orientation:
 ---------------------------------------------------------------------
 Center     Atomic      Atomic             Coordinates (Angstroms)
 Number     Number       Type             X           Y           Z
 ---------------------------------------------------------------------
      1          6           0        1.834625   -0.105776   -0.018827
      2          6           0        0.599721    0.386386    0.001489
      3          6           0       -0.612232   -0.408811    0.011173
      4          6           0       -1.841384    0.113857   -0.025083
      5          1           0        2.698179    0.571376    0.062296
      6          1           0        2.127957   -1.163733   -0.055779
      7          1           0        0.513274    1.481914    0.050459
      8          1           0       -0.445837   -1.444908    0.104760
      9          1           0       -2.036775    1.161751    0.011074
     10          1           0       -2.741178   -0.520332    0.014675
 ---------------------------------------------------------------------

 SCF Done:  E(RB2PLYPD3) =  -155.697588752     A.U. after   11 cycles
 E2(B2PLYPD3) =    -0.2257049791D+00 E(B2PLYPD3) =    -0.15592329373114D+03

 The electronic state is 1-A.
 Alpha  occ. eigenvalues --  -10.62550 -10.62327 -10.61748 -10.61671  -0.93060
 Alpha  occ. eigenvalues --   -0.84868  -0.70273  -0.64227  -0.54567  -0.53911
 Alpha  occ. eigenvalues --   -0.46926  -0.45355  -0.40757  -0.38109  -0.27753
 Alpha virt. eigenvalues --    0.01675   0.06945   0.07467   0.07996   0.09647
 Alpha virt. eigenvalues --    0.11578   0.12404   0.14829   0.15814   0.16192
 Alpha virt. eigenvalues --    0.18901   0.20420   0.21804   0.22400   0.23736

 Mulliken charges:
               1
     1  C   -0.174006
     2  C   -0.023922
     3  C   -0.042887
     4  C   -0.168125
     5  H    0.076100
     6  H    0.063886
     7  H    0.053940
     8  H    0.066328
     9  H    0.070144
    10  H    0.078542
 Sum of Mulliken charges =   0.00000

 Dipole moment (field-independent basis, Debye):
    X=             -0.0018    Y=             -0.0079    Z=              0.1754  Tot=              0.1756
 Quadrupole moment (field-independent basis, Debye-Ang):
   XX=            -23.3666   YY=            -23.1599   ZZ=            -29.2444
   XY=             -0.4133   XZ=             -0.0275   YZ=              0.0512

 1\1\GINC-NODE36\SP\RB2PLYPD3-FC\def2QZVP\C4H6\BOITTIER\26-Aug-2020\0\\
 #p B2PLYPD3/Def2QZVP\\butadiene\\0,1\C,0,-3.839475,0.221055,0.002639\C
 ,0,-2.714635,-0.486653,0.04147\C,0,-1.378224,0.074677,0.028227\C,0,-0.
 264798,-0.663778,0.011484\H,0,-4.811493,-0.284739,0.103607\H,0,-3.9355
 99,1.312988,-0.068957\H,0,-2.828733,-1.577487,0.125833\H,0,-1.353022,1
 .126211,0.088083\H,0,-0.263153,-1.728027,0.081747\H,0,0.735487,-0.2029
 31,0.032794\\Version=ES64L-G09RevD.01\State=1-A\HF=-155.6975888\MP2=-1
 55.9232937\RMSD=5.906e-09\PG=C01 [X(C4H6)]\\@

 Normal termination of Gaussian 09 at Wed Aug 26 10:35:11 2020.
