 Gaussian 09, Revision D.01,
 Gaussian 09:  ES64L-G09RevD.01 24-Apr-2013

 --------------------
 #p B2PLYPD3/Def2QZVP
 --------------------

 ---------
 butadiene
 ---------
 Symbolic Z-matrix:
 Charge =  0 Multiplicity = 1

                         Standard orientation:
 ---------------------------------------------------------------------
 Center     Atomic      Atomic             Coordinates (Angstroms)
 Number     Number       Type             X           Y           Z
 ---------------------------------------------------------------------
      1          6           0       -1.847268   -0.137981   -0.051497
      2          6           0       -0.630491    0.434804    0.025256
      3          6           0        0.609172   -0.380758    0.024273
      4          6           0        1.861711    0.091235   -0.029469
      5          1           0       -2.708422    0.529781    0.078019
      6          1           0       -1.997843   -1.202402   -0.087375
      7          1           0       -0.464577    1.504194    0.112760
      8          1           0        0.440033   -1.497665    0.187860
      9          1           0        2.029625    1.161618   -0.074637
     10          1           0        2.742441   -0.539328   -0.028012
 ---------------------------------------------------------------------

 SCF Done:  E(RB2PLYPD3) =  -155.694808738     A.U. after   11 cycles
 E2(B2PLYPD3) =    -0.2266245152D+00 E(B2PLYPD3) =    -0.15592143325275D+03

 The electronic state is 1-A.
 Alpha  occ. eigenvalues --  -10.63287 -10.63163 -10.61996 -10.61638  -0.92303
 Alpha  occ. eigenvalues --   -0.84696  -0.69856  -0.63530  -0.54141  -0.53577
 Alpha  occ. eigenvalues --   -0.47281  -0.45366  -0.40568  -0.37382  -0.27829
 Alpha virt. eigenvalues --    0.01639   0.07024   0.07233   0.07949   0.09305
 Alpha virt. eigenvalues --    0.11624   0.12308   0.14634   0.15606   0.16065
 Alpha virt. eigenvalues --    0.18873   0.19953   0.21600   0.22745   0.23588

 Mulliken charges:
               1
     1  C   -0.169843
     2  C   -0.045509
     3  C   -0.023273
     4  C   -0.180920
     5  H    0.083019
     6  H    0.076378
     7  H    0.060861
     8  H    0.047429
     9  H    0.061197
    10  H    0.090661
 Sum of Mulliken charges =   0.00000

 Dipole moment (field-independent basis, Debye):
    X=             -0.0159    Y=              0.0318    Z=              0.1926  Tot=              0.1958
 Quadrupole moment (field-independent basis, Debye-Ang):
   XX=            -23.5975   YY=            -23.1107   ZZ=            -29.4096
   XY=              0.3046   XZ=             -0.2652   YZ=              0.0278

 1\1\GINC-NODE29\SP\RB2PLYPD3-FC\def2QZVP\C4H6\BOITTIER\26-Aug-2020\0\\
 #p B2PLYPD3/Def2QZVP\\butadiene\\0,1\C,0,-3.843948,0.251362,0.06032\C,
 0,-2.74869,-0.530847,0.004817\C,0,-1.383617,0.050692,-0.01238\C,0,-0.2
 35081,-0.634996,0.059836\H,0,-4.810382,-0.255871,-0.053635\H,0,-3.8025
 45,1.32617,0.065297\H,0,-2.775939,-1.614755,-0.051561\H,0,-1.351352,1.
 174704,-0.208354\H,0,-0.260395,-1.716429,0.136112\H,0,0.743851,-0.1715
 97,0.04401\\Version=ES64L-G09RevD.01\State=1-A\HF=-155.6948087\MP2=-15
 5.9214333\RMSD=7.951e-09\PG=C01 [X(C4H6)]\\@

 Normal termination of Gaussian 09 at Wed Aug 26 10:20:42 2020.
