 Gaussian 09, Revision D.01,
 Gaussian 09:  ES64L-G09RevD.01 24-Apr-2013

 --------------------
 #p B2PLYPD3/Def2QZVP
 --------------------

 ---------
 butadiene
 ---------
 Symbolic Z-matrix:
 Charge =  0 Multiplicity = 1

                         Standard orientation:
 ---------------------------------------------------------------------
 Center     Atomic      Atomic             Coordinates (Angstroms)
 Number     Number       Type             X           Y           Z
 ---------------------------------------------------------------------
      1          6           0       -1.863616   -0.133692   -0.016770
      2          6           0       -0.611296    0.424119    0.021806
      3          6           0        0.642126   -0.394851    0.022137
      4          6           0        1.862935    0.096696   -0.072364
      5          1           0       -2.722550    0.487735   -0.153905
      6          1           0       -1.973864   -1.127960    0.011911
      7          1           0       -0.506065    1.498361    0.206994
      8          1           0        0.337158   -1.446511    0.097663
      9          1           0        1.972578    1.180633    0.002507
     10          1           0        2.711851   -0.545890    0.105979
 ---------------------------------------------------------------------

 SCF Done:  E(RB2PLYPD3) =  -155.684342964     A.U. after   12 cycles
 E2(B2PLYPD3) =    -0.2265072259D+00 E(B2PLYPD3) =    -0.15591085019033D+03

 The electronic state is 1-A.
 Alpha  occ. eigenvalues --  -10.63356 -10.62942 -10.61485 -10.61195  -0.92416
 Alpha  occ. eigenvalues --   -0.85060  -0.70445  -0.64172  -0.54406  -0.53919
 Alpha  occ. eigenvalues --   -0.47043  -0.46763  -0.40702  -0.37085  -0.27810
 Alpha virt. eigenvalues --    0.01386   0.07057   0.07382   0.08144   0.09078
 Alpha virt. eigenvalues --    0.11728   0.12545   0.14671   0.15323   0.16396
 Alpha virt. eigenvalues --    0.18771   0.19231   0.22081   0.23336   0.24204

 Mulliken charges:
               1
     1  C   -0.190700
     2  C   -0.033417
     3  C   -0.036636
     4  C   -0.159752
     5  H    0.089909
     6  H    0.071268
     7  H    0.058058
     8  H    0.051244
     9  H    0.064243
    10  H    0.085784
 Sum of Mulliken charges =   0.00000

 Dipole moment (field-independent basis, Debye):
    X=             -0.1063    Y=             -0.0282    Z=              0.2805  Tot=              0.3013
 Quadrupole moment (field-independent basis, Debye-Ang):
   XX=            -23.6469   YY=            -23.2488   ZZ=            -29.2471
   XY=              0.2818   XZ=              0.7437   YZ=             -0.0335

 1\1\GINC-NODE21\SP\RB2PLYPD3-FC\def2QZVP\C4H6\BOITTIER\26-Aug-2020\0\\
 #p B2PLYPD3/Def2QZVP\\butadiene\\0,1\C,0,-3.865924,0.24732,0.039197\C,
 0,-2.73297,-0.524999,0.009442\C,0,-1.354026,0.057838,-0.014912\C,0,-0.
 239274,-0.640651,0.086904\H,0,-4.820508,-0.208191,0.194189\H,0,-3.7979
 88,1.24443,-0.012789\H,0,-2.821712,-1.604778,-0.150455\H,0,-1.467874,1
 .144962,-0.114399\H,0,-0.324541,-1.728233,0.037508\H,0,0.708891,-0.163
 483,-0.109753\\Version=ES64L-G09RevD.01\State=1-A\HF=-155.684343\MP2=-
 155.9108502\RMSD=3.084e-09\PG=C01 [X(C4H6)]\\@

 Normal termination of Gaussian 09 at Wed Aug 26 12:02:01 2020.
