 Gaussian 09, Revision D.01,
 Gaussian 09:  ES64L-G09RevD.01 24-Apr-2013

 --------------------
 #p B2PLYPD3/Def2QZVP
 --------------------

 ---------
 butadiene
 ---------
 Symbolic Z-matrix:
 Charge =  0 Multiplicity = 1

                         Standard orientation:
 ---------------------------------------------------------------------
 Center     Atomic      Atomic             Coordinates (Angstroms)
 Number     Number       Type             X           Y           Z
 ---------------------------------------------------------------------
      1          6           0        1.837821    0.109079    0.041921
      2          6           0        0.603477   -0.399534   -0.099544
      3          6           0       -0.627105    0.448475   -0.073879
      4          6           0       -1.808327   -0.131201    0.021117
      5          1           0        2.608537   -0.526468    0.250553
      6          1           0        1.980880    1.138225    0.022418
      7          1           0        0.453861   -1.435666   -0.067497
      8          1           0       -0.535408    1.548938    0.107162
      9          1           0       -1.731691   -1.281299    0.205999
     10          1           0       -2.811380    0.395364    0.143678
 ---------------------------------------------------------------------

 SCF Done:  E(RB2PLYPD3) =  -155.678985901     A.U. after   12 cycles
 E2(B2PLYPD3) =    -0.2264752090D+00 E(B2PLYPD3) =    -0.15590546111016D+03

 The electronic state is 1-A.
 Alpha  occ. eigenvalues --  -10.63001 -10.62666 -10.62510 -10.60361  -0.92852
 Alpha  occ. eigenvalues --   -0.85164  -0.69285  -0.63997  -0.54458  -0.53917
 Alpha  occ. eigenvalues --   -0.46582  -0.45401  -0.41122  -0.37485  -0.27835
 Alpha virt. eigenvalues --    0.02078   0.06962   0.07189   0.08065   0.08824
 Alpha virt. eigenvalues --    0.11728   0.12703   0.14138   0.15418   0.16577
 Alpha virt. eigenvalues --    0.18629   0.19620   0.21507   0.23357   0.24335

 Mulliken charges:
               1
     1  C   -0.182015
     2  C   -0.033596
     3  C   -0.037686
     4  C   -0.157170
     5  H    0.086789
     6  H    0.074492
     7  H    0.061448
     8  H    0.058014
     9  H    0.045600
    10  H    0.084123
 Sum of Mulliken charges =   0.00000

 Dipole moment (field-independent basis, Debye):
    X=              0.0277    Y=              0.0594    Z=              0.4925  Tot=              0.4968
 Quadrupole moment (field-independent basis, Debye-Ang):
   XX=            -23.9521   YY=            -23.1695   ZZ=            -29.1741
   XY=             -0.2958   XZ=             -0.0541   YZ=             -0.1108

 1\1\GINC-NODE31\SP\RB2PLYPD3-FC\def2QZVP\C4H6\BOITTIER\26-Aug-2020\0\\
 #p B2PLYPD3/Def2QZVP\\butadiene\\0,1\C,0,-3.843603,0.20649,-0.032806\C
 ,0,-2.715405,-0.505317,0.118207\C,0,-1.356844,0.116661,0.078638\C,0,-0
 .293812,-0.660002,-0.005579\H,0,-4.713056,-0.28976,-0.230889\H,0,-3.80
 6595,1.245054,-0.031203\H,0,-2.747192,-1.552109,0.104186\H,0,-1.257398
 ,1.213141,-0.121475\H,0,-0.568506,-1.782542,-0.17058\H,0,0.784859,-0.3
 16916,-0.136609\\Version=ES64L-G09RevD.01\State=1-A\HF=-155.6789859\MP
 2=-155.9054611\RMSD=5.133e-09\PG=C01 [X(C4H6)]\\@

 Normal termination of Gaussian 09 at Wed Aug 26 13:36:10 2020.
