 Gaussian 09, Revision D.01,
 Gaussian 09:  ES64L-G09RevD.01 24-Apr-2013

 --------------------
 #p B2PLYPD3/Def2QZVP
 --------------------

 ---------
 butadiene
 ---------
 Symbolic Z-matrix:
 Charge =  0 Multiplicity = 1

                         Standard orientation:
 ---------------------------------------------------------------------
 Center     Atomic      Atomic             Coordinates (Angstroms)
 Number     Number       Type             X           Y           Z
 ---------------------------------------------------------------------
      1          6           0       -1.801185    0.118049    0.007385
      2          6           0       -0.598917   -0.436589   -0.036028
      3          6           0        0.576540    0.397097   -0.099587
      4          6           0        1.812777   -0.114660    0.062125
      5          1           0       -2.718726   -0.512986    0.144028
      6          1           0       -1.919504    1.195997    0.070929
      7          1           0       -0.498135   -1.459746    0.038092
      8          1           0        0.383526    1.485235    0.100394
      9          1           0        2.185866   -1.074699   -0.030638
     10          1           0        2.631683    0.582813    0.073828
 ---------------------------------------------------------------------

 SCF Done:  E(RB2PLYPD3) =  -155.684855396     A.U. after   12 cycles
 E2(B2PLYPD3) =    -0.2263261083D+00 E(B2PLYPD3) =    -0.15591118150466D+03

 The electronic state is 1-A.
 Alpha  occ. eigenvalues --  -10.63091 -10.61638 -10.61496 -10.61080  -0.93435
 Alpha  occ. eigenvalues --   -0.84775  -0.70283  -0.64859  -0.55215  -0.53390
 Alpha  occ. eigenvalues --   -0.46341  -0.45521  -0.41011  -0.38197  -0.27535
 Alpha virt. eigenvalues --    0.01623   0.07005   0.07423   0.08045   0.08965
 Alpha virt. eigenvalues --    0.11712   0.12586   0.15091   0.15459   0.16298
 Alpha virt. eigenvalues --    0.18566   0.19577   0.22728   0.23109   0.23854

 Mulliken charges:
               1
     1  C   -0.166053
     2  C   -0.030709
     3  C   -0.034546
     4  C   -0.172003
     5  H    0.073122
     6  H    0.062230
     7  H    0.067468
     8  H    0.061634
     9  H    0.074700
    10  H    0.064158
 Sum of Mulliken charges =   0.00000

 Dipole moment (field-independent basis, Debye):
    X=              0.0613    Y=             -0.1018    Z=              0.2421  Tot=              0.2697
 Quadrupole moment (field-independent basis, Debye-Ang):
   XX=            -23.7639   YY=            -23.0466   ZZ=            -29.1392
   XY=             -0.5688   XZ=             -0.4025   YZ=              0.1927

 1\1\GINC-NODE20\SP\RB2PLYPD3-FC\def2QZVP\C4H6\BOITTIER\26-Aug-2020\0\\
 #p B2PLYPD3/Def2QZVP\\butadiene\\0,1\C,0,-3.797065,0.242206,0.041856\C
 ,0,-2.72018,-0.528355,0.002994\C,0,-1.409612,0.069514,-0.072734\C,0,-0
 .290501,-0.662929,0.092935\H,0,-4.816026,-0.204102,0.187754\H,0,-3.711
 081,1.323891,0.092585\H,0,-2.812572,-1.55135,0.089288\H,0,-1.394542,1.
 176777,0.114433\H,0,-0.104256,-1.676878,0.011109\H,0,0.644616,-0.13117
 1,0.094746\\Version=ES64L-G09RevD.01\State=1-A\HF=-155.6848554\MP2=-15
 5.9111815\RMSD=3.472e-09\PG=C01 [X(C4H6)]\\@

 Normal termination of Gaussian 09 at Wed Aug 26 13:05:22 2020.
