 Gaussian 09, Revision D.01,
 Gaussian 09:  ES64L-G09RevD.01 24-Apr-2013

 --------------------
 #p B2PLYPD3/Def2QZVP
 --------------------

 ---------
 butadiene
 ---------
 Symbolic Z-matrix:
 Charge =  0 Multiplicity = 1

                         Standard orientation:
 ---------------------------------------------------------------------
 Center     Atomic      Atomic             Coordinates (Angstroms)
 Number     Number       Type             X           Y           Z
 ---------------------------------------------------------------------
      1          6           0        1.843401    0.100213    0.016837
      2          6           0        0.600132   -0.392811   -0.020870
      3          6           0       -0.609405    0.405706   -0.006909
      4          6           0       -1.851858   -0.108248    0.002110
      5          1           0        2.723945   -0.526915   -0.016874
      6          1           0        2.058601    1.167503    0.071114
      7          1           0        0.490947   -1.473625   -0.040425
      8          1           0       -0.431070    1.490530   -0.065632
      9          1           0       -1.988372   -1.188090    0.087208
     10          1           0       -2.747672    0.501441    0.017603
 ---------------------------------------------------------------------

 SCF Done:  E(RB2PLYPD3) =  -155.699895202     A.U. after   11 cycles
 E2(B2PLYPD3) =    -0.2261862517D+00 E(B2PLYPD3) =    -0.15592608145402D+03

 The electronic state is 1-A.
 Alpha  occ. eigenvalues --  -10.62947 -10.62598 -10.61922 -10.61672  -0.92871
 Alpha  occ. eigenvalues --   -0.84698  -0.70318  -0.63891  -0.54746  -0.53561
 Alpha  occ. eigenvalues --   -0.46896  -0.45310  -0.40993  -0.38097  -0.27609
 Alpha virt. eigenvalues --    0.01475   0.07004   0.07375   0.08036   0.09580
 Alpha virt. eigenvalues --    0.11597   0.12464   0.14656   0.15804   0.16232
 Alpha virt. eigenvalues --    0.18853   0.20397   0.21749   0.22618   0.23572

 Mulliken charges:
               1
     1  C   -0.174137
     2  C   -0.025949
     3  C   -0.033454
     4  C   -0.173114
     5  H    0.084080
     6  H    0.061121
     7  H    0.053309
     8  H    0.054498
     9  H    0.065099
    10  H    0.088547
 Sum of Mulliken charges =   0.00000

 Dipole moment (field-independent basis, Debye):
    X=              0.0192    Y=             -0.0012    Z=              0.0351  Tot=              0.0400
 Quadrupole moment (field-independent basis, Debye-Ang):
   XX=            -23.2440   YY=            -23.2569   ZZ=            -29.3363
   XY=              0.1974   XZ=             -0.1194   YZ=             -0.0420

 1\1\GINC-NODE37\SP\RB2PLYPD3-FC\def2QZVP\C4H6\BOITTIER\26-Aug-2020\0\\
 #p B2PLYPD3/Def2QZVP\\butadiene\\0,1\C,0,-3.848944,0.217502,0.003314\C
 ,0,-2.715657,-0.491905,0.054463\C,0,-1.381354,0.073198,0.021332\C,0,-0
 .252845,-0.657804,0.026296\H,0,-4.828541,-0.238336,0.05213\H,0,-3.8670
 86,1.304431,-0.07806\H,0,-2.804354,-1.573752,0.101381\H,0,-1.359634,1.
 173494,0.052509\H,0,-0.314887,-1.746269,-0.031407\H,0,0.738673,-0.2214
 25,-0.003854\\Version=ES64L-G09RevD.01\State=1-A\HF=-155.6998952\MP2=-
 155.9260815\RMSD=4.430e-09\PG=C01 [X(C4H6)]\\@

 Normal termination of Gaussian 09 at Wed Aug 26 21:22:07 2020.
