 Gaussian 09, Revision D.01,
 Gaussian 09:  ES64L-G09RevD.01 24-Apr-2013

 --------------------
 #p B2PLYPD3/Def2QZVP
 --------------------

 ---------
 butadiene
 ---------
 Symbolic Z-matrix:
 Charge =  0 Multiplicity = 1

                         Standard orientation:
 ---------------------------------------------------------------------
 Center     Atomic      Atomic             Coordinates (Angstroms)
 Number     Number       Type             X           Y           Z
 ---------------------------------------------------------------------
      1          6           0        1.790074   -0.138424   -0.052134
      2          6           0        0.576412    0.427561    0.072078
      3          6           0       -0.582906   -0.396204    0.043543
      4          6           0       -1.832450    0.101278   -0.030069
      5          1           0        2.747049    0.499522   -0.148164
      6          1           0        1.984657   -1.188637    0.165595
      7          1           0        0.626271    1.554623   -0.009184
      8          1           0       -0.404262   -1.443570   -0.139759
      9          1           0       -1.977165    1.146810   -0.035637
     10          1           0       -2.683329   -0.534007   -0.033358
 ---------------------------------------------------------------------

 SCF Done:  E(RB2PLYPD3) =  -155.684728762     A.U. after   11 cycles
 E2(B2PLYPD3) =    -0.2272964171D+00 E(B2PLYPD3) =    -0.15591202517944D+03

 The electronic state is 1-A.
 Alpha  occ. eigenvalues --  -10.62945 -10.62527 -10.62280 -10.61082  -0.93482
 Alpha  occ. eigenvalues --   -0.84541  -0.69960  -0.63917  -0.54731  -0.53766
 Alpha  occ. eigenvalues --   -0.45528  -0.45202  -0.41671  -0.38232  -0.27135
 Alpha virt. eigenvalues --    0.01291   0.07032   0.07317   0.07831   0.08942
 Alpha virt. eigenvalues --    0.11799   0.12458   0.14595   0.15455   0.16484
 Alpha virt. eigenvalues --    0.18610   0.19455   0.21646   0.23511   0.23981

 Mulliken charges:
               1
     1  C   -0.170607
     2  C   -0.029771
     3  C   -0.033053
     4  C   -0.182777
     5  H    0.062861
     6  H    0.069349
     7  H    0.059323
     8  H    0.066634
     9  H    0.070595
    10  H    0.087444
 Sum of Mulliken charges =   0.00000

 Dipole moment (field-independent basis, Debye):
    X=              0.0294    Y=              0.0047    Z=             -0.0764  Tot=              0.0820
 Quadrupole moment (field-independent basis, Debye-Ang):
   XX=            -23.8287   YY=            -23.1011   ZZ=            -29.2718
   XY=             -0.0177   XZ=              0.1374   YZ=             -0.1561

 1\1\GINC-NODE04\SP\RB2PLYPD3-FC\def2QZVP\C4H6\BOITTIER\26-Aug-2020\0\\
 #p B2PLYPD3/Def2QZVP\\butadiene\\0,1\C,0,-3.793642,0.24248,-0.03589\C,
 0,-2.701465,-0.53003,0.102384\C,0,-1.412734,0.070259,0.05497\C,0,-0.27
 3649,-0.645995,-0.006129\H,0,-4.850308,-0.214497,-0.117299\H,0,-3.7948
 67,1.315372,0.156768\H,0,-2.954021,-1.631211,0.047841\H,0,-1.40029,1.1
 28084,-0.153214\H,0,-0.31984,-1.700322,0.013176\H,0,0.67781,-0.174828,
 -0.024007\\Version=ES64L-G09RevD.01\State=1-A\HF=-155.6847288\MP2=-155
 .9120252\RMSD=6.751e-09\PG=C01 [X(C4H6)]\\@

 Normal termination of Gaussian 09 at Wed Aug 26 15:35:26 2020.
