 Gaussian 09, Revision D.01,
 Gaussian 09:  ES64L-G09RevD.01 24-Apr-2013

 --------------------
 #p B2PLYPD3/Def2QZVP
 --------------------

 ---------
 butadiene
 ---------
 Symbolic Z-matrix:
 Charge =  0 Multiplicity = 1

                         Standard orientation:
 ---------------------------------------------------------------------
 Center     Atomic      Atomic             Coordinates (Angstroms)
 Number     Number       Type             X           Y           Z
 ---------------------------------------------------------------------
      1          6           0        1.845569   -0.146406   -0.002251
      2          6           0        0.622783    0.440709   -0.023928
      3          6           0       -0.621292   -0.373927   -0.033216
      4          6           0       -1.862165    0.095799    0.012913
      5          1           0        2.729568    0.465592    0.067584
      6          1           0        2.014058   -1.186496    0.044312
      7          1           0        0.540094    1.493658    0.100411
      8          1           0       -0.464147   -1.438851    0.013126
      9          1           0       -1.999478    1.162115   -0.056365
     10          1           0       -2.729470   -0.593066    0.109827
 ---------------------------------------------------------------------

 SCF Done:  E(RB2PLYPD3) =  -155.696140513     A.U. after   11 cycles
 E2(B2PLYPD3) =    -0.2258983776D+00 E(B2PLYPD3) =    -0.15592203889018D+03

 The electronic state is 1-A.
 Alpha  occ. eigenvalues --  -10.63044 -10.62439 -10.61609 -10.61567  -0.92445
 Alpha  occ. eigenvalues --   -0.84887  -0.69915  -0.64461  -0.54315  -0.53864
 Alpha  occ. eigenvalues --   -0.47065  -0.45674  -0.41095  -0.37562  -0.27753
 Alpha virt. eigenvalues --    0.01729   0.06982   0.07549   0.08047   0.09236
 Alpha virt. eigenvalues --    0.11704   0.12389   0.14638   0.15754   0.16124
 Alpha virt. eigenvalues --    0.18833   0.20159   0.21611   0.23311   0.23900

 Mulliken charges:
               1
     1  C   -0.172256
     2  C   -0.051293
     3  C   -0.024170
     4  C   -0.181171
     5  H    0.079037
     6  H    0.072351
     7  H    0.065246
     8  H    0.055526
     9  H    0.068390
    10  H    0.088340
 Sum of Mulliken charges =   0.00000

 Dipole moment (field-independent basis, Debye):
    X=              0.0882    Y=             -0.0191    Z=              0.2158  Tot=              0.2339
 Quadrupole moment (field-independent basis, Debye-Ang):
   XX=            -23.5775   YY=            -23.0106   ZZ=            -29.3124
   XY=             -0.1231   XZ=              0.1316   YZ=             -0.0583

 1\1\GINC-NODE36\SP\RB2PLYPD3-FC\def2QZVP\C4H6\BOITTIER\26-Aug-2020\0\\
 #p B2PLYPD3/Def2QZVP\\butadiene\\0,1\C,0,-3.845181,0.252142,0.023771\C
 ,0,-2.743421,-0.53935,0.017104\C,0,-1.376532,0.045649,-0.011738\C,0,-0
 .236255,-0.631784,0.046493\H,0,-4.821974,-0.194627,0.108298\H,0,-3.829
 78,1.306501,0.044599\H,0,-2.844887,-1.587259,0.167407\H,0,-1.345636,1.
 122473,0.008261\H,0,-0.28701,-1.707082,0.003591\H,0,0.738132,-0.102377
 ,0.126762\\Version=ES64L-G09RevD.01\State=1-A\HF=-155.6961405\MP2=-155
 .9220389\RMSD=6.377e-09\PG=C01 [X(C4H6)]\\@

 Normal termination of Gaussian 09 at Wed Aug 26 09:25:21 2020.
