 Gaussian 09, Revision D.01,
 Gaussian 09:  ES64L-G09RevD.01 24-Apr-2013

 --------------------
 #p B2PLYPD3/Def2QZVP
 --------------------

 ---------
 butadiene
 ---------
 Symbolic Z-matrix:
 Charge =  0 Multiplicity = 1

                         Standard orientation:
 ---------------------------------------------------------------------
 Center     Atomic      Atomic             Coordinates (Angstroms)
 Number     Number       Type             X           Y           Z
 ---------------------------------------------------------------------
      1          6           0        1.849884    0.108160    0.000210
      2          6           0        0.601641   -0.392395   -0.003191
      3          6           0       -0.614224    0.411733   -0.019606
      4          6           0       -1.844437   -0.117916    0.011737
      5          1           0        2.686222   -0.578717   -0.023252
      6          1           0        2.072101    1.169807    0.106034
      7          1           0        0.469905   -1.459865   -0.035781
      8          1           0       -0.469246    1.484969   -0.033594
      9          1           0       -1.979504   -1.191043    0.068778
     10          1           0       -2.736661    0.517357   -0.017088
 ---------------------------------------------------------------------

 SCF Done:  E(RB2PLYPD3) =  -155.700245955     A.U. after   11 cycles
 E2(B2PLYPD3) =    -0.2260609500D+00 E(B2PLYPD3) =    -0.15592630690477D+03

 The electronic state is 1-A.
 Alpha  occ. eigenvalues --  -10.62629 -10.62560 -10.61809 -10.61716  -0.92785
 Alpha  occ. eigenvalues --   -0.84702  -0.70061  -0.64148  -0.54249  -0.53911
 Alpha  occ. eigenvalues --   -0.46506  -0.45860  -0.41182  -0.37933  -0.27578
 Alpha virt. eigenvalues --    0.01580   0.06976   0.07427   0.08048   0.09494
 Alpha virt. eigenvalues --    0.11690   0.12306   0.14774   0.15878   0.16014
 Alpha virt. eigenvalues --    0.18781   0.20518   0.21437   0.22714   0.23917

 Mulliken charges:
               1
     1  C   -0.179620
     2  C   -0.032546
     3  C   -0.032676
     4  C   -0.174918
     5  H    0.083211
     6  H    0.069650
     7  H    0.056054
     8  H    0.057173
     9  H    0.067476
    10  H    0.086194
 Sum of Mulliken charges =   0.00000

 Dipole moment (field-independent basis, Debye):
    X=             -0.0190    Y=             -0.0019    Z=              0.0528  Tot=              0.0561
 Quadrupole moment (field-independent basis, Debye-Ang):
   XX=            -23.6013   YY=            -23.0246   ZZ=            -29.3422
   XY=              0.1838   XZ=              0.0651   YZ=              0.0623

 1\1\GINC-NODE38\SP\RB2PLYPD3-FC\def2QZVP\C4H6\BOITTIER\26-Aug-2020\0\\
 #p B2PLYPD3/Def2QZVP\\butadiene\\0,1\C,0,-3.853412,0.22329,0.015461\C,
 0,-2.715585,-0.493298,0.038469\C,0,-1.374841,0.079046,0.031499\C,0,-0.
 260103,-0.664041,0.020693\H,0,-4.799592,-0.300757,0.059388\H,0,-3.8813
 68,1.303542,-0.125776\H,0,-2.777932,-1.565397,0.106475\H,0,-1.324322,1
 .160724,0.009823\H,0,-0.3205,-1.745241,-0.000689\H,0,0.731947,-0.19906
 7,0.030863\\Version=ES64L-G09RevD.01\State=1-A\HF=-155.700246\MP2=-155
 .9263069\RMSD=2.434e-09\PG=C01 [X(C4H6)]\\@

 Normal termination of Gaussian 09 at Wed Aug 26 21:34:04 2020.
