 Gaussian 09, Revision D.01,
 Gaussian 09:  ES64L-G09RevD.01 24-Apr-2013

 --------------------
 #p B2PLYPD3/Def2QZVP
 --------------------

 ---------
 butadiene
 ---------
 Symbolic Z-matrix:
 Charge =  0 Multiplicity = 1

                         Standard orientation:
 ---------------------------------------------------------------------
 Center     Atomic      Atomic             Coordinates (Angstroms)
 Number     Number       Type             X           Y           Z
 ---------------------------------------------------------------------
      1          6           0        1.844520    0.096136   -0.040877
      2          6           0        0.601778   -0.373050    0.038761
      3          6           0       -0.606991    0.403587    0.070641
      4          6           0       -1.837298   -0.124736   -0.034648
      5          1           0        2.757480   -0.528667   -0.043567
      6          1           0        1.989574    1.134726   -0.029237
      7          1           0        0.478377   -1.464501    0.024225
      8          1           0       -0.491128    1.516971   -0.018561
      9          1           0       -2.044415   -1.197097   -0.034138
     10          1           0       -2.701944    0.526951   -0.101985
 ---------------------------------------------------------------------

 SCF Done:  E(RB2PLYPD3) =  -155.696427715     A.U. after   11 cycles
 E2(B2PLYPD3) =    -0.2262226696D+00 E(B2PLYPD3) =    -0.15592265038427D+03

 The electronic state is 1-A.
 Alpha  occ. eigenvalues --  -10.63089 -10.62433 -10.62000 -10.61294  -0.93101
 Alpha  occ. eigenvalues --   -0.84901  -0.70376  -0.63658  -0.54462  -0.54020
 Alpha  occ. eigenvalues --   -0.46674  -0.45282  -0.40851  -0.38323  -0.27637
 Alpha virt. eigenvalues --    0.01449   0.06990   0.07360   0.07915   0.09715
 Alpha virt. eigenvalues --    0.11639   0.12446   0.14718   0.15721   0.16184
 Alpha virt. eigenvalues --    0.18851   0.20072   0.21809   0.22889   0.23632

 Mulliken charges:
               1
     1  C   -0.175302
     2  C   -0.018730
     3  C   -0.034736
     4  C   -0.172594
     5  H    0.086292
     6  H    0.061971
     7  H    0.048301
     8  H    0.050390
     9  H    0.070482
    10  H    0.083925
 Sum of Mulliken charges =   0.00000

 Dipole moment (field-independent basis, Debye):
    X=             -0.0545    Y=             -0.0064    Z=             -0.1046  Tot=              0.1181
 Quadrupole moment (field-independent basis, Debye-Ang):
   XX=            -23.2780   YY=            -23.2660   ZZ=            -29.2954
   XY=              0.1523   XZ=              0.2396   YZ=             -0.0977

 1\1\GINC-NODE40\SP\RB2PLYPD3-FC\def2QZVP\C4H6\BOITTIER\26-Aug-2020\0\\
 #p B2PLYPD3/Def2QZVP\\butadiene\\0,1\C,0,-3.849697,0.210526,0.060855\C
 ,0,-2.711035,-0.475236,-0.002895\C,0,-1.38286,0.071607,-0.049989\C,0,-
 0.266805,-0.66546,0.072558\H,0,-4.859704,-0.240625,0.075993\H,0,-3.806
 615,1.257689,0.022908\H,0,-2.784875,-1.570444,0.039188\H,0,-1.297563,1
 .18964,0.011114\H,0,-0.25488,-1.757244,0.099408\H,0,0.700557,-0.177469
 ,0.126593\\Version=ES64L-G09RevD.01\State=1-A\HF=-155.6964277\MP2=-155
 .9226504\RMSD=5.967e-09\PG=C01 [X(C4H6)]\\@

 Normal termination of Gaussian 09 at Wed Aug 26 08:41:27 2020.
