 Gaussian 09, Revision D.01,
 Gaussian 09:  ES64L-G09RevD.01 24-Apr-2013

 --------------------
 #p B2PLYPD3/Def2QZVP
 --------------------

 ---------
 butadiene
 ---------
 Symbolic Z-matrix:
 Charge =  0 Multiplicity = 1

                         Standard orientation:
 ---------------------------------------------------------------------
 Center     Atomic      Atomic             Coordinates (Angstroms)
 Number     Number       Type             X           Y           Z
 ---------------------------------------------------------------------
      1          6           0        1.828214    0.083922    0.027951
      2          6           0        0.598040   -0.392569   -0.051775
      3          6           0       -0.606735    0.427271   -0.026784
      4          6           0       -1.831292   -0.124385    0.006142
      5          1           0        2.737042   -0.492866    0.095816
      6          1           0        1.962888    1.190977    0.043072
      7          1           0        0.429754   -1.428596   -0.026155
      8          1           0       -0.445009    1.470416   -0.056793
      9          1           0       -1.909837   -1.197333    0.073663
     10          1           0       -2.704202    0.491971    0.137190
 ---------------------------------------------------------------------

 SCF Done:  E(RB2PLYPD3) =  -155.697408381     A.U. after   11 cycles
 E2(B2PLYPD3) =    -0.2255268565D+00 E(B2PLYPD3) =    -0.15592293523703D+03

 The electronic state is 1-A.
 Alpha  occ. eigenvalues --  -10.62364 -10.61879 -10.61564 -10.61540  -0.93266
 Alpha  occ. eigenvalues --   -0.84920  -0.70036  -0.64858  -0.54907  -0.53736
 Alpha  occ. eigenvalues --   -0.47138  -0.45483  -0.41184  -0.38169  -0.27737
 Alpha virt. eigenvalues --    0.01844   0.07033   0.07442   0.08243   0.09435
 Alpha virt. eigenvalues --    0.11729   0.12640   0.14555   0.15728   0.16286
 Alpha virt. eigenvalues --    0.18686   0.20229   0.21802   0.23330   0.23761

 Mulliken charges:
               1
     1  C   -0.171676
     2  C   -0.025584
     3  C   -0.034294
     4  C   -0.175821
     5  H    0.087602
     6  H    0.051396
     7  H    0.056026
     8  H    0.060175
     9  H    0.066224
    10  H    0.085952
 Sum of Mulliken charges =   0.00000

 Dipole moment (field-independent basis, Debye):
    X=              0.0221    Y=             -0.0041    Z=              0.1957  Tot=              0.1970
 Quadrupole moment (field-independent basis, Debye-Ang):
   XX=            -23.5686   YY=            -23.1748   ZZ=            -29.1679
   XY=              0.0272   XZ=             -0.1619   YZ=             -0.0710

 1\1\GINC-NODE25\SP\RB2PLYPD3-FC\def2QZVP\C4H6\BOITTIER\26-Aug-2020\0\\
 #p B2PLYPD3/Def2QZVP\\butadiene\\0,1\C,0,-3.836055,0.200449,-0.010805\
 C,0,-2.71281,-0.490077,0.079877\C,0,-1.379098,0.096159,0.037655\C,0,-0
 .275441,-0.669658,0.017344\H,0,-4.83487,-0.202687,-0.066557\H,0,-3.767
 157,1.312945,-0.050072\H,0,-2.735878,-1.539738,0.076885\H,0,-1.34827,1
 .151718,0.044884\H,0,-0.393613,-1.740188,-0.026781\H,0,0.694563,-0.225
 361,-0.126648\\Version=ES64L-G09RevD.01\State=1-A\HF=-155.6974084\MP2=
 -155.9229352\RMSD=6.023e-09\PG=C01 [X(C4H6)]\\@

 Normal termination of Gaussian 09 at Wed Aug 26 09:21:35 2020.
