 Gaussian 09, Revision D.01,
 Gaussian 09:  ES64L-G09RevD.01 24-Apr-2013

 --------------------
 #p B2PLYPD3/Def2QZVP
 --------------------

 ---------
 butadiene
 ---------
 Symbolic Z-matrix:
 Charge =  0 Multiplicity = 1

                         Standard orientation:
 ---------------------------------------------------------------------
 Center     Atomic      Atomic             Coordinates (Angstroms)
 Number     Number       Type             X           Y           Z
 ---------------------------------------------------------------------
      1          6           0        1.804214   -0.159663   -0.021072
      2          6           0        0.580238    0.430455    0.009200
      3          6           0       -0.576708   -0.322436   -0.075906
      4          6           0       -1.813759    0.057244    0.032341
      5          1           0        2.735569    0.555296    0.191311
      6          1           0        1.971014   -1.242028    0.048690
      7          1           0        0.544383    1.483354   -0.040182
      8          1           0       -0.470127   -1.428649    0.038647
      9          1           0       -2.007958    1.131482   -0.049657
     10          1           0       -2.736791   -0.533059    0.143816
 ---------------------------------------------------------------------

 SCF Done:  E(RB2PLYPD3) =  -155.676635759     A.U. after   12 cycles
 E2(B2PLYPD3) =    -0.2272445825D+00 E(B2PLYPD3) =    -0.15590388034202D+03

 The electronic state is 1-A.
 Alpha  occ. eigenvalues --  -10.63242 -10.62346 -10.61641 -10.61274  -0.94399
 Alpha  occ. eigenvalues --   -0.84896  -0.70039  -0.64177  -0.54547  -0.54258
 Alpha  occ. eigenvalues --   -0.46746  -0.43578  -0.40412  -0.39230  -0.27498
 Alpha virt. eigenvalues --    0.01108   0.06893   0.07396   0.07636   0.09841
 Alpha virt. eigenvalues --    0.11602   0.12306   0.14676   0.15337   0.16473
 Alpha virt. eigenvalues --    0.18719   0.19387   0.21752   0.22734   0.23705

 Mulliken charges:
               1
     1  C   -0.164065
     2  C   -0.042034
     3  C   -0.001969
     4  C   -0.168075
     5  H    0.062931
     6  H    0.075273
     7  H    0.066415
     8  H    0.040297
     9  H    0.044715
    10  H    0.086513
 Sum of Mulliken charges =   0.00000

 Dipole moment (field-independent basis, Debye):
    X=             -0.0957    Y=              0.0109    Z=              0.2388  Tot=              0.2574
 Quadrupole moment (field-independent basis, Debye-Ang):
   XX=            -23.7594   YY=            -23.3586   ZZ=            -29.1495
   XY=              0.0436   XZ=              0.1972   YZ=             -0.2352

 1\1\GINC-NODE29\SP\RB2PLYPD3-FC\def2QZVP\C4H6\BOITTIER\26-Aug-2020\0\\
 #p B2PLYPD3/Def2QZVP\\butadiene\\0,1\C,0,-3.797592,0.268508,0.010746\C
 ,0,-2.700598,-0.533231,0.0438\C,0,-1.426653,-0.00276,-0.047176\C,0,-0.
 278551,-0.599423,0.062475\H,0,-4.84255,-0.264704,0.228557\H,0,-3.76557
 ,1.363598,0.073629\H,0,-2.856026,-1.575512,0.001217\H,0,-1.331,1.10516
 2,0.060291\H,0,-0.28218,-1.691557,-0.01272\H,0,0.73631,-0.185282,0.169
 331\\Version=ES64L-G09RevD.01\State=1-A\HF=-155.6766358\MP2=-155.90388
 03\RMSD=5.272e-09\PG=C01 [X(C4H6)]\\@

 Normal termination of Gaussian 09 at Wed Aug 26 13:18:33 2020.
