 Gaussian 09, Revision D.01,
 Gaussian 09:  ES64L-G09RevD.01 24-Apr-2013

 --------------------
 #p B2PLYPD3/Def2QZVP
 --------------------

 ---------
 butadiene
 ---------
 Symbolic Z-matrix:
 Charge =  0 Multiplicity = 1

                         Standard orientation:
 ---------------------------------------------------------------------
 Center     Atomic      Atomic             Coordinates (Angstroms)
 Number     Number       Type             X           Y           Z
 ---------------------------------------------------------------------
      1          6           0        1.835268    0.084930    0.053590
      2          6           0        0.595465   -0.397386   -0.059450
      3          6           0       -0.582642    0.451027   -0.051874
      4          6           0       -1.809630   -0.137632    0.047577
      5          1           0        2.689239   -0.502875    0.079710
      6          1           0        1.868570    1.227356    0.225577
      7          1           0        0.451289   -1.495464   -0.365062
      8          1           0       -0.523970    1.486519   -0.204161
      9          1           0       -1.999493   -1.226551    0.365374
     10          1           0       -2.716406    0.505389   -0.040492
 ---------------------------------------------------------------------

 SCF Done:  E(RB2PLYPD3) =  -155.679571414     A.U. after   12 cycles
 E2(B2PLYPD3) =    -0.2277973281D+00 E(B2PLYPD3) =    -0.15590736874215D+03

 The electronic state is 1-A.
 Alpha  occ. eigenvalues --  -10.63035 -10.62923 -10.62749 -10.61666  -0.92839
 Alpha  occ. eigenvalues --   -0.84260  -0.69377  -0.63507  -0.54674  -0.53080
 Alpha  occ. eigenvalues --   -0.46683  -0.44097  -0.41396  -0.37208  -0.27447
 Alpha virt. eigenvalues --    0.01478   0.07106   0.07162   0.07521   0.08985
 Alpha virt. eigenvalues --    0.11557   0.12140   0.14493   0.15286   0.16348
 Alpha virt. eigenvalues --    0.18566   0.19496   0.21086   0.22346   0.23629

 Mulliken charges:
               1
     1  C   -0.180243
     2  C   -0.026891
     3  C   -0.051686
     4  C   -0.174386
     5  H    0.097316
     6  H    0.052267
     7  H    0.062155
     8  H    0.073474
     9  H    0.075158
    10  H    0.072837
 Sum of Mulliken charges =   0.00000

 Dipole moment (field-independent basis, Debye):
    X=             -0.0239    Y=              0.0117    Z=             -0.0274  Tot=              0.0382
 Quadrupole moment (field-independent basis, Debye-Ang):
   XX=            -24.0449   YY=            -23.1870   ZZ=            -29.2348
   XY=             -0.1820   XZ=             -0.0408   YZ=             -0.1332

 1\1\GINC-NODE24\SP\RB2PLYPD3-FC\def2QZVP\C4H6\BOITTIER\26-Aug-2020\0\\
 #p B2PLYPD3/Def2QZVP\\butadiene\\0,1\C,0,-3.837874,0.198929,-0.032632\
 C,0,-2.70547,-0.496945,0.093612\C,0,-1.393327,0.123852,0.06732\C,0,-0.
 293404,-0.679318,-0.016336\H,0,-4.78418,-0.225093,-0.045827\H,0,-3.664
 435,1.324099,-0.231976\H,0,-2.76144,-1.595394,0.425631\H,0,-1.263215,1
 .156192,0.194683\H,0,-0.304653,-1.791867,-0.307704\H,0,0.715011,-0.209
 088,0.057539\\Version=ES64L-G09RevD.01\State=1-A\HF=-155.6795714\MP2=-
 155.9073687\RMSD=3.703e-09\PG=C01 [X(C4H6)]\\@

 Normal termination of Gaussian 09 at Wed Aug 26 14:42:50 2020.
