 Gaussian 09, Revision D.01,
 Gaussian 09:  ES64L-G09RevD.01 24-Apr-2013

 --------------------
 #p B2PLYPD3/Def2QZVP
 --------------------

 ---------
 butadiene
 ---------
 Symbolic Z-matrix:
 Charge =  0 Multiplicity = 1

                         Standard orientation:
 ---------------------------------------------------------------------
 Center     Atomic      Atomic             Coordinates (Angstroms)
 Number     Number       Type             X           Y           Z
 ---------------------------------------------------------------------
      1          6           0        1.835429   -0.118338    0.013973
      2          6           0        0.614630    0.407956   -0.026961
      3          6           0       -0.602684   -0.388776   -0.022429
      4          6           0       -1.845783    0.094561    0.019027
      5          1           0        2.728606    0.507369    0.047377
      6          1           0        1.987421   -1.194966    0.024205
      7          1           0        0.497956    1.501448    0.019854
      8          1           0       -0.448969   -1.441745   -0.033543
      9          1           0       -2.034261    1.178196   -0.023129
     10          1           0       -2.740305   -0.522724    0.063578
 ---------------------------------------------------------------------

 SCF Done:  E(RB2PLYPD3) =  -155.700277463     A.U. after   11 cycles
 E2(B2PLYPD3) =    -0.2257151894D+00 E(B2PLYPD3) =    -0.15592599265212D+03

 The electronic state is 1-A.
 Alpha  occ. eigenvalues --  -10.62663 -10.62362 -10.61775 -10.61672  -0.93010
 Alpha  occ. eigenvalues --   -0.84906  -0.70048  -0.64063  -0.54679  -0.53705
 Alpha  occ. eigenvalues --   -0.46980  -0.45234  -0.40907  -0.38183  -0.27791
 Alpha virt. eigenvalues --    0.01760   0.06987   0.07404   0.08046   0.09628
 Alpha virt. eigenvalues --    0.11636   0.12452   0.14604   0.15798   0.16233
 Alpha virt. eigenvalues --    0.18842   0.20397   0.21683   0.22840   0.23632

 Mulliken charges:
               1
     1  C   -0.173464
     2  C   -0.027448
     3  C   -0.033426
     4  C   -0.172212
     5  H    0.085391
     6  H    0.064623
     7  H    0.053251
     8  H    0.056725
     9  H    0.060914
    10  H    0.085647
 Sum of Mulliken charges =   0.00000

 Dipole moment (field-independent basis, Debye):
    X=              0.0266    Y=             -0.0167    Z=              0.0536  Tot=              0.0621
 Quadrupole moment (field-independent basis, Debye-Ang):
   XX=            -23.3121   YY=            -23.2177   ZZ=            -29.2786
   XY=             -0.1401   XZ=              0.0777   YZ=             -0.0025

 1\1\GINC-NODE24\SP\RB2PLYPD3-FC\def2QZVP\C4H6\BOITTIER\26-Aug-2020\0\\
 #p B2PLYPD3/Def2QZVP\\butadiene\\0,1\C,0,-3.83611,0.231161,0.034995\C,
 0,-2.729987,-0.507031,0.010994\C,0,-1.38927,0.05762,-0.00645\C,0,-0.25
 3149,-0.639943,0.050667\H,0,-4.827072,-0.222504,0.085716\H,0,-3.792042
 ,1.317405,0.013399\H,0,-2.811594,-1.601844,0.090066\H,0,-1.351238,1.12
 0289,-0.048689\H,0,-0.262717,-1.740567,0.040602\H,0,0.737943,-0.19253,
 0.078117\\Version=ES64L-G09RevD.01\State=1-A\HF=-155.7002775\MP2=-155.
 9259927\RMSD=3.150e-09\PG=C01 [X(C4H6)]\\@

 Normal termination of Gaussian 09 at Wed Aug 26 21:50:30 2020.
