 Gaussian 09, Revision D.01,
 Gaussian 09:  ES64L-G09RevD.01 24-Apr-2013

 --------------------
 #p B2PLYPD3/Def2QZVP
 --------------------

 ---------
 butadiene
 ---------
 Symbolic Z-matrix:
 Charge =  0 Multiplicity = 1

                         Standard orientation:
 ---------------------------------------------------------------------
 Center     Atomic      Atomic             Coordinates (Angstroms)
 Number     Number       Type             X           Y           Z
 ---------------------------------------------------------------------
      1          6           0       -1.833846   -0.092119    0.010868
      2          6           0       -0.580724    0.383199   -0.017958
      3          6           0        0.603860   -0.430527   -0.016568
      4          6           0        1.827203    0.116711   -0.015191
      5          1           0       -2.635519    0.581550    0.015917
      6          1           0       -2.135034   -1.147851    0.007631
      7          1           0       -0.473972    1.474177    0.062237
      8          1           0        0.427949   -1.472746    0.012114
      9          1           0        1.982009    1.201627    0.004920
     10          1           0        2.735607   -0.500338    0.130275
 ---------------------------------------------------------------------

 SCF Done:  E(RB2PLYPD3) =  -155.696292546     A.U. after   11 cycles
 E2(B2PLYPD3) =    -0.2260899329D+00 E(B2PLYPD3) =    -0.15592238247876D+03

 The electronic state is 1-A.
 Alpha  occ. eigenvalues --  -10.62498 -10.62332 -10.62070 -10.61227  -0.93199
 Alpha  occ. eigenvalues --   -0.84675  -0.70391  -0.64242  -0.54669  -0.53794
 Alpha  occ. eigenvalues --   -0.46794  -0.45242  -0.41263  -0.38221  -0.27445
 Alpha virt. eigenvalues --    0.01519   0.07005   0.07379   0.08081   0.09522
 Alpha virt. eigenvalues --    0.11631   0.12408   0.14878   0.15750   0.16243
 Alpha virt. eigenvalues --    0.18782   0.20058   0.22077   0.22567   0.24044

 Mulliken charges:
               1
     1  C   -0.182508
     2  C   -0.020892
     3  C   -0.040644
     4  C   -0.165075
     5  H    0.082064
     6  H    0.062925
     7  H    0.052628
     8  H    0.066149
     9  H    0.066615
    10  H    0.078737
 Sum of Mulliken charges =   0.00000

 Dipole moment (field-independent basis, Debye):
    X=             -0.0189    Y=             -0.0103    Z=              0.1859  Tot=              0.1871
 Quadrupole moment (field-independent basis, Debye-Ang):
   XX=            -23.5935   YY=            -23.0426   ZZ=            -29.2662
   XY=              0.3742   XZ=              0.3229   YZ=             -0.0066

 1\1\GINC-NODE01\SP\RB2PLYPD3-FC\def2QZVP\C4H6\BOITTIER\26-Aug-2020\0\\
 #p B2PLYPD3/Def2QZVP\\butadiene\\0,1\C,0,-3.839051,0.215939,0.00815\C,
 0,-2.69669,-0.484375,0.04871\C,0,-1.380934,0.093214,0.024879\C,0,-0.28
 1437,-0.672943,0.037178\H,0,-4.752511,-0.295868,0.021556\H,0,-3.937616
 ,1.309088,-0.016441\H,0,-2.796155,-1.577781,-0.002557\H,0,-1.359136,1.
 148842,-0.031348\H,0,-0.332223,-1.767822,0.045779\H,0,0.725439,-0.2406
 01,-0.125261\\Version=ES64L-G09RevD.01\State=1-A\HF=-155.6962925\MP2=-
 155.9223825\RMSD=5.788e-09\PG=C01 [X(C4H6)]\\@

 Normal termination of Gaussian 09 at Wed Aug 26 09:06:18 2020.
