 Gaussian 09, Revision D.01,
 Gaussian 09:  ES64L-G09RevD.01 24-Apr-2013

 --------------------
 #p B2PLYPD3/Def2QZVP
 --------------------

 ---------
 butadiene
 ---------
 Symbolic Z-matrix:
 Charge =  0 Multiplicity = 1

                         Standard orientation:
 ---------------------------------------------------------------------
 Center     Atomic      Atomic             Coordinates (Angstroms)
 Number     Number       Type             X           Y           Z
 ---------------------------------------------------------------------
      1          6           0        1.828213    0.138618    0.014825
      2          6           0        0.610148   -0.459500   -0.076233
      3          6           0       -0.594061    0.388103   -0.025974
      4          6           0       -1.847638   -0.082953    0.049681
      5          1           0        2.684788   -0.485619    0.041700
      6          1           0        1.829838    1.317952    0.326156
      7          1           0        0.582438   -1.502777   -0.038251
      8          1           0       -0.362675    1.436593   -0.231790
      9          1           0       -1.961548   -1.182164    0.199063
     10          1           0       -2.752819    0.510407   -0.070673
 ---------------------------------------------------------------------

 SCF Done:  E(RB2PLYPD3) =  -155.678034768     A.U. after   11 cycles
 E2(B2PLYPD3) =    -0.2278508034D+00 E(B2PLYPD3) =    -0.15590588557113D+03

 The electronic state is 1-A.
 Alpha  occ. eigenvalues --  -10.62949 -10.62916 -10.62632 -10.62022  -0.92635
 Alpha  occ. eigenvalues --   -0.84366  -0.69253  -0.64047  -0.54621  -0.52935
 Alpha  occ. eigenvalues --   -0.46184  -0.44500  -0.41463  -0.37504  -0.27482
 Alpha virt. eigenvalues --    0.01420   0.06828   0.07178   0.07919   0.08834
 Alpha virt. eigenvalues --    0.11684   0.12262   0.14205   0.15313   0.16416
 Alpha virt. eigenvalues --    0.18502   0.19729   0.20939   0.22603   0.23890

 Mulliken charges:
               1
     1  C   -0.169702
     2  C   -0.047553
     3  C   -0.024091
     4  C   -0.180738
     5  H    0.088239
     6  H    0.057757
     7  H    0.063617
     8  H    0.061674
     9  H    0.060555
    10  H    0.090243
 Sum of Mulliken charges =   0.00000

 Dipole moment (field-independent basis, Debye):
    X=             -0.0023    Y=             -0.1642    Z=              0.1258  Tot=              0.2069
 Quadrupole moment (field-independent basis, Debye-Ang):
   XX=            -24.0579   YY=            -23.1668   ZZ=            -29.3678
   XY=             -0.4040   XZ=              0.6647   YZ=             -0.1415

 1\1\GINC-NODE27\SP\RB2PLYPD3-FC\def2QZVP\C4H6\BOITTIER\26-Aug-2020\0\\
 #p B2PLYPD3/Def2QZVP\\butadiene\\0,1\C,0,-3.826279,0.246755,-0.008686\
 C,0,-2.733943,-0.555175,0.107198\C,0,-1.398256,0.063283,0.039917\C,0,-
 0.248237,-0.624897,-0.014295\H,0,-4.780103,-0.215991,-0.022808\H,0,-3.
 618053,1.397908,-0.354007\H,0,-2.891987,-1.587455,0.099586\H,0,-1.4398
 84,1.141817,0.213874\H,0,-0.331282,-1.730796,-0.131105\H,0,0.747844,-0
 .19839,0.094461\\Version=ES64L-G09RevD.01\State=1-A\HF=-155.6780348\MP
 2=-155.9058856\RMSD=9.370e-09\PG=C01 [X(C4H6)]\\@

 Normal termination of Gaussian 09 at Wed Aug 26 12:54:39 2020.
