 Gaussian 09, Revision D.01,
 Gaussian 09:  ES64L-G09RevD.01 24-Apr-2013

 --------------------
 #p B2PLYPD3/Def2QZVP
 --------------------

 ---------
 butadiene
 ---------
 Symbolic Z-matrix:
 Charge =  0 Multiplicity = 1

                         Standard orientation:
 ---------------------------------------------------------------------
 Center     Atomic      Atomic             Coordinates (Angstroms)
 Number     Number       Type             X           Y           Z
 ---------------------------------------------------------------------
      1          6           0       -1.863607    0.067454    0.068620
      2          6           0       -0.622374   -0.344155   -0.032497
      3          6           0        0.617624    0.446069   -0.035910
      4          6           0        1.849294   -0.156827    0.012292
      5          1           0       -2.685940   -0.671827    0.009954
      6          1           0       -2.015625    1.206116   -0.161563
      7          1           0       -0.397996   -1.396210    0.011069
      8          1           0        0.434703    1.464799   -0.029847
      9          1           0        2.024926   -1.176455   -0.134946
     10          1           0        2.754311    0.498333    0.230305
 ---------------------------------------------------------------------

 SCF Done:  E(RB2PLYPD3) =  -155.678383427     A.U. after   11 cycles
 E2(B2PLYPD3) =    -0.2271596566D+00 E(B2PLYPD3) =    -0.15590554308398D+03

 The electronic state is 1-A.
 Alpha  occ. eigenvalues --  -10.63019 -10.62778 -10.62231 -10.61980  -0.92882
 Alpha  occ. eigenvalues --   -0.84684  -0.70266  -0.64165  -0.54482  -0.52625
 Alpha  occ. eigenvalues --   -0.48053  -0.44911  -0.40239  -0.37730  -0.27750
 Alpha virt. eigenvalues --    0.01146   0.06832   0.07295   0.08089   0.09231
 Alpha virt. eigenvalues --    0.11772   0.12094   0.14685   0.15530   0.16069
 Alpha virt. eigenvalues --    0.18573   0.19435   0.21072   0.23454   0.23968

 Mulliken charges:
               1
     1  C   -0.171985
     2  C   -0.012200
     3  C   -0.049512
     4  C   -0.177577
     5  H    0.086652
     6  H    0.050455
     7  H    0.045006
     8  H    0.065976
     9  H    0.084945
    10  H    0.078241
 Sum of Mulliken charges =   0.00000

 Dipole moment (field-independent basis, Debye):
    X=              0.1898    Y=             -0.1108    Z=             -0.1478  Tot=              0.2649
 Quadrupole moment (field-independent basis, Debye-Ang):
   XX=            -24.0515   YY=            -23.2049   ZZ=            -29.3059
   XY=             -0.1280   XZ=              0.6997   YZ=              0.0611

 1\1\GINC-NODE21\SP\RB2PLYPD3-FC\def2QZVP\C4H6\BOITTIER\26-Aug-2020\0\\
 #p B2PLYPD3/Def2QZVP\\butadiene\\0,1\C,0,-3.87149,0.188202,0.075627\C,
 0,-2.724585,-0.443507,-0.000905\C,0,-1.362554,0.110031,-0.023936\C,0,-
 0.259627,-0.70239,0.055697\H,0,-4.813458,-0.392732,0.037917\H,0,-3.815
 784,1.326194,-0.197352\H,0,-2.693361,-1.516379,0.082957\H,0,-1.359041,
 1.144547,-0.056666\H,0,-0.270353,-1.741769,-0.052672\H,0,0.748391,-0.2
 13048,0.256357\\Version=ES64L-G09RevD.01\State=1-A\HF=-155.6783834\MP2
 =-155.9055431\RMSD=8.235e-09\PG=C01 [X(C4H6)]\\@

 Normal termination of Gaussian 09 at Wed Aug 26 16:06:11 2020.
