 Gaussian 09, Revision D.01,
 Gaussian 09:  ES64L-G09RevD.01 24-Apr-2013

 --------------------
 #p B2PLYPD3/Def2QZVP
 --------------------

 ---------
 butadiene
 ---------
 Symbolic Z-matrix:
 Charge =  0 Multiplicity = 1

                         Standard orientation:
 ---------------------------------------------------------------------
 Center     Atomic      Atomic             Coordinates (Angstroms)
 Number     Number       Type             X           Y           Z
 ---------------------------------------------------------------------
      1          6           0        1.845766   -0.097903   -0.087721
      2          6           0        0.588936    0.373505    0.022707
      3          6           0       -0.597996   -0.470220    0.038778
      4          6           0       -1.833866    0.134394   -0.032437
      5          1           0        2.615250    0.720093    0.194017
      6          1           0        2.024455   -1.157395   -0.152134
      7          1           0        0.414155    1.426716    0.229807
      8          1           0       -0.402620   -1.451568    0.312739
      9          1           0       -1.848485    1.197018   -0.154951
     10          1           0       -2.819790   -0.373525   -0.077440
 ---------------------------------------------------------------------

 SCF Done:  E(RB2PLYPD3) =  -155.679472237     A.U. after   12 cycles
 E2(B2PLYPD3) =    -0.2279859638D+00 E(B2PLYPD3) =    -0.15590745820085D+03

 The electronic state is 1-A.
 Alpha  occ. eigenvalues --  -10.62854 -10.62651 -10.62468 -10.62094  -0.92868
 Alpha  occ. eigenvalues --   -0.84037  -0.69957  -0.64606  -0.53994  -0.53220
 Alpha  occ. eigenvalues --   -0.46592  -0.45969  -0.41203  -0.36936  -0.27344
 Alpha virt. eigenvalues --    0.01014   0.06974   0.07396   0.07736   0.08928
 Alpha virt. eigenvalues --    0.11762   0.12299   0.14574   0.15232   0.16043
 Alpha virt. eigenvalues --    0.18472   0.19582   0.21453   0.22510   0.24008

 Mulliken charges:
               1
     1  C   -0.190676
     2  C   -0.014917
     3  C   -0.050367
     4  C   -0.173042
     5  H    0.076825
     6  H    0.073027
     7  H    0.056742
     8  H    0.071834
     9  H    0.066422
    10  H    0.084153
 Sum of Mulliken charges =   0.00000

 Dipole moment (field-independent basis, Debye):
    X=             -0.2325    Y=             -0.0195    Z=              0.3641  Tot=              0.4324
 Quadrupole moment (field-independent basis, Debye-Ang):
   XX=            -24.3849   YY=            -23.1038   ZZ=            -29.2871
   XY=             -0.3923   XZ=              0.7495   YZ=              0.1088

 1\1\GINC-NODE23\SP\RB2PLYPD3-FC\def2QZVP\C4H6\BOITTIER\26-Aug-2020\0\\
 #p B2PLYPD3/Def2QZVP\\butadiene\\0,1\C,0,-3.850386,0.211358,-0.049697\
 C,0,-2.700128,-0.479236,0.068744\C,0,-1.378724,0.132879,0.056713\C,0,-
 0.275084,-0.689592,-0.002645\H,0,-4.754026,-0.444059,0.257652\H,0,-3.8
 3271,1.283569,-0.142721\H,0,-2.719214,-1.540776,0.304241\H,0,-1.388714
 ,1.140322,0.304161\H,0,-0.456305,-1.739776,-0.095735\H,0,0.786704,-0.3
 72272,-0.065624\\Version=ES64L-G09RevD.01\State=1-A\HF=-155.6794722\MP
 2=-155.9074582\RMSD=3.851e-09\PG=C01 [X(C4H6)]\\@

 Normal termination of Gaussian 09 at Wed Aug 26 11:53:31 2020.
