 Gaussian 09, Revision D.01,
 Gaussian 09:  ES64L-G09RevD.01 24-Apr-2013

 --------------------
 #p B2PLYPD3/Def2QZVP
 --------------------

 ---------
 butadiene
 ---------
 Symbolic Z-matrix:
 Charge =  0 Multiplicity = 1

                         Standard orientation:
 ---------------------------------------------------------------------
 Center     Atomic      Atomic             Coordinates (Angstroms)
 Number     Number       Type             X           Y           Z
 ---------------------------------------------------------------------
      1          6           0        1.836828    0.119451   -0.000568
      2          6           0        0.620955   -0.408617    0.001593
      3          6           0       -0.610652    0.398502   -0.012867
      4          6           0       -1.847501   -0.111593   -0.012896
      5          1           0        2.721904   -0.525601    0.036089
      6          1           0        1.959424    1.206928   -0.040348
      7          1           0        0.517084   -1.481429    0.017799
      8          1           0       -0.463575    1.472845    0.064044
      9          1           0       -2.006343   -1.185714    0.006512
     10          1           0       -2.726280    0.526506    0.064333
 ---------------------------------------------------------------------

 SCF Done:  E(RB2PLYPD3) =  -155.700313973     A.U. after   11 cycles
 E2(B2PLYPD3) =    -0.2257036022D+00 E(B2PLYPD3) =    -0.15592601757557D+03

 The electronic state is 1-A.
 Alpha  occ. eigenvalues --  -10.62744 -10.62399 -10.61664 -10.61644  -0.92786
 Alpha  occ. eigenvalues --   -0.84984  -0.69625  -0.64040  -0.54324  -0.53849
 Alpha  occ. eigenvalues --   -0.46686  -0.45550  -0.40968  -0.37958  -0.27894
 Alpha virt. eigenvalues --    0.01942   0.06996   0.07392   0.08021   0.09484
 Alpha virt. eigenvalues --    0.11704   0.12376   0.14573   0.15772   0.16111
 Alpha virt. eigenvalues --    0.18787   0.20418   0.21376   0.22942   0.23930

 Mulliken charges:
               1
     1  C   -0.173859
     2  C   -0.030444
     3  C   -0.034403
     4  C   -0.175062
     5  H    0.086244
     6  H    0.065357
     7  H    0.055379
     8  H    0.055083
     9  H    0.066152
    10  H    0.085553
 Sum of Mulliken charges =   0.00000

 Dipole moment (field-independent basis, Debye):
    X=              0.0194    Y=             -0.0237    Z=              0.1269  Tot=              0.1306
 Quadrupole moment (field-independent basis, Debye-Ang):
   XX=            -23.6059   YY=            -23.0520   ZZ=            -29.3085
   XY=              0.0289   XZ=             -0.2209   YZ=              0.0236

 1\1\GINC-NODE35\SP\RB2PLYPD3-FC\def2QZVP\C4H6\BOITTIER\26-Aug-2020\0\\
 #p B2PLYPD3/Def2QZVP\\butadiene\\0,1\C,0,-3.839176,0.226004,0.018423\C
 ,0,-2.735207,-0.507654,0.032749\C,0,-1.380748,0.070131,0.022179\C,0,-0
 .252956,-0.649469,0.038136\H,0,-4.824121,-0.253999,0.001787\H,0,-3.768
 313,1.318781,0.024368\H,0,-2.821795,-1.581985,0.049909\H,0,-1.336926,1
 .150722,-0.088103\H,0,-0.285679,-1.734861,0.05214\H,0,0.72395,-0.17868
 6,-0.058843\\Version=ES64L-G09RevD.01\State=1-A\HF=-155.700314\MP2=-15
 5.9260176\RMSD=4.173e-09\PG=C01 [X(C4H6)]\\@

 Normal termination of Gaussian 09 at Wed Aug 26 14:29:51 2020.
