 Gaussian 09, Revision D.01,
 Gaussian 09:  ES64L-G09RevD.01 24-Apr-2013

 --------------------
 #p B2PLYPD3/Def2QZVP
 --------------------

 ---------
 butadiene
 ---------
 Symbolic Z-matrix:
 Charge =  0 Multiplicity = 1

                         Standard orientation:
 ---------------------------------------------------------------------
 Center     Atomic      Atomic             Coordinates (Angstroms)
 Number     Number       Type             X           Y           Z
 ---------------------------------------------------------------------
      1          6           0       -1.865466   -0.098585   -0.071511
      2          6           0       -0.596885    0.354672    0.051423
      3          6           0        0.627072   -0.423465    0.090605
      4          6           0        1.868802    0.123835   -0.093133
      5          1           0       -2.573808    0.688596   -0.007694
      6          1           0       -2.255531   -1.097137   -0.149537
      7          1           0       -0.381769    1.437066    0.234370
      8          1           0        0.483052   -1.487600    0.183905
      9          1           0        1.849283    1.198063   -0.080082
     10          1           0        2.677635   -0.477730   -0.045271
 ---------------------------------------------------------------------

 SCF Done:  E(RB2PLYPD3) =  -155.684291557     A.U. after   12 cycles
 E2(B2PLYPD3) =    -0.2270663720D+00 E(B2PLYPD3) =    -0.15591135792913D+03

 The electronic state is 1-A.
 Alpha  occ. eigenvalues --  -10.63191 -10.62671 -10.61644 -10.61297  -0.92621
 Alpha  occ. eigenvalues --   -0.84794  -0.71282  -0.63688  -0.55797  -0.53022
 Alpha  occ. eigenvalues --   -0.47902  -0.45664  -0.41053  -0.37138  -0.27421
 Alpha virt. eigenvalues --    0.00952   0.07010   0.07453   0.08090   0.09616
 Alpha virt. eigenvalues --    0.11499   0.12401   0.15053   0.15547   0.16103
 Alpha virt. eigenvalues --    0.18953   0.20129   0.21353   0.21872   0.24358

 Mulliken charges:
               1
     1  C   -0.187573
     2  C   -0.021787
     3  C   -0.042493
     4  C   -0.174594
     5  H    0.080632
     6  H    0.080970
     7  H    0.046965
     8  H    0.053571
     9  H    0.066835
    10  H    0.097474
 Sum of Mulliken charges =   0.00000

 Dipole moment (field-independent basis, Debye):
    X=             -0.0238    Y=             -0.0996    Z=              0.1967  Tot=              0.2218
 Quadrupole moment (field-independent basis, Debye-Ang):
   XX=            -23.6372   YY=            -23.1297   ZZ=            -29.3032
   XY=              0.3175   XZ=              0.0854   YZ=              0.1966

 1\1\GINC-NODE27\SP\RB2PLYPD3-FC\def2QZVP\C4H6\BOITTIER\26-Aug-2020\0\\
 #p B2PLYPD3/Def2QZVP\\butadiene\\0,1\C,0,-3.87229,0.221894,0.089594\C,
 0,-2.708854,-0.459287,-0.021138\C,0,-1.363203,0.079979,-0.080463\C,0,-
 0.241988,-0.680774,0.117833\H,0,-4.713197,-0.423455,0.046302\H,0,-4.07
 2363,1.276712,0.141313\H,0,-2.696613,-1.567132,-0.175578\H,0,-1.310171
 ,1.14971,-0.20168\H,0,-0.458127,-1.733187,0.132966\H,0,0.663172,-0.239
 141,0.054376\\Version=ES64L-G09RevD.01\State=1-A\HF=-155.6842916\MP2=-
 155.9113579\RMSD=3.244e-09\PG=C01 [X(C4H6)]\\@

 Normal termination of Gaussian 09 at Wed Aug 26 14:26:35 2020.
