 Gaussian 09, Revision D.01,
 Gaussian 09:  ES64L-G09RevD.01 24-Apr-2013

 --------------------
 #p B2PLYPD3/Def2QZVP
 --------------------

 ---------
 butadiene
 ---------
 Symbolic Z-matrix:
 Charge =  0 Multiplicity = 1

                         Standard orientation:
 ---------------------------------------------------------------------
 Center     Atomic      Atomic             Coordinates (Angstroms)
 Number     Number       Type             X           Y           Z
 ---------------------------------------------------------------------
      1          6           0       -1.847247   -0.112100   -0.005680
      2          6           0       -0.610860    0.420890   -0.003120
      3          6           0        0.587087   -0.383846   -0.008428
      4          6           0        1.847764    0.088359   -0.023202
      5          1           0       -2.759399    0.452602    0.002904
      6          1           0       -1.945863   -1.185334   -0.003487
      7          1           0       -0.420766    1.503067    0.115887
      8          1           0        0.474900   -1.460251    0.047849
      9          1           0        2.088635    1.153394   -0.041057
     10          1           0        2.702023   -0.543302    0.120484
 ---------------------------------------------------------------------

 SCF Done:  E(RB2PLYPD3) =  -155.697760530     A.U. after   11 cycles
 E2(B2PLYPD3) =    -0.2263754342D+00 E(B2PLYPD3) =    -0.15592413596470D+03

 The electronic state is 1-A.
 Alpha  occ. eigenvalues --  -10.63028 -10.62611 -10.61785 -10.61622  -0.92937
 Alpha  occ. eigenvalues --   -0.84632  -0.70597  -0.63987  -0.54959  -0.53557
 Alpha  occ. eigenvalues --   -0.46948  -0.45400  -0.41237  -0.37966  -0.27457
 Alpha virt. eigenvalues --    0.01283   0.07048   0.07371   0.08071   0.09513
 Alpha virt. eigenvalues --    0.11598   0.12580   0.14673   0.15687   0.16376
 Alpha virt. eigenvalues --    0.18876   0.20106   0.21981   0.22514   0.23859

 Mulliken charges:
               1
     1  C   -0.171860
     2  C   -0.033884
     3  C   -0.024186
     4  C   -0.175853
     5  H    0.089772
     6  H    0.064739
     7  H    0.056335
     8  H    0.053018
     9  H    0.058627
    10  H    0.083292
 Sum of Mulliken charges =   0.00000

 Dipole moment (field-independent basis, Debye):
    X=             -0.0447    Y=             -0.0117    Z=              0.2123  Tot=              0.2173
 Quadrupole moment (field-independent basis, Debye-Ang):
   XX=            -23.2083   YY=            -23.3142   ZZ=            -29.3057
   XY=              0.2592   XZ=              0.2633   YZ=             -0.0417

 1\1\GINC-NODE24\SP\RB2PLYPD3-FC\def2QZVP\C4H6\BOITTIER\26-Aug-2020\0\\
 #p B2PLYPD3/Def2QZVP\\butadiene\\0,1\C,0,-3.844276,0.235553,0.022139\C
 ,0,-2.726901,-0.515477,0.035004\C,0,-1.401477,0.055159,0.016855\C,0,-0
 .248964,-0.640117,0.045279\H,0,-4.844689,-0.151867,0.030021\H,0,-3.744
 028,1.308119,-0.011241\H,0,-2.739527,-1.617107,-0.05251\H,0,-1.314278,
 1.131791,-0.070678\H,0,-0.20779,-1.730329,0.094068\H,0,0.706024,-0.180
 613,-0.116752\\Version=ES64L-G09RevD.01\State=1-A\HF=-155.6977605\MP2=
 -155.924136\RMSD=5.029e-09\PG=C01 [X(C4H6)]\\@

 Normal termination of Gaussian 09 at Wed Aug 26 10:08:46 2020.
