 Gaussian 09, Revision D.01,
 Gaussian 09:  ES64L-G09RevD.01 24-Apr-2013

 --------------------
 #p B2PLYPD3/Def2QZVP
 --------------------

 ---------
 butadiene
 ---------
 Symbolic Z-matrix:
 Charge =  0 Multiplicity = 1

                         Standard orientation:
 ---------------------------------------------------------------------
 Center     Atomic      Atomic             Coordinates (Angstroms)
 Number     Number       Type             X           Y           Z
 ---------------------------------------------------------------------
      1          6           0       -1.841659    0.069481   -0.090772
      2          6           0       -0.619325   -0.364132    0.030569
      3          6           0        0.596179    0.478628    0.040243
      4          6           0        1.833567   -0.160238   -0.035345
      5          1           0       -2.650583   -0.530549    0.175041
      6          1           0       -1.861717    1.180574   -0.148692
      7          1           0       -0.440105   -1.480503    0.265096
      8          1           0        0.524856    1.536667    0.272384
      9          1           0        1.862949   -1.275910   -0.174103
     10          1           0        2.752029    0.427289   -0.057899
 ---------------------------------------------------------------------

 SCF Done:  E(RB2PLYPD3) =  -155.678454155     A.U. after   12 cycles
 E2(B2PLYPD3) =    -0.2278429674D+00 E(B2PLYPD3) =    -0.15590629712224D+03

 The electronic state is 1-A.
 Alpha  occ. eigenvalues --  -10.63800 -10.63163 -10.62782 -10.60576  -0.92640
 Alpha  occ. eigenvalues --   -0.84596  -0.69397  -0.63080  -0.54805  -0.53241
 Alpha  occ. eigenvalues --   -0.46630  -0.44771  -0.41081  -0.37082  -0.27766
 Alpha virt. eigenvalues --    0.01354   0.06945   0.07217   0.07803   0.09091
 Alpha virt. eigenvalues --    0.11651   0.12371   0.14277   0.15348   0.16197
 Alpha virt. eigenvalues --    0.18657   0.19241   0.21121   0.22594   0.24163

 Mulliken charges:
               1
     1  C   -0.172478
     2  C   -0.002289
     3  C   -0.064218
     4  C   -0.176909
     5  H    0.092056
     6  H    0.051032
     7  H    0.042833
     8  H    0.068521
     9  H    0.072477
    10  H    0.088974
 Sum of Mulliken charges =   0.00000

 Dipole moment (field-independent basis, Debye):
    X=              0.1637    Y=              0.0375    Z=              0.3726  Tot=              0.4087
 Quadrupole moment (field-independent basis, Debye-Ang):
   XX=            -24.1363   YY=            -23.1762   ZZ=            -29.3196
   XY=              0.2412   XZ=             -0.8127   YZ=              0.0075

 1\1\GINC-NODE04\SP\RB2PLYPD3-FC\def2QZVP\C4H6\BOITTIER\26-Aug-2020\0\\
 #p B2PLYPD3/Def2QZVP\\butadiene\\0,1\C,0,-3.851014,0.172608,-0.052028\
 C,0,-2.722724,-0.466321,0.072777\C,0,-1.37832,0.150313,0.061564\C,0,-0
 .272595,-0.696865,-0.006659\H,0,-4.750621,-0.271385,0.228382\H,0,-3.67
 6495,1.268772,-0.131097\H,0,-2.740199,-1.592383,0.327895\H,0,-1.261473
 ,1.208501,0.273716\H,0,-0.440157,-1.802737,-0.124179\H,0,0.734417,-0.2
 79973,-0.044047\\Version=ES64L-G09RevD.01\State=1-A\HF=-155.6784542\MP
 2=-155.9062971\RMSD=4.572e-09\PG=C01 [X(C4H6)]\\@

 Normal termination of Gaussian 09 at Wed Aug 26 15:32:36 2020.
