 Gaussian 09, Revision D.01,
 Gaussian 09:  ES64L-G09RevD.01 24-Apr-2013

 --------------------
 #p B2PLYPD3/Def2QZVP
 --------------------

 ---------
 butadiene
 ---------
 Symbolic Z-matrix:
 Charge =  0 Multiplicity = 1

                         Standard orientation:
 ---------------------------------------------------------------------
 Center     Atomic      Atomic             Coordinates (Angstroms)
 Number     Number       Type             X           Y           Z
 ---------------------------------------------------------------------
      1          6           0       -1.838760    0.100160   -0.046531
      2          6           0       -0.621507   -0.362345    0.049537
      3          6           0        0.609851    0.397035    0.037079
      4          6           0        1.845941   -0.122746   -0.044193
      5          1           0       -2.724391   -0.565720   -0.119599
      6          1           0       -2.033509    1.159812    0.039183
      7          1           0       -0.511006   -1.441618    0.139617
      8          1           0        0.534030    1.466688    0.040658
      9          1           0        2.013859   -1.169975   -0.048104
     10          1           0        2.747864    0.478188   -0.027106
 ---------------------------------------------------------------------

 SCF Done:  E(RB2PLYPD3) =  -155.697339145     A.U. after   11 cycles
 E2(B2PLYPD3) =    -0.2252517585D+00 E(B2PLYPD3) =    -0.15592259090397D+03

 The electronic state is 1-A.
 Alpha  occ. eigenvalues --  -10.62556 -10.62092 -10.61500 -10.61400  -0.93244
 Alpha  occ. eigenvalues --   -0.85320  -0.70343  -0.64123  -0.54606  -0.54287
 Alpha  occ. eigenvalues --   -0.47121  -0.45396  -0.40976  -0.38026  -0.27921
 Alpha virt. eigenvalues --    0.01717   0.06936   0.07589   0.07939   0.09911
 Alpha virt. eigenvalues --    0.11622   0.12500   0.14683   0.15770   0.16422
 Alpha virt. eigenvalues --    0.18962   0.20087   0.21878   0.22477   0.23807

 Mulliken charges:
               1
     1  C   -0.171230
     2  C   -0.023767
     3  C   -0.037689
     4  C   -0.170711
     5  H    0.083016
     6  H    0.065167
     7  H    0.051490
     8  H    0.055826
     9  H    0.064477
    10  H    0.083421
 Sum of Mulliken charges =   0.00000

 Dipole moment (field-independent basis, Debye):
    X=              0.0126    Y=             -0.0086    Z=              0.0864  Tot=              0.0877
 Quadrupole moment (field-independent basis, Debye-Ang):
   XX=            -23.1660   YY=            -23.3310   ZZ=            -29.1276
   XY=             -0.0403   XZ=              0.0413   YZ=              0.0690

 1\1\GINC-NODE30\SP\RB2PLYPD3-FC\def2QZVP\C4H6\BOITTIER\26-Aug-2020\0\\
 #p B2PLYPD3/Def2QZVP\\butadiene\\0,1\C,0,-3.844735,0.203549,-0.026604\
 C,0,-2.727087,-0.46252,0.083207\C,0,-1.381771,0.06882,0.053895\C,0,-0.
 25608,-0.661357,-0.012107\H,0,-4.833517,-0.29848,-0.084521\H,0,-3.8506
 ,1.282739,0.032148\H,0,-2.807139,-1.541863,0.200535\H,0,-1.269013,1.13
 4962,0.030499\H,0,-0.274239,-1.721573,0.010558\H,0,0.737215,-0.227504,
 -0.008495\\Version=ES64L-G09RevD.01\State=1-A\HF=-155.6973391\MP2=-155
 .9225909\RMSD=6.949e-09\PG=C01 [X(C4H6)]\\@

 Normal termination of Gaussian 09 at Wed Aug 26 09:58:05 2020.
