 Gaussian 09, Revision D.01,
 Gaussian 09:  ES64L-G09RevD.01 24-Apr-2013

 --------------------
 #p B2PLYPD3/Def2QZVP
 --------------------

 ---------
 butadiene
 ---------
 Symbolic Z-matrix:
 Charge =  0 Multiplicity = 1

                         Standard orientation:
 ---------------------------------------------------------------------
 Center     Atomic      Atomic             Coordinates (Angstroms)
 Number     Number       Type             X           Y           Z
 ---------------------------------------------------------------------
      1          6           0       -1.845768    0.101624    0.007464
      2          6           0       -0.612863   -0.381919   -0.014980
      3          6           0        0.611868    0.414057   -0.009839
      4          6           0        1.837298   -0.126833   -0.009051
      5          1           0       -2.688357   -0.563706    0.012576
      6          1           0       -2.003473    1.183991   -0.008993
      7          1           0       -0.490154   -1.455966    0.059969
      8          1           0        0.521664    1.479636    0.024553
      9          1           0        2.007696   -1.179474   -0.007565
     10          1           0        2.709416    0.493946    0.077893
 ---------------------------------------------------------------------

 SCF Done:  E(RB2PLYPD3) =  -155.700577103     A.U. after   11 cycles
 E2(B2PLYPD3) =    -0.2253213322D+00 E(B2PLYPD3) =    -0.15592589843483D+03

 The electronic state is 1-A.
 Alpha  occ. eigenvalues --  -10.62515 -10.62261 -10.61325 -10.61309  -0.92950
 Alpha  occ. eigenvalues --   -0.85156  -0.70135  -0.64203  -0.54666  -0.54159
 Alpha  occ. eigenvalues --   -0.46802  -0.45651  -0.41218  -0.38030  -0.27805
 Alpha virt. eigenvalues --    0.01843   0.07023   0.07496   0.08064   0.09631
 Alpha virt. eigenvalues --    0.11709   0.12412   0.14740   0.15766   0.16261
 Alpha virt. eigenvalues --    0.18815   0.20248   0.21633   0.22966   0.24018

 Mulliken charges:
               1
     1  C   -0.178544
     2  C   -0.025740
     3  C   -0.038089
     4  C   -0.172964
     5  H    0.088981
     6  H    0.064783
     7  H    0.053264
     8  H    0.058163
     9  H    0.067981
    10  H    0.082163
 Sum of Mulliken charges =   0.00000

 Dipole moment (field-independent basis, Debye):
    X=              0.0376    Y=             -0.0145    Z=              0.1252  Tot=              0.1315
 Quadrupole moment (field-independent basis, Debye-Ang):
   XX=            -23.5284   YY=            -23.0316   ZZ=            -29.2125
   XY=             -0.0457   XZ=              0.1855   YZ=             -0.0067

 1\1\GINC-NODE24\SP\RB2PLYPD3-FC\def2QZVP\C4H6\BOITTIER\26-Aug-2020\0\\
 #p B2PLYPD3/Def2QZVP\\butadiene\\0,1\C,0,-3.849821,0.211429,0.026336\C
 ,0,-2.722081,-0.48324,0.023243\C,0,-1.375747,0.083059,0.007086\C,0,-0.
 265462,-0.665959,0.029009\H,0,-4.796893,-0.293693,0.049831\H,0,-3.8134
 12,1.303538,-0.024975\H,0,-2.791316,-1.559108,0.132638\H,0,-1.275754,1
 .14832,0.00735\H,0,-0.284151,-1.73155,0.064454\H,0,0.703008,-0.206961,
 0.099032\\Version=ES64L-G09RevD.01\State=1-A\HF=-155.7005771\MP2=-155.
 9258984\RMSD=5.452e-09\PG=C01 [X(C4H6)]\\@

 Normal termination of Gaussian 09 at Wed Aug 26 19:25:01 2020.
