 Gaussian 09, Revision D.01,
 Gaussian 09:  ES64L-G09RevD.01 24-Apr-2013

 --------------------
 #p B2PLYPD3/Def2QZVP
 --------------------

 ---------
 butadiene
 ---------
 Symbolic Z-matrix:
 Charge =  0 Multiplicity = 1

                         Standard orientation:
 ---------------------------------------------------------------------
 Center     Atomic      Atomic             Coordinates (Angstroms)
 Number     Number       Type             X           Y           Z
 ---------------------------------------------------------------------
      1          6           0        1.837202    0.093600    0.037541
      2          6           0        0.594602   -0.391187   -0.056120
      3          6           0       -0.591040    0.436157   -0.016643
      4          6           0       -1.833078   -0.115220    0.010655
      5          1           0        2.634883   -0.587290   -0.024768
      6          1           0        2.035781    1.169264    0.119903
      7          1           0        0.398882   -1.445201   -0.056140
      8          1           0       -0.457045    1.487811   -0.076166
      9          1           0       -1.889775   -1.194952    0.186961
     10          1           0       -2.768840    0.430267   -0.002391
 ---------------------------------------------------------------------

 SCF Done:  E(RB2PLYPD3) =  -155.696186590     A.U. after   11 cycles
 E2(B2PLYPD3) =    -0.2263261175D+00 E(B2PLYPD3) =    -0.15592251270734D+03

 The electronic state is 1-A.
 Alpha  occ. eigenvalues --  -10.62524 -10.62276 -10.61985 -10.61328  -0.93083
 Alpha  occ. eigenvalues --   -0.84539  -0.70282  -0.64548  -0.54702  -0.53774
 Alpha  occ. eigenvalues --   -0.46596  -0.45705  -0.41726  -0.37925  -0.27308
 Alpha virt. eigenvalues --    0.01412   0.07065   0.07401   0.08183   0.09313
 Alpha virt. eigenvalues --    0.11706   0.12478   0.14704   0.15819   0.16258
 Alpha virt. eigenvalues --    0.18722   0.20194   0.21632   0.22827   0.23872

 Mulliken charges:
               1
     1  C   -0.180721
     2  C   -0.029504
     3  C   -0.031570
     4  C   -0.178495
     5  H    0.088026
     6  H    0.069463
     7  H    0.056930
     8  H    0.060707
     9  H    0.058831
    10  H    0.086333
 Sum of Mulliken charges =   0.00000

 Dipole moment (field-independent basis, Debye):
    X=             -0.0043    Y=              0.0239    Z=              0.0841  Tot=              0.0875
 Quadrupole moment (field-independent basis, Debye-Ang):
   XX=            -23.6465   YY=            -23.0912   ZZ=            -29.2679
   XY=              0.1261   XZ=             -0.1217   YZ=             -0.1102

 1\1\GINC-NODE27\SP\RB2PLYPD3-FC\def2QZVP\C4H6\BOITTIER\26-Aug-2020\0\\
 #p B2PLYPD3/Def2QZVP\\butadiene\\0,1\C,0,-3.839977,0.21382,-0.017855\C
 ,0,-2.70823,-0.490671,0.085519\C,0,-1.390133,0.102223,0.031661\C,0,-0.
 271586,-0.66979,0.015318\H,0,-4.749658,-0.306521,0.056404\H,0,-3.83640
 2,1.305978,-0.120076\H,0,-2.710836,-1.562522,0.105013\H,0,-1.327141,1.
 161419,0.071785\H,0,-0.416055,-1.744397,-0.141106\H,0,0.748955,-0.3066
 66,0.018979\\Version=ES64L-G09RevD.01\State=1-A\HF=-155.6961866\MP2=-1
 55.9225127\RMSD=6.455e-09\PG=C01 [X(C4H6)]\\@

 Normal termination of Gaussian 09 at Wed Aug 26 09:59:07 2020.
