 Gaussian 09, Revision D.01,
 Gaussian 09:  ES64L-G09RevD.01 24-Apr-2013

 --------------------
 #p B2PLYPD3/Def2QZVP
 --------------------

 ---------
 butadiene
 ---------
 Symbolic Z-matrix:
 Charge =  0 Multiplicity = 1

                         Standard orientation:
 ---------------------------------------------------------------------
 Center     Atomic      Atomic             Coordinates (Angstroms)
 Number     Number       Type             X           Y           Z
 ---------------------------------------------------------------------
      1          6           0       -1.839483   -0.113532   -0.018415
      2          6           0       -0.601596    0.398649    0.014267
      3          6           0        0.608391   -0.385331    0.042836
      4          6           0        1.840807    0.102833   -0.034503
      5          1           0       -2.695550    0.504769   -0.060658
      6          1           0       -1.992235   -1.178065   -0.012497
      7          1           0       -0.512252    1.482670    0.052990
      8          1           0        0.452453   -1.466129    0.027004
      9          1           0        1.991380    1.176309    0.019557
     10          1           0        2.707489   -0.535273   -0.051507
 ---------------------------------------------------------------------

 SCF Done:  E(RB2PLYPD3) =  -155.700429951     A.U. after   11 cycles
 E2(B2PLYPD3) =    -0.2255598877D+00 E(B2PLYPD3) =    -0.15592598983824D+03

 The electronic state is 1-A.
 Alpha  occ. eigenvalues --  -10.62485 -10.62381 -10.61421 -10.61236  -0.93170
 Alpha  occ. eigenvalues --   -0.85095  -0.70485  -0.63954  -0.54857  -0.54116
 Alpha  occ. eigenvalues --   -0.46833  -0.45624  -0.41203  -0.38228  -0.27676
 Alpha virt. eigenvalues --    0.01633   0.07043   0.07442   0.08071   0.09754
 Alpha virt. eigenvalues --    0.11689   0.12487   0.14749   0.15775   0.16293
 Alpha virt. eigenvalues --    0.18801   0.20270   0.21691   0.22892   0.23919

 Mulliken charges:
               1
     1  C   -0.179784
     2  C   -0.024840
     3  C   -0.028160
     4  C   -0.173629
     5  H    0.088692
     6  H    0.063903
     7  H    0.050084
     8  H    0.050321
     9  H    0.065407
    10  H    0.088006
 Sum of Mulliken charges =   0.00000

 Dipole moment (field-independent basis, Debye):
    X=             -0.0160    Y=              0.0007    Z=              0.0183  Tot=              0.0243
 Quadrupole moment (field-independent basis, Debye-Ang):
   XX=            -23.3769   YY=            -23.1726   ZZ=            -29.2085
   XY=              0.0178   XZ=              0.0627   YZ=              0.0848

 1\1\GINC-NODE40\SP\RB2PLYPD3-FC\def2QZVP\C4H6\BOITTIER\26-Aug-2020\0\\
 #p B2PLYPD3/Def2QZVP\\butadiene\\0,1\C,0,-3.842148,0.227618,0.038982\C
 ,0,-2.716438,-0.499115,0.01901\C,0,-1.385441,0.054027,-0.025596\C,0,-0
 .260482,-0.645684,0.063888\H,0,-4.795191,-0.22583,0.093976\H,0,-3.8013
 ,1.301886,0.009313\H,0,-2.823292,-1.582144,0.004411\H,0,-1.344744,1.14
 5341,-0.033884\H,0,-0.305253,-1.729674,0.033789\H,0,0.706732,-0.173361
 ,0.067699\\Version=ES64L-G09RevD.01\State=1-A\HF=-155.70043\MP2=-155.9
 259898\RMSD=4.963e-09\PG=C01 [X(C4H6)]\\@

 Normal termination of Gaussian 09 at Wed Aug 26 21:40:52 2020.
