 Gaussian 09, Revision D.01,
 Gaussian 09:  ES64L-G09RevD.01 24-Apr-2013

 --------------------
 #p B2PLYPD3/Def2QZVP
 --------------------

 ---------
 butadiene
 ---------
 Symbolic Z-matrix:
 Charge =  0 Multiplicity = 1

                         Standard orientation:
 ---------------------------------------------------------------------
 Center     Atomic      Atomic             Coordinates (Angstroms)
 Number     Number       Type             X           Y           Z
 ---------------------------------------------------------------------
      1          6           0       -1.816937   -0.113387    0.025623
      2          6           0       -0.592415    0.431505   -0.033142
      3          6           0        0.588763   -0.385647   -0.023167
      4          6           0        1.823079    0.097434    0.014269
      5          1           0       -2.731837    0.421378    0.035450
      6          1           0       -1.993829   -1.173881   -0.035901
      7          1           0       -0.427303    1.513295   -0.002475
      8          1           0        0.463905   -1.459670    0.056632
      9          1           0        2.054052    1.117161    0.056794
     10          1           0        2.620072   -0.597723   -0.011996
 ---------------------------------------------------------------------

 SCF Done:  E(RB2PLYPD3) =  -155.697149089     A.U. after   11 cycles
 E2(B2PLYPD3) =    -0.2253581575D+00 E(B2PLYPD3) =    -0.15592250724636D+03

 The electronic state is 1-A.
 Alpha  occ. eigenvalues --  -10.62685 -10.61994 -10.61333 -10.60504  -0.93366
 Alpha  occ. eigenvalues --   -0.85015  -0.70770  -0.64369  -0.55159  -0.54215
 Alpha  occ. eigenvalues --   -0.46652  -0.45787  -0.41412  -0.38262  -0.27489
 Alpha virt. eigenvalues --    0.01718   0.07073   0.07426   0.08158   0.09533
 Alpha virt. eigenvalues --    0.11720   0.12625   0.14957   0.15795   0.16261
 Alpha virt. eigenvalues --    0.18753   0.20350   0.22246   0.22758   0.24084

 Mulliken charges:
               1
     1  C   -0.168441
     2  C   -0.037374
     3  C   -0.016668
     4  C   -0.184667
     5  H    0.079870
     6  H    0.061878
     7  H    0.057854
     8  H    0.056175
     9  H    0.069041
    10  H    0.082332
 Sum of Mulliken charges =   0.00000

 Dipole moment (field-independent basis, Debye):
    X=             -0.0426    Y=             -0.0063    Z=              0.0484  Tot=              0.0648
 Quadrupole moment (field-independent basis, Debye-Ang):
   XX=            -23.4294   YY=            -23.0573   ZZ=            -29.1258
   XY=              0.4203   XZ=              0.0790   YZ=              0.0736

 1\1\GINC-NODE02\SP\RB2PLYPD3-FC\def2QZVP\C4H6\BOITTIER\26-Aug-2020\0\\
 #p B2PLYPD3/Def2QZVP\\butadiene\\0,1\C,0,-3.815518,0.238374,-0.007949\
 C,0,-2.714287,-0.524154,0.067269\C,0,-1.401166,0.056998,0.035741\C,0,-
 0.279157,-0.649321,0.013082\H,0,-4.814327,-0.115849,-0.003813\H,0,-3.7
 90673,1.314524,0.02379\H,0,-2.754558,-1.61816,0.066957\H,0,-1.323268,1
 .132799,-0.074112\H,0,-0.243171,-1.695033,-0.000746\H,0,0.633897,-0.11
 5087,0.020781\\Version=ES64L-G09RevD.01\State=1-A\HF=-155.6971491\MP2=
 -155.9225072\RMSD=5.305e-09\PG=C01 [X(C4H6)]\\@

 Normal termination of Gaussian 09 at Wed Aug 26 10:56:20 2020.
