 Gaussian 09, Revision D.01,
 Gaussian 09:  ES64L-G09RevD.01 24-Apr-2013

 --------------------
 #p B2PLYPD3/Def2QZVP
 --------------------

 ---------
 butadiene
 ---------
 Symbolic Z-matrix:
 Charge =  0 Multiplicity = 1

                         Standard orientation:
 ---------------------------------------------------------------------
 Center     Atomic      Atomic             Coordinates (Angstroms)
 Number     Number       Type             X           Y           Z
 ---------------------------------------------------------------------
      1          6           0        1.832447    0.108250    0.011726
      2          6           0        0.600733   -0.397103   -0.018961
      3          6           0       -0.607921    0.407299   -0.018015
      4          6           0       -1.833538   -0.121752    0.019314
      5          1           0        2.736959   -0.515921    0.044449
      6          1           0        1.954553    1.173078    0.027457
      7          1           0        0.472870   -1.469773   -0.008789
      8          1           0       -0.483777    1.500038   -0.061397
      9          1           0       -1.955843   -1.193720   -0.033381
     10          1           0       -2.675095    0.526135    0.067278
 ---------------------------------------------------------------------

 SCF Done:  E(RB2PLYPD3) =  -155.700178636     A.U. after   11 cycles
 E2(B2PLYPD3) =    -0.2256584834D+00 E(B2PLYPD3) =    -0.15592583711991D+03

 The electronic state is 1-A.
 Alpha  occ. eigenvalues --  -10.62608 -10.62308 -10.61454 -10.61270  -0.93100
 Alpha  occ. eigenvalues --   -0.85018  -0.69979  -0.64054  -0.54568  -0.54068
 Alpha  occ. eigenvalues --   -0.46450  -0.45769  -0.41355  -0.38127  -0.27665
 Alpha virt. eigenvalues --    0.01839   0.07035   0.07376   0.08055   0.09581
 Alpha virt. eigenvalues --    0.11737   0.12459   0.14661   0.15786   0.16165
 Alpha virt. eigenvalues --    0.18690   0.20444   0.21517   0.23007   0.24047

 Mulliken charges:
               1
     1  C   -0.176489
     2  C   -0.025739
     3  C   -0.029441
     4  C   -0.181473
     5  H    0.086077
     6  H    0.063958
     7  H    0.052771
     8  H    0.050783
     9  H    0.069974
    10  H    0.089578
 Sum of Mulliken charges =   0.00000

 Dipole moment (field-independent basis, Debye):
    X=             -0.0104    Y=              0.0054    Z=              0.0064  Tot=              0.0133
 Quadrupole moment (field-independent basis, Debye-Ang):
   XX=            -23.6477   YY=            -23.0340   ZZ=            -29.2521
   XY=             -0.0172   XZ=              0.0855   YZ=              0.0284

 1\1\GINC-NODE10\SP\RB2PLYPD3-FC\def2QZVP\C4H6\BOITTIER\26-Aug-2020\0\\
 #p B2PLYPD3/Def2QZVP\\butadiene\\0,1\C,0,-3.837032,0.217872,0.004616\C
 ,0,-2.714884,-0.497576,0.053205\C,0,-1.382338,0.078422,0.031877\C,0,-0
 .270591,-0.661235,0.013155\H,0,-4.838299,-0.235981,-0.012192\H,0,-3.76
 7658,1.286508,-0.042508\H,0,-2.780058,-1.575706,0.074681\H,0,-1.309843
 ,1.176599,0.04302\H,0,-0.340941,-1.735851,0.097436\H,0,0.672734,-0.175
 202,-0.051544\\Version=ES64L-G09RevD.01\State=1-A\HF=-155.7001786\MP2=
 -155.9258371\RMSD=4.666e-09\PG=C01 [X(C4H6)]\\@

 Normal termination of Gaussian 09 at Wed Aug 26 19:49:40 2020.
