 Gaussian 09, Revision D.01,
 Gaussian 09:  ES64L-G09RevD.01 24-Apr-2013

 --------------------
 #p B2PLYPD3/Def2QZVP
 --------------------

 ---------
 butadiene
 ---------
 Symbolic Z-matrix:
 Charge =  0 Multiplicity = 1

                         Standard orientation:
 ---------------------------------------------------------------------
 Center     Atomic      Atomic             Coordinates (Angstroms)
 Number     Number       Type             X           Y           Z
 ---------------------------------------------------------------------
      1          6           0       -1.822023   -0.121047   -0.041156
      2          6           0       -0.600694    0.406300    0.043208
      3          6           0        0.608375   -0.386294    0.021519
      4          6           0        1.839607    0.094066   -0.019087
      5          1           0       -2.763642    0.498173   -0.087573
      6          1           0       -2.023202   -1.180909    0.021744
      7          1           0       -0.513192    1.477757    0.122578
      8          1           0        0.479656   -1.449083    0.065327
      9          1           0        1.931999    1.181281   -0.098438
     10          1           0        2.736792   -0.485374   -0.050550
 ---------------------------------------------------------------------

 SCF Done:  E(RB2PLYPD3) =  -155.697333333     A.U. after   11 cycles
 E2(B2PLYPD3) =    -0.2255627632D+00 E(B2PLYPD3) =    -0.15592289609607D+03

 The electronic state is 1-A.
 Alpha  occ. eigenvalues --  -10.62541 -10.62104 -10.62005 -10.61235  -0.93312
 Alpha  occ. eigenvalues --   -0.85053  -0.69993  -0.64338  -0.55049  -0.53677
 Alpha  occ. eigenvalues --   -0.47278  -0.44700  -0.41155  -0.38179  -0.27808
 Alpha virt. eigenvalues --    0.01805   0.06984   0.07491   0.07994   0.09660
 Alpha virt. eigenvalues --    0.11610   0.12600   0.14495   0.15880   0.16328
 Alpha virt. eigenvalues --    0.18823   0.20514   0.21623   0.22544   0.23686

 Mulliken charges:
               1
     1  C   -0.168051
     2  C   -0.036481
     3  C   -0.024036
     4  C   -0.173481
     5  H    0.074615
     6  H    0.066561
     7  H    0.059725
     8  H    0.054360
     9  H    0.055928
    10  H    0.090860
 Sum of Mulliken charges =   0.00000

 Dipole moment (field-independent basis, Debye):
    X=             -0.0311    Y=             -0.0431    Z=              0.0249  Tot=              0.0587
 Quadrupole moment (field-independent basis, Debye-Ang):
   XX=            -23.2707   YY=            -23.3124   ZZ=            -29.1794
   XY=              0.0164   XZ=             -0.1554   YZ=             -0.0973

 1\1\GINC-NODE34\SP\RB2PLYPD3-FC\def2QZVP\C4H6\BOITTIER\26-Aug-2020\0\\
 #p B2PLYPD3/Def2QZVP\\butadiene\\0,1\C,0,-3.826278,0.229063,0.055815\C
 ,0,-2.718508,-0.509752,-0.00628\C,0,-1.387657,0.055364,-0.008026\C,0,-
 0.261417,-0.634683,0.053183\H,0,-4.862902,-0.210776,0.120513\H,0,-3.83
 5866,1.30499,-0.044321\H,0,-2.823262,-1.581776,-0.048299\H,0,-1.325365
 ,1.121938,-0.088945\H,0,-0.363698,-1.717586,0.170349\H,0,0.724633,-0.2
 23367,0.067548\\Version=ES64L-G09RevD.01\State=1-A\HF=-155.6973333\MP2
 =-155.9228961\RMSD=5.361e-09\PG=C01 [X(C4H6)]\\@

 Normal termination of Gaussian 09 at Wed Aug 26 09:08:02 2020.
