 Gaussian 09, Revision D.01,
 Gaussian 09:  ES64L-G09RevD.01 24-Apr-2013

 --------------------
 #p B2PLYPD3/Def2QZVP
 --------------------

 ---------
 butadiene
 ---------
 Symbolic Z-matrix:
 Charge =  0 Multiplicity = 1

                         Standard orientation:
 ---------------------------------------------------------------------
 Center     Atomic      Atomic             Coordinates (Angstroms)
 Number     Number       Type             X           Y           Z
 ---------------------------------------------------------------------
      1          6           0        1.847764    0.120284    0.030044
      2          6           0        0.610980   -0.414508   -0.038982
      3          6           0       -0.594790    0.361936   -0.035418
      4          6           0       -1.835055   -0.095928    0.010672
      5          1           0        2.726658   -0.482077    0.162945
      6          1           0        1.955528    1.213060   -0.039722
      7          1           0        0.487334   -1.481839   -0.098683
      8          1           0       -0.516497    1.466068   -0.037459
      9          1           0       -2.142745   -1.149781    0.074129
     10          1           0       -2.683676    0.603866    0.140890
 ---------------------------------------------------------------------

 SCF Done:  E(RB2PLYPD3) =  -155.696136149     A.U. after   11 cycles
 E2(B2PLYPD3) =    -0.2262326048D+00 E(B2PLYPD3) =    -0.15592236875383D+03

 The electronic state is 1-A.
 Alpha  occ. eigenvalues --  -10.62645 -10.62471 -10.61988 -10.61733  -0.93170
 Alpha  occ. eigenvalues --   -0.84866  -0.70291  -0.63740  -0.54873  -0.53571
 Alpha  occ. eigenvalues --   -0.46657  -0.45241  -0.40999  -0.38153  -0.27583
 Alpha virt. eigenvalues --    0.01435   0.06918   0.07427   0.07923   0.09749
 Alpha virt. eigenvalues --    0.11554   0.12380   0.14717   0.15842   0.16120
 Alpha virt. eigenvalues --    0.18870   0.20522   0.21444   0.22200   0.24038

 Mulliken charges:
               1
     1  C   -0.174951
     2  C   -0.042098
     3  C   -0.017220
     4  C   -0.169648
     5  H    0.090630
     6  H    0.067103
     7  H    0.061022
     8  H    0.048307
     9  H    0.061922
    10  H    0.074933
 Sum of Mulliken charges =   0.00000

 Dipole moment (field-independent basis, Debye):
    X=              0.0282    Y=             -0.0381    Z=              0.1311  Tot=              0.1394
 Quadrupole moment (field-independent basis, Debye-Ang):
   XX=            -23.4657   YY=            -23.2188   ZZ=            -29.2501
   XY=              0.1037   XZ=             -0.1717   YZ=             -0.0651

 1\1\GINC-NODE40\SP\RB2PLYPD3-FC\def2QZVP\C4H6\BOITTIER\26-Aug-2020\0\\
 #p B2PLYPD3/Def2QZVP\\butadiene\\0,1\C,0,-3.844172,0.237617,-0.012532\
 C,0,-2.72364,-0.509071,0.072718\C,0,-1.397731,0.036801,0.045364\C,0,-0
 .260554,-0.638339,0.013202\H,0,-4.817951,-0.200135,-0.126917\H,0,-3.75
 2861,1.333509,0.023831\H,0,-2.794023,-1.578922,0.164984\H,0,-1.275763,
 1.136511,0.013685\H,0,-0.148165,-1.731819,-0.018056\H,0,0.699541,-0.10
 724,-0.138383\\Version=ES64L-G09RevD.01\State=1-A\HF=-155.6961361\MP2=
 -155.9223688\RMSD=6.074e-09\PG=C01 [X(C4H6)]\\@

 Normal termination of Gaussian 09 at Wed Aug 26 09:23:07 2020.
