 Gaussian 09, Revision D.01,
 Gaussian 09:  ES64L-G09RevD.01 24-Apr-2013

 --------------------
 #p B2PLYPD3/Def2QZVP
 --------------------

 ---------
 butadiene
 ---------
 Symbolic Z-matrix:
 Charge =  0 Multiplicity = 1

                         Standard orientation:
 ---------------------------------------------------------------------
 Center     Atomic      Atomic             Coordinates (Angstroms)
 Number     Number       Type             X           Y           Z
 ---------------------------------------------------------------------
      1          6           0        1.841095    0.060937    0.004765
      2          6           0        0.578565   -0.391240   -0.030907
      3          6           0       -0.615253    0.480949   -0.091702
      4          6           0       -1.807815   -0.141947    0.060517
      5          1           0        2.760080   -0.435348    0.266715
      6          1           0        2.011528    1.136564    0.144262
      7          1           0        0.422718   -1.495632   -0.206570
      8          1           0       -0.474918    1.522073   -0.095860
      9          1           0       -1.957382   -1.207390    0.042615
     10          1           0       -2.741575    0.427534    0.192802
 ---------------------------------------------------------------------

 SCF Done:  E(RB2PLYPD3) =  -155.684866180     A.U. after   11 cycles
 E2(B2PLYPD3) =    -0.2272615047D+00 E(B2PLYPD3) =    -0.15591212768485D+03

 The electronic state is 1-A.
 Alpha  occ. eigenvalues --  -10.63456 -10.63193 -10.62298 -10.61309  -0.92635
 Alpha  occ. eigenvalues --   -0.84371  -0.69936  -0.64635  -0.54888  -0.52947
 Alpha  occ. eigenvalues --   -0.47620  -0.44297  -0.40872  -0.37492  -0.27542
 Alpha virt. eigenvalues --    0.01550   0.07028   0.07290   0.07923   0.08664
 Alpha virt. eigenvalues --    0.11451   0.12797   0.14257   0.15429   0.16769
 Alpha virt. eigenvalues --    0.18829   0.19509   0.22015   0.22747   0.24050

 Mulliken charges:
               1
     1  C   -0.167215
     2  C   -0.025262
     3  C   -0.053239
     4  C   -0.159730
     5  H    0.078592
     6  H    0.039156
     7  H    0.060801
     8  H    0.079036
     9  H    0.074661
    10  H    0.073200
 Sum of Mulliken charges =   0.00000

 Dipole moment (field-independent basis, Debye):
    X=             -0.2057    Y=              0.0279    Z=              0.2342  Tot=              0.3129
 Quadrupole moment (field-independent basis, Debye-Ang):
   XX=            -23.5738   YY=            -23.2617   ZZ=            -29.2423
   XY=              0.4697   XZ=              0.3951   YZ=              0.2049

 1\1\GINC-NODE21\SP\RB2PLYPD3-FC\def2QZVP\C4H6\BOITTIER\26-Aug-2020\0\\
 #p B2PLYPD3/Def2QZVP\\butadiene\\0,1\C,0,-3.851573,0.183485,0.000668\C
 ,0,-2.694128,-0.492053,0.061387\C,0,-1.35979,0.146679,0.095652\C,0,-0.
 30284,-0.690952,-0.025205\H,0,-4.846672,-0.144634,-0.247457\H,0,-3.820
 754,1.265808,-0.181288\H,0,-2.744548,-1.598522,0.280505\H,0,-1.305584,
 1.195178,0.058755\H,0,-0.352434,-1.764175,0.03473\H,0,0.719813,-0.3090
 77,-0.173751\\Version=ES64L-G09RevD.01\State=1-A\HF=-155.6848662\MP2=-
 155.9121277\RMSD=7.170e-09\PG=C01 [X(C4H6)]\\@

 Normal termination of Gaussian 09 at Wed Aug 26 15:16:58 2020.
