 Gaussian 09, Revision D.01,
 Gaussian 09:  ES64L-G09RevD.01 24-Apr-2013

 --------------------
 #p B2PLYPD3/Def2QZVP
 --------------------

 ---------
 butadiene
 ---------
 Symbolic Z-matrix:
 Charge =  0 Multiplicity = 1

                         Standard orientation:
 ---------------------------------------------------------------------
 Center     Atomic      Atomic             Coordinates (Angstroms)
 Number     Number       Type             X           Y           Z
 ---------------------------------------------------------------------
      1          6           0       -1.828824    0.093406    0.080302
      2          6           0       -0.567588   -0.342249   -0.040969
      3          6           0        0.611544    0.426433   -0.105337
      4          6           0        1.809539   -0.146630    0.053272
      5          1           0       -2.568588   -0.589072    0.138210
      6          1           0       -2.102695    1.073548   -0.053448
      7          1           0       -0.616471   -1.460993   -0.212667
      8          1           0        0.489843    1.543787   -0.047547
      9          1           0        1.882793   -1.196186    0.013949
     10          1           0        2.767088    0.443156    0.237897
 ---------------------------------------------------------------------

 SCF Done:  E(RB2PLYPD3) =  -155.677727140     A.U. after   12 cycles
 E2(B2PLYPD3) =    -0.2265745706D+00 E(B2PLYPD3) =    -0.15590430171083D+03

 The electronic state is 1-A.
 Alpha  occ. eigenvalues --  -10.62945 -10.62481 -10.62184 -10.59686  -0.93655
 Alpha  occ. eigenvalues --   -0.85304  -0.70918  -0.63643  -0.55108  -0.54405
 Alpha  occ. eigenvalues --   -0.46913  -0.44776  -0.41911  -0.37902  -0.27203
 Alpha virt. eigenvalues --    0.01301   0.07067   0.07213   0.07919   0.09539
 Alpha virt. eigenvalues --    0.11626   0.12540   0.14815   0.15374   0.16702
 Alpha virt. eigenvalues --    0.18612   0.19756   0.21278   0.23276   0.24705

 Mulliken charges:
               1
     1  C   -0.187757
     2  C   -0.011292
     3  C   -0.038975
     4  C   -0.161522
     5  H    0.080519
     6  H    0.062738
     7  H    0.041237
     8  H    0.058083
     9  H    0.075913
    10  H    0.081058
 Sum of Mulliken charges =   0.00000

 Dipole moment (field-independent basis, Debye):
    X=              0.0861    Y=             -0.0123    Z=             -0.0518  Tot=              0.1013
 Quadrupole moment (field-independent basis, Debye-Ang):
   XX=            -23.5377   YY=            -23.2243   ZZ=            -29.0658
   XY=              0.0642   XZ=              0.6801   YZ=              0.1680

 1\1\GINC-NODE04\SP\RB2PLYPD3-FC\def2QZVP\C4H6\BOITTIER\26-Aug-2020\0\\
 #p B2PLYPD3/Def2QZVP\\butadiene\\0,1\C,0,-3.839505,0.200209,0.090957\C
 ,0,-2.675107,-0.45486,-0.010431\C,0,-1.378303,0.090991,-0.086024\C,0,-
 0.301154,-0.680747,0.095412\H,0,-4.688605,-0.338778,0.160975\H,0,-3.93
 5095,1.209512,-0.069493\H,0,-2.920992,-1.551385,-0.154064\H,0,-1.30027
 9,1.213366,-0.057415\H,0,-0.414892,-1.727359,0.083207\H,0,0.745288,-0.
 265161,0.271712\\Version=ES64L-G09RevD.01\State=1-A\HF=-155.6777271\MP
 2=-155.9043017\RMSD=5.717e-09\PG=C01 [X(C4H6)]\\@

 Normal termination of Gaussian 09 at Wed Aug 26 14:42:29 2020.
