 Gaussian 09, Revision D.01,
 Gaussian 09:  ES64L-G09RevD.01 24-Apr-2013

 --------------------
 #p B2PLYPD3/Def2QZVP
 --------------------

 ---------
 butadiene
 ---------
 Symbolic Z-matrix:
 Charge =  0 Multiplicity = 1

                         Standard orientation:
 ---------------------------------------------------------------------
 Center     Atomic      Atomic             Coordinates (Angstroms)
 Number     Number       Type             X           Y           Z
 ---------------------------------------------------------------------
      1          6           0        1.824783   -0.126081   -0.028544
      2          6           0        0.596762    0.441638    0.007331
      3          6           0       -0.598577   -0.396963    0.050472
      4          6           0       -1.825140    0.095479   -0.051539
      5          1           0        2.783801    0.438563    0.025920
      6          1           0        1.946386   -1.193793   -0.108737
      7          1           0        0.462664    1.545077    0.127291
      8          1           0       -0.456253   -1.460760    0.113615
      9          1           0       -2.040053    1.109918   -0.046495
     10          1           0       -2.683518   -0.523444    0.022087
 ---------------------------------------------------------------------

 SCF Done:  E(RB2PLYPD3) =  -155.695151874     A.U. after   11 cycles
 E2(B2PLYPD3) =    -0.2259737638D+00 E(B2PLYPD3) =    -0.15592112563819D+03

 The electronic state is 1-A.
 Alpha  occ. eigenvalues --  -10.63293 -10.62347 -10.62098 -10.60466  -0.92915
 Alpha  occ. eigenvalues --   -0.84715  -0.70139  -0.64370  -0.54598  -0.53915
 Alpha  occ. eigenvalues --   -0.46687  -0.45577  -0.41216  -0.37874  -0.27593
 Alpha virt. eigenvalues --    0.01756   0.07063   0.07370   0.08003   0.09266
 Alpha virt. eigenvalues --    0.11628   0.12647   0.14717   0.15766   0.16402
 Alpha virt. eigenvalues --    0.18764   0.20147   0.22091   0.22788   0.23716

 Mulliken charges:
               1
     1  C   -0.174450
     2  C   -0.035711
     3  C   -0.031035
     4  C   -0.167726
     5  H    0.080236
     6  H    0.066014
     7  H    0.061055
     8  H    0.060643
     9  H    0.064400
    10  H    0.076572
 Sum of Mulliken charges =   0.00000

 Dipole moment (field-independent basis, Debye):
    X=             -0.0058    Y=             -0.0133    Z=              0.1621  Tot=              0.1628
 Quadrupole moment (field-independent basis, Debye-Ang):
   XX=            -23.4243   YY=            -23.0972   ZZ=            -29.2522
   XY=             -0.4023   XZ=             -0.0769   YZ=              0.1268

 1\1\GINC-NODE21\SP\RB2PLYPD3-FC\def2QZVP\C4H6\BOITTIER\26-Aug-2020\0\\
 #p B2PLYPD3/Def2QZVP\\butadiene\\0,1\C,0,-3.823339,0.241576,-0.010614\
 C,0,-2.719195,-0.538557,0.051717\C,0,-1.390849,0.069142,0.063908\C,0,-
 0.275074,-0.642367,-0.014604\H,0,-4.868932,-0.136104,0.064199\H,0,-3.7
 48695,1.309419,-0.134583\H,0,-2.787876,-1.642162,0.21691\H,0,-1.336611
 ,1.142729,0.083258\H,0,-0.24862,-1.677931,0.032362\H,0,0.682067,-0.187
 82,0.03608\\Version=ES64L-G09RevD.01\State=1-A\HF=-155.6951519\MP2=-15
 5.9211256\RMSD=7.074e-09\PG=C01 [X(C4H6)]\\@

 Normal termination of Gaussian 09 at Wed Aug 26 10:24:52 2020.
