 Gaussian 09, Revision D.01,
 Gaussian 09:  ES64L-G09RevD.01 24-Apr-2013

 --------------------
 #p B2PLYPD3/Def2QZVP
 --------------------

 ---------
 butadiene
 ---------
 Symbolic Z-matrix:
 Charge =  0 Multiplicity = 1

                         Standard orientation:
 ---------------------------------------------------------------------
 Center     Atomic      Atomic             Coordinates (Angstroms)
 Number     Number       Type             X           Y           Z
 ---------------------------------------------------------------------
      1          6           0       -1.836936    0.106640   -0.006509
      2          6           0       -0.599165   -0.402653    0.019292
      3          6           0        0.606621    0.410263    0.012892
      4          6           0        1.836519   -0.112579   -0.024592
      5          1           0       -2.702219   -0.541605   -0.018632
      6          1           0       -2.041244    1.164806   -0.050894
      7          1           0       -0.429036   -1.446938    0.046088
      8          1           0        0.451343    1.487931    0.003892
      9          1           0        1.941491   -1.184119   -0.062491
     10          1           0        2.737431    0.509896    0.075536
 ---------------------------------------------------------------------

 SCF Done:  E(RB2PLYPD3) =  -155.699837392     A.U. after   11 cycles
 E2(B2PLYPD3) =    -0.2257811198D+00 E(B2PLYPD3) =    -0.15592561851190D+03

 The electronic state is 1-A.
 Alpha  occ. eigenvalues --  -10.62490 -10.62310 -10.61659 -10.61545  -0.93047
 Alpha  occ. eigenvalues --   -0.84769  -0.70135  -0.64447  -0.54492  -0.53847
 Alpha  occ. eigenvalues --   -0.46854  -0.45764  -0.41193  -0.38047  -0.27604
 Alpha virt. eigenvalues --    0.01678   0.06997   0.07431   0.08125   0.09499
 Alpha virt. eigenvalues --    0.11740   0.12456   0.14745   0.15754   0.16135
 Alpha virt. eigenvalues --    0.18749   0.20321   0.21738   0.22965   0.23843

 Mulliken charges:
               1
     1  C   -0.176683
     2  C   -0.034814
     3  C   -0.026138
     4  C   -0.177716
     5  H    0.082784
     6  H    0.068241
     7  H    0.058682
     8  H    0.054761
     9  H    0.063739
    10  H    0.087145
 Sum of Mulliken charges =   0.00000

 Dipole moment (field-independent basis, Debye):
    X=             -0.0230    Y=             -0.0002    Z=              0.0160  Tot=              0.0280
 Quadrupole moment (field-independent basis, Debye-Ang):
   XX=            -23.5607   YY=            -23.0927   ZZ=            -29.2683
   XY=             -0.2332   XZ=              0.2704   YZ=              0.0264

 1\1\GINC-NODE02\SP\RB2PLYPD3-FC\def2QZVP\C4H6\BOITTIER\26-Aug-2020\0\\
 #p B2PLYPD3/Def2QZVP\\butadiene\\0,1\C,0,-3.839808,0.223835,0.008065\C
 ,0,-2.715355,-0.501196,0.053427\C,0,-1.381776,0.078229,0.028366\C,0,-0
 .267616,-0.660525,0.010828\H,0,-4.808628,-0.256229,0.011211\H,0,-3.848
 196,1.299767,-0.067606\H,0,-2.738073,-1.557777,0.110982\H,0,-1.338356,
 1.165437,-0.012305\H,0,-0.359451,-1.73392,0.004243\H,0,0.731667,-0.209
 715,0.096534\\Version=ES64L-G09RevD.01\State=1-A\HF=-155.6998374\MP2=-
 155.9256185\RMSD=3.392e-09\PG=C01 [X(C4H6)]\\@

 Normal termination of Gaussian 09 at Wed Aug 26 21:16:45 2020.
