 Gaussian 09, Revision D.01,
 Gaussian 09:  ES64L-G09RevD.01 24-Apr-2013

 --------------------
 #p B2PLYPD3/Def2QZVP
 --------------------

 ---------
 butadiene
 ---------
 Symbolic Z-matrix:
 Charge =  0 Multiplicity = 1

                         Standard orientation:
 ---------------------------------------------------------------------
 Center     Atomic      Atomic             Coordinates (Angstroms)
 Number     Number       Type             X           Y           Z
 ---------------------------------------------------------------------
      1          6           0        1.858622   -0.123498    0.026679
      2          6           0        0.611699    0.421646   -0.005357
      3          6           0       -0.616908   -0.376429   -0.022972
      4          6           0       -1.858560    0.105198    0.012971
      5          1           0        2.749768    0.475896   -0.080058
      6          1           0        1.948961   -1.198226    0.058260
      7          1           0        0.498733    1.473447   -0.071241
      8          1           0       -0.410890   -1.425088   -0.030370
      9          1           0       -2.077805    1.146674    0.099973
     10          1           0       -2.677887   -0.634201   -0.044486
 ---------------------------------------------------------------------

 SCF Done:  E(RB2PLYPD3) =  -155.697366868     A.U. after   11 cycles
 E2(B2PLYPD3) =    -0.2261055941D+00 E(B2PLYPD3) =    -0.15592347246232D+03

 The electronic state is 1-A.
 Alpha  occ. eigenvalues --  -10.62626 -10.62396 -10.61899 -10.61677  -0.92703
 Alpha  occ. eigenvalues --   -0.84705  -0.70251  -0.64538  -0.54385  -0.53814
 Alpha  occ. eigenvalues --   -0.46972  -0.46009  -0.41116  -0.37726  -0.27576
 Alpha virt. eigenvalues --    0.01427   0.06939   0.07540   0.08123   0.09492
 Alpha virt. eigenvalues --    0.11733   0.12310   0.14781   0.15756   0.16021
 Alpha virt. eigenvalues --    0.18819   0.20465   0.21324   0.22929   0.23933

 Mulliken charges:
               1
     1  C   -0.180354
     2  C   -0.036484
     3  C   -0.030081
     4  C   -0.180602
     5  H    0.089225
     6  H    0.063335
     7  H    0.058178
     8  H    0.055819
     9  H    0.076653
    10  H    0.084313
 Sum of Mulliken charges =   0.00000

 Dipole moment (field-independent basis, Debye):
    X=              0.0163    Y=              0.0240    Z=             -0.0770  Tot=              0.0823
 Quadrupole moment (field-independent basis, Debye-Ang):
   XX=            -23.6271   YY=            -23.0566   ZZ=            -29.3258
   XY=             -0.1996   XZ=             -0.2803   YZ=             -0.0201

 1\1\GINC-NODE21\SP\RB2PLYPD3-FC\def2QZVP\C4H6\BOITTIER\26-Aug-2020\0\\
 #p B2PLYPD3/Def2QZVP\\butadiene\\0,1\C,0,-3.858785,0.241884,0.03922\C,
 0,-2.729439,-0.51801,0.026409\C,0,-1.377967,0.046856,-0.00763\C,0,-0.2
 42386,-0.647807,0.045812\H,0,-4.842833,-0.191215,-0.055018\H,0,-3.7555
 04,1.315906,0.04198\H,0,-2.806391,-1.574445,-0.011162\H,0,-1.3932,1.11
 4872,-0.043587\H,0,-0.212778,-1.708994,0.161206\H,0,0.695871,-0.068563
 ,-0.028068\\Version=ES64L-G09RevD.01\State=1-A\HF=-155.6973669\MP2=-15
 5.9234725\RMSD=6.084e-09\PG=C01 [X(C4H6)]\\@

 Normal termination of Gaussian 09 at Wed Aug 26 09:56:33 2020.
