 Gaussian 09, Revision D.01,
 Gaussian 09:  ES64L-G09RevD.01 24-Apr-2013

 --------------------
 #p B2PLYPD3/Def2QZVP
 --------------------

 ---------
 butadiene
 ---------
 Symbolic Z-matrix:
 Charge =  0 Multiplicity = 1

                         Standard orientation:
 ---------------------------------------------------------------------
 Center     Atomic      Atomic             Coordinates (Angstroms)
 Number     Number       Type             X           Y           Z
 ---------------------------------------------------------------------
      1          6           0       -1.867727   -0.079951    0.037662
      2          6           0       -0.601025    0.377157   -0.082746
      3          6           0        0.635120   -0.432703   -0.117335
      4          6           0        1.842378    0.133635    0.069088
      5          1           0       -2.809094    0.533029    0.193404
      6          1           0       -2.028777   -1.196784    0.206491
      7          1           0       -0.390735    1.458621   -0.028288
      8          1           0        0.400414   -1.429432   -0.106539
      9          1           0        1.994465    1.205579    0.024589
     10          1           0        2.781249   -0.559847    0.270331
 ---------------------------------------------------------------------

 SCF Done:  E(RB2PLYPD3) =  -155.678355580     A.U. after   11 cycles
 E2(B2PLYPD3) =    -0.2278982711D+00 E(B2PLYPD3) =    -0.15590625385103D+03

 The electronic state is 1-A.
 Alpha  occ. eigenvalues --  -10.63355 -10.63259 -10.62967 -10.62690  -0.92621
 Alpha  occ. eigenvalues --   -0.84065  -0.69649  -0.64395  -0.53875  -0.52563
 Alpha  occ. eigenvalues --   -0.47747  -0.44524  -0.40021  -0.37745  -0.27665
 Alpha virt. eigenvalues --    0.01281   0.06772   0.07212   0.07961   0.09038
 Alpha virt. eigenvalues --    0.11578   0.12224   0.14166   0.15733   0.15940
 Alpha virt. eigenvalues --    0.18834   0.20098   0.21366   0.22412   0.23366

 Mulliken charges:
               1
     1  C   -0.172120
     2  C   -0.023779
     3  C   -0.044582
     4  C   -0.166313
     5  H    0.085224
     6  H    0.047191
     7  H    0.046444
     8  H    0.070463
     9  H    0.081151
    10  H    0.076322
 Sum of Mulliken charges =   0.00000

 Dipole moment (field-independent basis, Debye):
    X=              0.1173    Y=              0.0177    Z=              0.3535  Tot=              0.3729
 Quadrupole moment (field-independent basis, Debye-Ang):
   XX=            -23.6812   YY=            -23.4322   ZZ=            -29.4497
   XY=              0.3453   XZ=             -0.2012   YZ=             -0.1709

 1\1\GINC-NODE31\SP\RB2PLYPD3-FC\def2QZVP\C4H6\BOITTIER\26-Aug-2020\0\\
 #p B2PLYPD3/Def2QZVP\\butadiene\\0,1\C,0,-3.876379,0.19893,-0.033727\C
 ,0,-2.712682,-0.474672,0.107871\C,0,-1.350617,0.09959,0.119111\C,0,-0.
 265798,-0.681476,-0.042342\H,0,-4.913256,-0.239261,-0.171738\H,0,-3.83
 3642,1.319832,-0.242311\H,0,-2.701114,-1.577565,0.09227\H,0,-1.401639,
 1.121297,0.072372\H,0,-0.309534,-1.761021,0.040378\H,0,0.782336,-0.176
 293,-0.263928\\Version=ES64L-G09RevD.01\State=1-A\HF=-155.6783556\MP2=
 -155.9062539\RMSD=7.600e-09\PG=C01 [X(C4H6)]\\@

 Normal termination of Gaussian 09 at Wed Aug 26 13:51:59 2020.
