 Gaussian 09, Revision D.01,
 Gaussian 09:  ES64L-G09RevD.01 24-Apr-2013

 --------------------
 #p B2PLYPD3/Def2QZVP
 --------------------

 ---------
 butadiene
 ---------
 Symbolic Z-matrix:
 Charge =  0 Multiplicity = 1

                         Standard orientation:
 ---------------------------------------------------------------------
 Center     Atomic      Atomic             Coordinates (Angstroms)
 Number     Number       Type             X           Y           Z
 ---------------------------------------------------------------------
      1          6           0       -1.842428    0.108214    0.024839
      2          6           0       -0.609380   -0.384713   -0.028351
      3          6           0        0.606535    0.397519   -0.024613
      4          6           0        1.838391   -0.117603    0.024435
      5          1           0       -2.706883   -0.556535    0.086751
      6          1           0       -1.973005    1.184907   -0.038477
      7          1           0       -0.487747   -1.457548   -0.062925
      8          1           0        0.494469    1.457708   -0.011251
      9          1           0        2.018247   -1.164870    0.007049
     10          1           0        2.696217    0.515844    0.040994
 ---------------------------------------------------------------------

 SCF Done:  E(RB2PLYPD3) =  -155.700335821     A.U. after   11 cycles
 E2(B2PLYPD3) =    -0.2253362330D+00 E(B2PLYPD3) =    -0.15592567205427D+03

 The electronic state is 1-A.
 Alpha  occ. eigenvalues --  -10.62268 -10.62165 -10.61537 -10.61168  -0.93189
 Alpha  occ. eigenvalues --   -0.85131  -0.70352  -0.64302  -0.54643  -0.54255
 Alpha  occ. eigenvalues --   -0.46765  -0.45823  -0.41316  -0.38147  -0.27693
 Alpha virt. eigenvalues --    0.01712   0.06994   0.07532   0.08064   0.09772
 Alpha virt. eigenvalues --    0.11731   0.12430   0.14793   0.15822   0.16179
 Alpha virt. eigenvalues --    0.18772   0.20380   0.21614   0.22886   0.24052

 Mulliken charges:
               1
     1  C   -0.179957
     2  C   -0.024897
     3  C   -0.032689
     4  C   -0.176345
     5  H    0.088920
     6  H    0.066065
     7  H    0.051632
     8  H    0.054873
     9  H    0.067839
    10  H    0.084558
 Sum of Mulliken charges =   0.00000

 Dipole moment (field-independent basis, Debye):
    X=              0.0388    Y=             -0.0162    Z=             -0.0197  Tot=              0.0464
 Quadrupole moment (field-independent basis, Debye-Ang):
   XX=            -23.4982   YY=            -23.0958   ZZ=            -29.1819
   XY=             -0.0095   XZ=             -0.0234   YZ=             -0.0350

 1\1\GINC-NODE40\SP\RB2PLYPD3-FC\def2QZVP\C4H6\BOITTIER\26-Aug-2020\0\\
 #p B2PLYPD3/Def2QZVP\\butadiene\\0,1\C,0,-3.845045,0.219823,0.043493\C
 ,0,-2.719653,-0.48617,0.007722\C,0,-1.383908,0.066813,-0.010866\C,0,-0
 .26324,-0.657636,0.05624\H,0,-4.813776,-0.278156,0.124627\H,0,-3.78212
 2,1.300081,-0.05352\H,0,-2.791072,-1.564067,0.006758\H,0,-1.305408,1.1
 29914,-0.030694\H,0,-0.272749,-1.720221,0.071757\H,0,0.693703,-0.18683
 6,0.054502\\Version=ES64L-G09RevD.01\State=1-A\HF=-155.7003358\MP2=-15
 5.9256721\RMSD=5.302e-09\PG=C01 [X(C4H6)]\\@

 Normal termination of Gaussian 09 at Wed Aug 26 21:23:29 2020.
