 Gaussian 09, Revision D.01,
 Gaussian 09:  ES64L-G09RevD.01 24-Apr-2013

 --------------------
 #p B2PLYPD3/Def2QZVP
 --------------------

 ---------
 butadiene
 ---------
 Symbolic Z-matrix:
 Charge =  0 Multiplicity = 1

                         Standard orientation:
 ---------------------------------------------------------------------
 Center     Atomic      Atomic             Coordinates (Angstroms)
 Number     Number       Type             X           Y           Z
 ---------------------------------------------------------------------
      1          6           0        1.828117   -0.129696    0.010581
      2          6           0        0.592797    0.446822   -0.026378
      3          6           0       -0.604000   -0.381764   -0.046087
      4          6           0       -1.830971    0.085005    0.033919
      5          1           0        2.740395    0.484154    0.128659
      6          1           0        1.984926   -1.222874    0.064112
      7          1           0        0.436274    1.482464   -0.066125
      8          1           0       -0.386436   -1.446760   -0.072690
      9          1           0       -1.977582    1.161247    0.017874
     10          1           0       -2.713235   -0.580433    0.095962
 ---------------------------------------------------------------------

 SCF Done:  E(RB2PLYPD3) =  -155.695520493     A.U. after   11 cycles
 E2(B2PLYPD3) =    -0.2263064795D+00 E(B2PLYPD3) =    -0.15592182697265D+03

 The electronic state is 1-A.
 Alpha  occ. eigenvalues --  -10.62728 -10.62514 -10.62093 -10.61442  -0.93108
 Alpha  occ. eigenvalues --   -0.84498  -0.69799  -0.64527  -0.54288  -0.53486
 Alpha  occ. eigenvalues --   -0.47017  -0.45301  -0.41062  -0.38038  -0.27568
 Alpha virt. eigenvalues --    0.01696   0.06966   0.07324   0.08121   0.09357
 Alpha virt. eigenvalues --    0.11725   0.12395   0.14611   0.15793   0.16011
 Alpha virt. eigenvalues --    0.18616   0.20420   0.21551   0.23210   0.23603

 Mulliken charges:
               1
     1  C   -0.173199
     2  C   -0.046156
     3  C   -0.014149
     4  C   -0.179186
     5  H    0.079242
     6  H    0.066963
     7  H    0.064778
     8  H    0.052427
     9  H    0.062421
    10  H    0.086860
 Sum of Mulliken charges =   0.00000

 Dipole moment (field-independent basis, Debye):
    X=              0.0211    Y=              0.0120    Z=              0.1026  Tot=              0.1054
 Quadrupole moment (field-independent basis, Debye-Ang):
   XX=            -23.7612   YY=            -23.0622   ZZ=            -29.3223
   XY=             -0.2861   XZ=              0.1947   YZ=             -0.0673

 1\1\GINC-NODE18\SP\RB2PLYPD3-FC\def2QZVP\C4H6\BOITTIER\26-Aug-2020\0\\
 #p B2PLYPD3/Def2QZVP\\butadiene\\0,1\C,0,-3.825844,0.251915,0.035351\C
 ,0,-2.718232,-0.543279,0.010486\C,0,-1.389199,0.049665,-0.026296\C,0,-
 0.26911,-0.633759,0.063501\H,0,-4.835261,-0.180519,0.166052\H,0,-3.778
 086,1.356117,0.066168\H,0,-2.755605,-1.590611,-0.007745\H,0,-1.406652,
 1.13575,-0.075016\H,0,-0.323626,-1.718672,0.069809\H,0,0.720999,-0.141
 419,0.111809\\Version=ES64L-G09RevD.01\State=1-A\HF=-155.6955205\MP2=-
 155.921827\RMSD=7.133e-09\PG=C01 [X(C4H6)]\\@

 Normal termination of Gaussian 09 at Wed Aug 26 09:00:26 2020.
