 Gaussian 09, Revision D.01,
 Gaussian 09:  ES64L-G09RevD.01 24-Apr-2013

 --------------------
 #p B2PLYPD3/Def2QZVP
 --------------------

 ---------
 butadiene
 ---------
 Symbolic Z-matrix:
 Charge =  0 Multiplicity = 1

                         Standard orientation:
 ---------------------------------------------------------------------
 Center     Atomic      Atomic             Coordinates (Angstroms)
 Number     Number       Type             X           Y           Z
 ---------------------------------------------------------------------
      1          6           0       -1.824432    0.086268    0.025229
      2          6           0       -0.588434   -0.380187   -0.049638
      3          6           0        0.601372    0.430837   -0.039872
      4          6           0        1.819397   -0.129283    0.029201
      5          1           0       -2.724740   -0.532999    0.196632
      6          1           0       -2.040735    1.124559    0.013624
      7          1           0       -0.453838   -1.461539   -0.137131
      8          1           0        0.480802    1.528676   -0.050288
      9          1           0        2.028174   -1.227589    0.075847
     10          1           0        2.662919    0.523076    0.111794
 ---------------------------------------------------------------------

 SCF Done:  E(RB2PLYPD3) =  -155.695591504     A.U. after   11 cycles
 E2(B2PLYPD3) =    -0.2260334644D+00 E(B2PLYPD3) =    -0.15592162496809D+03

 The electronic state is 1-A.
 Alpha  occ. eigenvalues --  -10.62885 -10.62253 -10.61914 -10.61172  -0.93213
 Alpha  occ. eigenvalues --   -0.84819  -0.70102  -0.63888  -0.54723  -0.53681
 Alpha  occ. eigenvalues --   -0.46517  -0.45229  -0.41279  -0.38069  -0.27541
 Alpha virt. eigenvalues --    0.01751   0.07013   0.07274   0.07983   0.09523
 Alpha virt. eigenvalues --    0.11608   0.12437   0.14715   0.15765   0.16240
 Alpha virt. eigenvalues --    0.18781   0.20302   0.21846   0.22835   0.23469

 Mulliken charges:
               1
     1  C   -0.174573
     2  C   -0.019108
     3  C   -0.042967
     4  C   -0.172352
     5  H    0.079031
     6  H    0.060356
     7  H    0.058051
     8  H    0.058576
     9  H    0.071024
    10  H    0.081963
 Sum of Mulliken charges =   0.00000

 Dipole moment (field-independent basis, Debye):
    X=              0.0390    Y=              0.0363    Z=              0.1282  Tot=              0.1389
 Quadrupole moment (field-independent basis, Debye-Ang):
   XX=            -23.6351   YY=            -23.0573   ZZ=            -29.2162
   XY=             -0.3381   XZ=             -0.0905   YZ=             -0.0383

 1\1\GINC-NODE01\SP\RB2PLYPD3-FC\def2QZVP\C4H6\BOITTIER\26-Aug-2020\0\\
 #p B2PLYPD3/Def2QZVP\\butadiene\\0,1\C,0,-3.830663,0.206596,0.048861\C
 ,0,-2.702194,-0.481934,-0.009097\C,0,-1.383274,0.095721,-0.025184\C,0,
 -0.288991,-0.676751,0.063827\H,0,-4.82878,-0.230082,0.239913\H,0,-3.85
 1981,1.266007,0.002359\H,0,-2.769627,-1.571854,-0.060285\H,0,-1.299519
 ,1.196017,-0.072387\H,0,-0.285951,-1.792571,0.147346\H,0,0.660715,-0.1
 88711,0.125464\\Version=ES64L-G09RevD.01\State=1-A\HF=-155.6955915\MP2
 =-155.921625\RMSD=6.420e-09\PG=C01 [X(C4H6)]\\@

 Normal termination of Gaussian 09 at Wed Aug 26 08:39:19 2020.
