 Gaussian 09, Revision D.01,
 Gaussian 09:  ES64L-G09RevD.01 24-Apr-2013

 --------------------
 #p B2PLYPD3/Def2QZVP
 --------------------

 ---------
 butadiene
 ---------
 Symbolic Z-matrix:
 Charge =  0 Multiplicity = 1

                         Standard orientation:
 ---------------------------------------------------------------------
 Center     Atomic      Atomic             Coordinates (Angstroms)
 Number     Number       Type             X           Y           Z
 ---------------------------------------------------------------------
      1          6           0       -1.870879    0.086018    0.067490
      2          6           0       -0.616096   -0.373083   -0.013482
      3          6           0        0.647656    0.450442   -0.076146
      4          6           0        1.824315   -0.157820    0.027281
      5          1           0       -2.658652   -0.516830    0.050781
      6          1           0       -2.059563    1.102566   -0.112363
      7          1           0       -0.411453   -1.412891   -0.151438
      8          1           0        0.629072    1.597332   -0.016049
      9          1           0        1.876813   -1.260084   -0.022091
     10          1           0        2.713811    0.456567    0.220305
 ---------------------------------------------------------------------

 SCF Done:  E(RB2PLYPD3) =  -155.681947516     A.U. after   11 cycles
 E2(B2PLYPD3) =    -0.2260282813D+00 E(B2PLYPD3) =    -0.15590797579737D+03

 The electronic state is 1-A.
 Alpha  occ. eigenvalues --  -10.63450 -10.62974 -10.61984 -10.60024  -0.92380
 Alpha  occ. eigenvalues --   -0.85401  -0.70030  -0.63483  -0.54930  -0.54004
 Alpha  occ. eigenvalues --   -0.46659  -0.45881  -0.41114  -0.37209  -0.27957
 Alpha virt. eigenvalues --    0.01957   0.07068   0.07306   0.08058   0.08847
 Alpha virt. eigenvalues --    0.11687   0.12636   0.14591   0.15499   0.16393
 Alpha virt. eigenvalues --    0.18775   0.19906   0.21490   0.23891   0.23954

 Mulliken charges:
               1
     1  C   -0.173861
     2  C   -0.035844
     3  C   -0.037034
     4  C   -0.168616
     5  H    0.085501
     6  H    0.065835
     7  H    0.057516
     8  H    0.053465
     9  H    0.066931
    10  H    0.086104
 Sum of Mulliken charges =   0.00000

 Dipole moment (field-independent basis, Debye):
    X=              0.1008    Y=             -0.0250    Z=             -0.0981  Tot=              0.1429
 Quadrupole moment (field-independent basis, Debye-Ang):
   XX=            -23.6346   YY=            -23.0743   ZZ=            -29.2034
   XY=              0.0489   XZ=              0.8430   YZ=              0.1779

 1\1\GINC-NODE31\SP\RB2PLYPD3-FC\def2QZVP\C4H6\BOITTIER\26-Aug-2020\0\\
 #p B2PLYPD3/Def2QZVP\\butadiene\\0,1\C,0,-3.879588,0.191745,0.07549\C,
 0,-2.721927,-0.477555,0.014917\C,0,-1.33543,0.115294,-0.05819\C,0,-0.2
 80912,-0.682907,0.068592\H,0,-4.759053,-0.26735,0.067465\H,0,-3.890493
 ,1.22077,-0.130198\H,0,-2.69828,-1.540172,-0.096424\H,0,-1.157158,1.24
 9529,-0.025883\H,0,-0.41815,-1.778737,0.046182\H,0,0.700186,-0.225477,
 0.253353\\Version=ES64L-G09RevD.01\State=1-A\HF=-155.6819475\MP2=-155.
 9079758\RMSD=6.939e-09\PG=C01 [X(C4H6)]\\@

 Normal termination of Gaussian 09 at Wed Aug 26 16:09:12 2020.
