 Gaussian 09, Revision D.01,
 Gaussian 09:  ES64L-G09RevD.01 24-Apr-2013

 --------------------
 #p B2PLYPD3/Def2QZVP
 --------------------

 ---------
 butadiene
 ---------
 Symbolic Z-matrix:
 Charge =  0 Multiplicity = 1

                         Standard orientation:
 ---------------------------------------------------------------------
 Center     Atomic      Atomic             Coordinates (Angstroms)
 Number     Number       Type             X           Y           Z
 ---------------------------------------------------------------------
      1          6           0       -1.838113    0.110182   -0.013615
      2          6           0       -0.608505   -0.406786    0.007572
      3          6           0        0.595081    0.394935    0.020368
      4          6           0        1.847159   -0.105855   -0.025904
      5          1           0       -2.725688   -0.513009   -0.026220
      6          1           0       -2.003149    1.184263   -0.024915
      7          1           0       -0.485854   -1.480348    0.076762
      8          1           0        0.478091    1.459275    0.053012
      9          1           0        2.090664   -1.146733   -0.011880
     10          1           0        2.672209    0.541700    0.002720
 ---------------------------------------------------------------------

 SCF Done:  E(RB2PLYPD3) =  -155.699970039     A.U. after   11 cycles
 E2(B2PLYPD3) =    -0.2256516699D+00 E(B2PLYPD3) =    -0.15592562170893D+03

 The electronic state is 1-A.
 Alpha  occ. eigenvalues --  -10.62545 -10.62422 -10.61592 -10.61167  -0.92977
 Alpha  occ. eigenvalues --   -0.84847  -0.70599  -0.64335  -0.54755  -0.54121
 Alpha  occ. eigenvalues --   -0.46658  -0.45835  -0.41442  -0.38013  -0.27510
 Alpha virt. eigenvalues --    0.01540   0.07022   0.07502   0.08093   0.09606
 Alpha virt. eigenvalues --    0.11638   0.12480   0.14861   0.15862   0.16263
 Alpha virt. eigenvalues --    0.18850   0.20457   0.21878   0.22709   0.23792

 Mulliken charges:
               1
     1  C   -0.173833
     2  C   -0.029522
     3  C   -0.036127
     4  C   -0.176624
     5  H    0.084610
     6  H    0.064543
     7  H    0.058803
     8  H    0.058232
     9  H    0.067316
    10  H    0.082602
 Sum of Mulliken charges =   0.00000

 Dipole moment (field-independent basis, Debye):
    X=             -0.0074    Y=             -0.0035    Z=              0.0835  Tot=              0.0839
 Quadrupole moment (field-independent basis, Debye-Ang):
   XX=            -23.3520   YY=            -23.0748   ZZ=            -29.2466
   XY=             -0.2414   XZ=              0.0958   YZ=             -0.0321

 1\1\GINC-NODE12\SP\RB2PLYPD3-FC\def2QZVP\C4H6\BOITTIER\26-Aug-2020\0\\
 #p B2PLYPD3/Def2QZVP\\butadiene\\0,1\C,0,-3.83874,0.228377,0.004326\C,
 0,-2.723794,-0.502932,0.045814\C,0,-1.39428,0.066122,0.035306\C,0,-0.2
 54524,-0.655605,0.008897\H,0,-4.825013,-0.222787,0.009964\H,0,-3.80542
 3,1.313586,-0.042867\H,0,-2.798494,-1.578003,0.150736\H,0,-1.315345,1.
 134454,0.032481\H,0,-0.204628,-1.722387,0.057923\H,0,0.674763,-0.16858
 1,0.0183\\Version=ES64L-G09RevD.01\State=1-A\HF=-155.69997\MP2=-155.92
 56217\RMSD=5.817e-09\PG=C01 [X(C4H6)]\\@

 Normal termination of Gaussian 09 at Wed Aug 26 12:24:04 2020.
