 Gaussian 09, Revision D.01,
 Gaussian 09:  ES64L-G09RevD.01 24-Apr-2013

 --------------------
 #p B2PLYPD3/Def2QZVP
 --------------------

 ---------
 butadiene
 ---------
 Symbolic Z-matrix:
 Charge =  0 Multiplicity = 1

                         Standard orientation:
 ---------------------------------------------------------------------
 Center     Atomic      Atomic             Coordinates (Angstroms)
 Number     Number       Type             X           Y           Z
 ---------------------------------------------------------------------
      1          6           0       -1.864160    0.089134    0.051241
      2          6           0       -0.619523   -0.340036   -0.087687
      3          6           0        0.611302    0.385197   -0.062057
      4          6           0        1.851499   -0.133853    0.092274
      5          1           0       -2.633906   -0.635594    0.310563
      6          1           0       -1.954117    1.176746   -0.063672
      7          1           0       -0.459012   -1.408817   -0.168328
      8          1           0        0.518402    1.489592   -0.061605
      9          1           0        2.041430   -1.130146   -0.078159
     10          1           0        2.612498    0.505567    0.098573
 ---------------------------------------------------------------------

 SCF Done:  E(RB2PLYPD3) =  -155.679703636     A.U. after   12 cycles
 E2(B2PLYPD3) =    -0.2261669859D+00 E(B2PLYPD3) =    -0.15590587062207D+03

 The electronic state is 1-A.
 Alpha  occ. eigenvalues --  -10.62905 -10.61961 -10.61756 -10.60316  -0.93385
 Alpha  occ. eigenvalues --   -0.85621  -0.71521  -0.63600  -0.55135  -0.54469
 Alpha  occ. eigenvalues --   -0.47149  -0.46392  -0.41458  -0.37435  -0.27510
 Alpha virt. eigenvalues --    0.00989   0.07003   0.07510   0.08073   0.09864
 Alpha virt. eigenvalues --    0.11762   0.12352   0.15017   0.15659   0.16187
 Alpha virt. eigenvalues --    0.18821   0.19333   0.21659   0.23462   0.24286

 Mulliken charges:
               1
     1  C   -0.189927
     2  C   -0.009171
     3  C   -0.034067
     4  C   -0.171432
     5  H    0.102050
     6  H    0.069954
     7  H    0.041331
     8  H    0.037025
     9  H    0.068751
    10  H    0.085485
 Sum of Mulliken charges =   0.00000

 Dipole moment (field-independent basis, Debye):
    X=              0.0553    Y=             -0.0417    Z=             -0.0713  Tot=              0.0994
 Quadrupole moment (field-independent basis, Debye-Ang):
   XX=            -23.7688   YY=            -23.2798   ZZ=            -28.9772
   XY=              0.1887   XZ=             -0.6840   YZ=             -0.0989

 1\1\GINC-NODE08\SP\RB2PLYPD3-FC\def2QZVP\C4H6\BOITTIER\26-Aug-2020\0\\
 #p B2PLYPD3/Def2QZVP\\butadiene\\0,1\C,0,-3.867814,0.206299,0.078514\C
 ,0,-2.720705,-0.442689,-0.046252\C,0,-1.380454,0.05249,-0.054842\C,0,-
 0.250588,-0.672172,0.117167\H,0,-4.751251,-0.358826,0.370336\H,0,-3.76
 4405,1.286992,-0.081504\H,0,-2.7534,-1.525356,-0.082625\H,0,-1.275746,
 1.154892,-0.100289\H,0,-0.242405,-1.692446,-0.012044\H,0,0.611889,-0.1
 78585,0.094327\\Version=ES64L-G09RevD.01\State=1-A\HF=-155.6797036\MP2
 =-155.9058706\RMSD=4.988e-09\PG=C01 [X(C4H6)]\\@

 Normal termination of Gaussian 09 at Wed Aug 26 13:30:57 2020.
