 Gaussian 09, Revision D.01,
 Gaussian 09:  ES64L-G09RevD.01 24-Apr-2013

 --------------------
 #p B2PLYPD3/Def2QZVP
 --------------------

 ---------
 butadiene
 ---------
 Symbolic Z-matrix:
 Charge =  0 Multiplicity = 1

                         Standard orientation:
 ---------------------------------------------------------------------
 Center     Atomic      Atomic             Coordinates (Angstroms)
 Number     Number       Type             X           Y           Z
 ---------------------------------------------------------------------
      1          6           0        1.808034   -0.113376   -0.021544
      2          6           0        0.596686    0.422045    0.037722
      3          6           0       -0.597426   -0.394004    0.007152
      4          6           0       -1.827608    0.104493   -0.038188
      5          1           0        2.761653    0.444177   -0.036008
      6          1           0        1.944360   -1.216213   -0.069878
      7          1           0        0.522553    1.499488    0.064792
      8          1           0       -0.465292   -1.422586    0.123886
      9          1           0       -2.032726    1.143517   -0.032608
     10          1           0       -2.608661   -0.563327    0.038966
 ---------------------------------------------------------------------

 SCF Done:  E(RB2PLYPD3) =  -155.695711580     A.U. after   11 cycles
 E2(B2PLYPD3) =    -0.2250480367D+00 E(B2PLYPD3) =    -0.15592075961693D+03

 The electronic state is 1-A.
 Alpha  occ. eigenvalues --  -10.62203 -10.61806 -10.61794 -10.60376  -0.93430
 Alpha  occ. eigenvalues --   -0.85209  -0.70146  -0.64650  -0.55016  -0.54260
 Alpha  occ. eigenvalues --   -0.46719  -0.45633  -0.41333  -0.38219  -0.27734
 Alpha virt. eigenvalues --    0.02017   0.07074   0.07494   0.08111   0.09567
 Alpha virt. eigenvalues --    0.11707   0.12545   0.14760   0.15725   0.16480
 Alpha virt. eigenvalues --    0.18723   0.20348   0.21812   0.22762   0.24112

 Mulliken charges:
               1
     1  C   -0.165169
     2  C   -0.034141
     3  C   -0.031279
     4  C   -0.179736
     5  H    0.080010
     6  H    0.053887
     7  H    0.058914
     8  H    0.064062
     9  H    0.070628
    10  H    0.082826
 Sum of Mulliken charges =   0.00000

 Dipole moment (field-independent basis, Debye):
    X=              0.0297    Y=              0.0050    Z=              0.1187  Tot=              0.1225
 Quadrupole moment (field-independent basis, Debye-Ang):
   XX=            -23.5721   YY=            -23.0156   ZZ=            -29.0911
   XY=             -0.1283   XZ=             -0.3529   YZ=             -0.0954

 1\1\GINC-NODE33\SP\RB2PLYPD3-FC\def2QZVP\C4H6\BOITTIER\26-Aug-2020\0\\
 #p B2PLYPD3/Def2QZVP\\butadiene\\0,1\C,0,-3.811323,0.226704,-0.005487\
 C,0,-2.717509,-0.518255,0.072998\C,0,-1.394926,0.06603,0.026529\C,0,-0
 .275918,-0.648811,-0.000431\H,0,-4.850434,-0.148387,-0.009684\H,0,-3.7
 44854,1.334287,-0.083026\H,0,-2.840525,-1.59013,0.128346\H,0,-1.337775
 ,1.104204,0.115947\H,0,-0.263155,-1.707298,0.033016\H,0,0.613579,-0.13
 2309,0.062812\\Version=ES64L-G09RevD.01\State=1-A\HF=-155.6957116\MP2=
 -155.9207596\RMSD=7.443e-09\PG=C01 [X(C4H6)]\\@

 Normal termination of Gaussian 09 at Wed Aug 26 09:42:03 2020.
