 Gaussian 09, Revision D.01,
 Gaussian 09:  ES64L-G09RevD.01 24-Apr-2013

 --------------------
 #p B2PLYPD3/Def2QZVP
 --------------------

 ---------
 butadiene
 ---------
 Symbolic Z-matrix:
 Charge =  0 Multiplicity = 1

                         Standard orientation:
 ---------------------------------------------------------------------
 Center     Atomic      Atomic             Coordinates (Angstroms)
 Number     Number       Type             X           Y           Z
 ---------------------------------------------------------------------
      1          6           0       -1.824812    0.063794    0.006623
      2          6           0       -0.592701   -0.384041   -0.029659
      3          6           0        0.604489    0.496227   -0.052169
      4          6           0        1.810407   -0.159802    0.043033
      5          1           0       -2.718082   -0.570487   -0.099030
      6          1           0       -1.989142    1.117945    0.364591
      7          1           0       -0.353192   -1.361107   -0.031992
      8          1           0        0.483302    1.566799   -0.149085
      9          1           0        1.921944   -1.301574    0.112572
     10          1           0        2.670865    0.451353   -0.004021
 ---------------------------------------------------------------------

 SCF Done:  E(RB2PLYPD3) =  -155.678481572     A.U. after   11 cycles
 E2(B2PLYPD3) =    -0.2268680647D+00 E(B2PLYPD3) =    -0.15590534963639D+03

 The electronic state is 1-A.
 Alpha  occ. eigenvalues --  -10.63386 -10.62623 -10.61457 -10.61308  -0.92813
 Alpha  occ. eigenvalues --   -0.84350  -0.69312  -0.64958  -0.54249  -0.53207
 Alpha  occ. eigenvalues --   -0.46962  -0.45503  -0.41261  -0.37138  -0.27348
 Alpha virt. eigenvalues --    0.01724   0.07004   0.07199   0.08110   0.08745
 Alpha virt. eigenvalues --    0.11796   0.12275   0.14525   0.15544   0.16252
 Alpha virt. eigenvalues --    0.18647   0.19912   0.21124   0.23199   0.23832

 Mulliken charges:
               1
     1  C   -0.183452
     2  C   -0.022940
     3  C   -0.056540
     4  C   -0.177123
     5  H    0.079578
     6  H    0.062000
     7  H    0.069330
     8  H    0.072866
     9  H    0.072288
    10  H    0.083993
 Sum of Mulliken charges =   0.00000

 Dipole moment (field-independent basis, Debye):
    X=              0.1388    Y=             -0.0390    Z=              0.1034  Tot=              0.1774
 Quadrupole moment (field-independent basis, Debye-Ang):
   XX=            -24.2083   YY=            -22.8916   ZZ=            -29.2309
   XY=             -0.1468   XZ=             -0.2502   YZ=              0.1637

 1\1\GINC-NODE35\SP\RB2PLYPD3-FC\def2QZVP\C4H6\BOITTIER\26-Aug-2020\0\\
 #p B2PLYPD3/Def2QZVP\\butadiene\\0,1\C,0,-3.834193,0.184282,0.034596\C
 ,0,-2.706274,-0.484425,0.010106\C,0,-1.367266,0.158376,-0.039967\C,0,-
 0.302666,-0.706206,0.073175\H,0,-4.829937,-0.276754,-0.051105\H,0,-3.7
 98585,1.260549,0.361342\H,0,-2.651383,-1.488577,0.03646\H,0,-1.289266,
 1.229643,-0.168445\H,0,-0.403485,-1.846424,0.176412\H,0,0.655539,-0.26
 6239,0.006963\\Version=ES64L-G09RevD.01\State=1-A\HF=-155.6784816\MP2=
 -155.9053496\RMSD=8.313e-09\PG=C01 [X(C4H6)]\\@

 Normal termination of Gaussian 09 at Wed Aug 26 14:49:47 2020.
