 Gaussian 09, Revision D.01,
 Gaussian 09:  ES64L-G09RevD.01 24-Apr-2013

 --------------------
 #p B2PLYPD3/Def2QZVP
 --------------------

 ---------
 butadiene
 ---------
 Symbolic Z-matrix:
 Charge =  0 Multiplicity = 1

                         Standard orientation:
 ---------------------------------------------------------------------
 Center     Atomic      Atomic             Coordinates (Angstroms)
 Number     Number       Type             X           Y           Z
 ---------------------------------------------------------------------
      1          6           0       -1.840239   -0.108534   -0.012800
      2          6           0       -0.612588    0.385977    0.016095
      3          6           0        0.603068   -0.400341    0.007132
      4          6           0        1.843299    0.109938   -0.027932
      5          1           0       -2.706504    0.562704   -0.009494
      6          1           0       -2.045448   -1.158880   -0.047693
      7          1           0       -0.466300    1.464462    0.080030
      8          1           0        0.484542   -1.466738    0.063048
      9          1           0        2.024651    1.187805   -0.044085
     10          1           0        2.747815   -0.511595    0.063223
 ---------------------------------------------------------------------

 SCF Done:  E(RB2PLYPD3) =  -155.700134163     A.U. after   11 cycles
 E2(B2PLYPD3) =    -0.2256922181D+00 E(B2PLYPD3) =    -0.15592582638109D+03

 The electronic state is 1-A.
 Alpha  occ. eigenvalues --  -10.62504 -10.62383 -10.61960 -10.61441  -0.93078
 Alpha  occ. eigenvalues --   -0.84913  -0.70175  -0.64116  -0.54470  -0.53970
 Alpha  occ. eigenvalues --   -0.46863  -0.45436  -0.40886  -0.38174  -0.27772
 Alpha virt. eigenvalues --    0.01656   0.06958   0.07459   0.07993   0.09742
 Alpha virt. eigenvalues --    0.11649   0.12391   0.14752   0.15841   0.16121
 Alpha virt. eigenvalues --    0.18875   0.20424   0.21656   0.22603   0.23667

 Mulliken charges:
               1
     1  C   -0.175311
     2  C   -0.025972
     3  C   -0.034796
     4  C   -0.171724
     5  H    0.083297
     6  H    0.068952
     7  H    0.053853
     8  H    0.056923
     9  H    0.062035
    10  H    0.082742
 Sum of Mulliken charges =   0.00000

 Dipole moment (field-independent basis, Debye):
    X=             -0.0159    Y=             -0.0130    Z=              0.1076  Tot=              0.1095
 Quadrupole moment (field-independent basis, Debye-Ang):
   XX=            -23.3834   YY=            -23.1879   ZZ=            -29.2543
   XY=              0.2360   XZ=              0.2429   YZ=             -0.0268

 1\1\GINC-NODE18\SP\RB2PLYPD3-FC\def2QZVP\C4H6\BOITTIER\26-Aug-2020\0\\
 #p B2PLYPD3/Def2QZVP\\butadiene\\0,1\C,0,-3.842185,0.22205,0.031896\C,
 0,-2.723774,-0.486097,0.018144\C,0,-1.386408,0.068355,0.002937\C,0,-0.
 258106,-0.65563,0.053597\H,0,-4.815126,-0.282005,0.049216\H,0,-3.85478
 7,1.292746,0.034555\H,0,-2.774356,-1.574724,-0.012677\H,0,-1.31136,1.1
 36482,-0.085667\H,0,-0.273641,-1.747548,0.102805\H,0,0.742989,-0.21018
 3,-0.056616\\Version=ES64L-G09RevD.01\State=1-A\HF=-155.7001342\MP2=-1
 55.9258264\RMSD=4.747e-09\PG=C01 [X(C4H6)]\\@

 Normal termination of Gaussian 09 at Wed Aug 26 15:43:21 2020.
