 Gaussian 09, Revision D.01,
 Gaussian 09:  ES64L-G09RevD.01 24-Apr-2013

 --------------------
 #p B2PLYPD3/Def2QZVP
 --------------------

 ---------
 butadiene
 ---------
 Symbolic Z-matrix:
 Charge =  0 Multiplicity = 1

                         Standard orientation:
 ---------------------------------------------------------------------
 Center     Atomic      Atomic             Coordinates (Angstroms)
 Number     Number       Type             X           Y           Z
 ---------------------------------------------------------------------
      1          6           0        1.848617   -0.119448   -0.001924
      2          6           0        0.615713    0.405718   -0.000515
      3          6           0       -0.611779   -0.392634   -0.024371
      4          6           0       -1.841502    0.111271    0.005956
      5          1           0        2.706063    0.510678    0.053005
      6          1           0        1.984245   -1.175476    0.013117
      7          1           0        0.481672    1.488047   -0.018779
      8          1           0       -0.498363   -1.470537    0.019891
      9          1           0       -2.027217    1.154194    0.008918
     10          1           0       -2.712691   -0.536347    0.048969
 ---------------------------------------------------------------------

 SCF Done:  E(RB2PLYPD3) =  -155.700830609     A.U. after   11 cycles
 E2(B2PLYPD3) =    -0.2253860364D+00 E(B2PLYPD3) =    -0.15592621664533D+03

 The electronic state is 1-A.
 Alpha  occ. eigenvalues --  -10.62728 -10.62458 -10.61244 -10.61207  -0.92828
 Alpha  occ. eigenvalues --   -0.85109  -0.70260  -0.64187  -0.54648  -0.54179
 Alpha  occ. eigenvalues --   -0.46713  -0.46003  -0.41102  -0.37991  -0.27773
 Alpha virt. eigenvalues --    0.01794   0.07010   0.07496   0.08080   0.09579
 Alpha virt. eigenvalues --    0.11701   0.12473   0.14780   0.15771   0.16227
 Alpha virt. eigenvalues --    0.18827   0.20363   0.21841   0.22924   0.23877

 Mulliken charges:
               1
     1  C   -0.176988
     2  C   -0.035502
     3  C   -0.026873
     4  C   -0.176052
     5  H    0.088334
     6  H    0.068821
     7  H    0.054064
     8  H    0.053825
     9  H    0.067204
    10  H    0.083168
 Sum of Mulliken charges =   0.00000

 Dipole moment (field-independent basis, Debye):
    X=             -0.0095    Y=              0.0108    Z=              0.0985  Tot=              0.0995
 Quadrupole moment (field-independent basis, Debye-Ang):
   XX=            -23.4339   YY=            -23.0651   ZZ=            -29.2340
   XY=             -0.1449   XZ=             -0.0120   YZ=             -0.0639

 1\1\GINC-NODE14\SP\RB2PLYPD3-FC\def2QZVP\C4H6\BOITTIER\26-Aug-2020\0\\
 #p B2PLYPD3/Def2QZVP\\butadiene\\0,1\C,0,-3.848934,0.230337,0.019239\C
 ,0,-2.728598,-0.504809,0.035327\C,0,-1.37913,0.06259,-0.00551\C,0,-0.2
 58083,-0.650385,0.038973\H,0,-4.804324,-0.236381,0.087751\H,0,-3.79525
 4,1.29374,0.008783\H,0,-2.788508,-1.593885,0.043187\H,0,-1.299639,1.14
 4276,0.012761\H,0,-0.260101,-1.70934,0.0672\H,0,0.714181,-0.166557,0.0
 6798\\Version=ES64L-G09RevD.01\State=1-A\HF=-155.7008306\MP2=-155.9262
 166\RMSD=4.818e-09\PG=C01 [X(C4H6)]\\@

 Normal termination of Gaussian 09 at Wed Aug 26 21:57:10 2020.
