 Gaussian 09, Revision D.01,
 Gaussian 09:  ES64L-G09RevD.01 24-Apr-2013

 --------------------
 #p B2PLYPD3/Def2QZVP
 --------------------

 ---------
 butadiene
 ---------
 Symbolic Z-matrix:
 Charge =  0 Multiplicity = 1

                         Standard orientation:
 ---------------------------------------------------------------------
 Center     Atomic      Atomic             Coordinates (Angstroms)
 Number     Number       Type             X           Y           Z
 ---------------------------------------------------------------------
      1          6           0       -1.820543    0.140447   -0.019869
      2          6           0       -0.632447   -0.412454    0.025325
      3          6           0        0.598114    0.313923    0.097933
      4          6           0        1.852992   -0.071290   -0.064149
      5          1           0       -2.694020   -0.507410   -0.102804
      6          1           0       -1.985279    1.257247    0.015782
      7          1           0       -0.601480   -1.457271   -0.047791
      8          1           0        0.421807    1.412222   -0.123778
      9          1           0        2.092875   -1.110028    0.066684
     10          1           0        2.777397    0.581478   -0.043529
 ---------------------------------------------------------------------

 SCF Done:  E(RB2PLYPD3) =  -155.684234576     A.U. after   11 cycles
 E2(B2PLYPD3) =    -0.2262010588D+00 E(B2PLYPD3) =    -0.15591043563445D+03

 The electronic state is 1-A.
 Alpha  occ. eigenvalues --  -10.62639 -10.62023 -10.61906 -10.61797  -0.93671
 Alpha  occ. eigenvalues --   -0.85462  -0.70244  -0.63695  -0.55079  -0.53344
 Alpha  occ. eigenvalues --   -0.47262  -0.44527  -0.40066  -0.38347  -0.28250
 Alpha virt. eigenvalues --    0.01488   0.06939   0.07488   0.07813   0.09718
 Alpha virt. eigenvalues --    0.11602   0.12357   0.14634   0.15176   0.16467
 Alpha virt. eigenvalues --    0.18738   0.19288   0.21808   0.23201   0.23563

 Mulliken charges:
               1
     1  C   -0.161815
     2  C   -0.031734
     3  C   -0.027758
     4  C   -0.163056
     5  H    0.082292
     6  H    0.066236
     7  H    0.054623
     8  H    0.044060
     9  H    0.056324
    10  H    0.080829
 Sum of Mulliken charges =   0.00000

 Dipole moment (field-independent basis, Debye):
    X=             -0.0896    Y=             -0.1139    Z=             -0.1031  Tot=              0.1779
 Quadrupole moment (field-independent basis, Debye-Ang):
   XX=            -23.1059   YY=            -23.6109   ZZ=            -29.1020
   XY=              0.0100   XZ=              0.2286   YZ=             -0.1533

 1\1\GINC-NODE29\SP\RB2PLYPD3-FC\def2QZVP\C4H6\BOITTIER\26-Aug-2020\0\\
 #p B2PLYPD3/Def2QZVP\\butadiene\\0,1\C,0,-3.818165,0.245282,-0.014725\
 C,0,-2.745821,-0.505104,0.064727\C,0,-1.40614,-0.004121,0.102784\C,0,-
 0.239708,-0.612592,-0.033518\H,0,-4.792579,-0.242008,-0.065963\H,0,-3.
 783363,1.373911,-0.039931\H,0,-2.899831,-1.541421,0.048134\H,0,-1.3874
 66,1.09454,-0.178455\H,0,-0.185831,-1.668797,0.154009\H,0,0.785343,-0.
 132797,-0.044574\\Version=ES64L-G09RevD.01\State=1-A\HF=-155.6842346\M
 P2=-155.9104356\RMSD=5.906e-09\PG=C01 [X(C4H6)]\\@

 Normal termination of Gaussian 09 at Wed Aug 26 14:26:08 2020.
