 Gaussian 09, Revision D.01,
 Gaussian 09:  ES64L-G09RevD.01 24-Apr-2013

 --------------------
 #p B2PLYPD3/Def2QZVP
 --------------------

 ---------
 butadiene
 ---------
 Symbolic Z-matrix:
 Charge =  0 Multiplicity = 1

                         Standard orientation:
 ---------------------------------------------------------------------
 Center     Atomic      Atomic             Coordinates (Angstroms)
 Number     Number       Type             X           Y           Z
 ---------------------------------------------------------------------
      1          6           0        1.806164    0.088162    0.074053
      2          6           0        0.593221   -0.379247   -0.068874
      3          6           0       -0.587827    0.425066   -0.015766
      4          6           0       -1.819590   -0.113610    0.022260
      5          1           0        2.683075   -0.470519    0.088829
      6          1           0        1.968560    1.101900   -0.113347
      7          1           0        0.530251   -1.462923   -0.042329
      8          1           0       -0.398347    1.517351   -0.124695
      9          1           0       -1.875650   -1.203184   -0.065978
     10          1           0       -2.859701    0.395154    0.187478
 ---------------------------------------------------------------------

 SCF Done:  E(RB2PLYPD3) =  -155.682328367     A.U. after   11 cycles
 E2(B2PLYPD3) =    -0.2263590701D+00 E(B2PLYPD3) =    -0.15590868743740D+03

 The electronic state is 1-A.
 Alpha  occ. eigenvalues --  -10.63178 -10.62867 -10.61907 -10.59986  -0.93816
 Alpha  occ. eigenvalues --   -0.85099  -0.70137  -0.64248  -0.55062  -0.53608
 Alpha  occ. eigenvalues --   -0.47157  -0.44292  -0.41493  -0.38150  -0.27658
 Alpha virt. eigenvalues --    0.01603   0.07013   0.07356   0.07928   0.09360
 Alpha virt. eigenvalues --    0.11508   0.12868   0.14493   0.15543   0.16745
 Alpha virt. eigenvalues --    0.18542   0.19376   0.22570   0.22914   0.24056

 Mulliken charges:
               1
     1  C   -0.161642
     2  C   -0.017296
     3  C   -0.033102
     4  C   -0.165473
     5  H    0.075048
     6  H    0.051960
     7  H    0.050089
     8  H    0.056634
     9  H    0.060840
    10  H    0.082941
 Sum of Mulliken charges =   0.00000

 Dipole moment (field-independent basis, Debye):
    X=              0.0355    Y=             -0.0523    Z=             -0.1305  Tot=              0.1450
 Quadrupole moment (field-independent basis, Debye-Ang):
   XX=            -23.1275   YY=            -23.5806   ZZ=            -29.0792
   XY=              0.0864   XZ=             -0.3982   YZ=             -0.1477

 1\1\GINC-NODE12\SP\RB2PLYPD3-FC\def2QZVP\C4H6\BOITTIER\26-Aug-2020\0\\
 #p B2PLYPD3/Def2QZVP\\butadiene\\0,1\C,0,-3.814065,0.197066,-0.044753\
 C,0,-2.70547,-0.481028,0.101323\C,0,-1.398308,0.094816,0.03542\C,0,-0.
 284956,-0.658941,0.001414\H,0,-4.777869,-0.193272,-0.05051\H,0,-3.7889
 25,1.225613,0.130217\H,0,-2.840353,-1.558367,0.088301\H,0,-1.385899,1.
 204576,0.130996\H,0,-0.427187,-1.73945,0.103255\H,0,0.829465,-0.349472
 ,-0.172547\\Version=ES64L-G09RevD.01\State=1-A\HF=-155.6823284\MP2=-15
 5.9086874\RMSD=8.178e-09\PG=C01 [X(C4H6)]\\@

 Normal termination of Gaussian 09 at Wed Aug 26 10:58:10 2020.
