 Gaussian 09, Revision D.01,
 Gaussian 09:  ES64L-G09RevD.01 24-Apr-2013

 --------------------
 #p B2PLYPD3/Def2QZVP
 --------------------

 ---------
 butadiene
 ---------
 Symbolic Z-matrix:
 Charge =  0 Multiplicity = 1

                         Standard orientation:
 ---------------------------------------------------------------------
 Center     Atomic      Atomic             Coordinates (Angstroms)
 Number     Number       Type             X           Y           Z
 ---------------------------------------------------------------------
      1          6           0        1.845799   -0.131173   -0.009861
      2          6           0        0.619988    0.413915    0.004558
      3          6           0       -0.622886   -0.373502   -0.000157
      4          6           0       -1.852048    0.102751    0.007655
      5          1           0        2.792929    0.450130   -0.055473
      6          1           0        1.901796   -1.194537    0.017087
      7          1           0        0.517946    1.498183    0.103279
      8          1           0       -0.472781   -1.400203    0.041757
      9          1           0       -2.012069    1.166720   -0.083003
     10          1           0       -2.672933   -0.592239   -0.036819
 ---------------------------------------------------------------------

 SCF Done:  E(RB2PLYPD3) =  -155.696551026     A.U. after   11 cycles
 E2(B2PLYPD3) =    -0.2253953988D+00 E(B2PLYPD3) =    -0.15592194642473D+03

 The electronic state is 1-A.
 Alpha  occ. eigenvalues --  -10.62785 -10.61842 -10.61837 -10.61149  -0.92981
 Alpha  occ. eigenvalues --   -0.85232  -0.69891  -0.64464  -0.54552  -0.53988
 Alpha  occ. eigenvalues --   -0.46886  -0.45842  -0.41111  -0.37853  -0.27960
 Alpha virt. eigenvalues --    0.01860   0.06982   0.07580   0.08055   0.09570
 Alpha virt. eigenvalues --    0.11697   0.12493   0.14569   0.15727   0.16062
 Alpha virt. eigenvalues --    0.18751   0.20370   0.21472   0.22879   0.24212

 Mulliken charges:
               1
     1  C   -0.176432
     2  C   -0.034708
     3  C   -0.029608
     4  C   -0.176734
     5  H    0.088603
     6  H    0.063322
     7  H    0.053640
     8  H    0.056202
     9  H    0.069321
    10  H    0.086393
 Sum of Mulliken charges =   0.00000

 Dipole moment (field-independent basis, Debye):
    X=              0.0373    Y=             -0.0411    Z=             -0.0173  Tot=              0.0582
 Quadrupole moment (field-independent basis, Debye-Ang):
   XX=            -23.4904   YY=            -23.1708   ZZ=            -29.2018
   XY=              0.0852   XZ=              0.1801   YZ=             -0.0556

 1\1\GINC-NODE25\SP\RB2PLYPD3-FC\def2QZVP\C4H6\BOITTIER\26-Aug-2020\0\\
 #p B2PLYPD3/Def2QZVP\\butadiene\\0,1\C,0,-3.848159,0.234809,0.011041\C
 ,0,-2.735295,-0.513898,0.041256\C,0,-1.374812,0.04568,0.014003\C,0,-0.
 246752,-0.636031,0.035633\H,0,-4.881905,-0.174556,-0.017915\H,0,-3.718
 908,1.29211,0.007375\H,0,-2.822206,-1.596197,0.171145\H,0,-1.344524,1.
 083627,0.026343\H,0,-0.273972,-1.713767,-0.024358\H,0,0.68192,-0.09541
 5,-0.028743\\Version=ES64L-G09RevD.01\State=1-A\HF=-155.696551\MP2=-15
 5.9219464\RMSD=5.117e-09\PG=C01 [X(C4H6)]\\@

 Normal termination of Gaussian 09 at Wed Aug 26 09:17:34 2020.
