 Gaussian 09, Revision D.01,
 Gaussian 09:  ES64L-G09RevD.01 24-Apr-2013

 --------------------
 #p B2PLYPD3/Def2QZVP
 --------------------

 ---------
 butadiene
 ---------
 Symbolic Z-matrix:
 Charge =  0 Multiplicity = 1

                         Standard orientation:
 ---------------------------------------------------------------------
 Center     Atomic      Atomic             Coordinates (Angstroms)
 Number     Number       Type             X           Y           Z
 ---------------------------------------------------------------------
      1          6           0        1.863918   -0.086882    0.036776
      2          6           0        0.614638    0.362425    0.004841
      3          6           0       -0.602738   -0.418062   -0.064676
      4          6           0       -1.862667    0.104479    0.003457
      5          1           0        2.621121    0.556265   -0.069559
      6          1           0        2.177552   -1.095377   -0.078336
      7          1           0        0.411456    1.436724    0.018820
      8          1           0       -0.527197   -1.475916    0.169610
      9          1           0       -1.903381    1.208557    0.031919
     10          1           0       -2.858458   -0.402019    0.045156
 ---------------------------------------------------------------------

 SCF Done:  E(RB2PLYPD3) =  -155.682867061     A.U. after   11 cycles
 E2(B2PLYPD3) =    -0.2267622835D+00 E(B2PLYPD3) =    -0.15590962934485D+03

 The electronic state is 1-A.
 Alpha  occ. eigenvalues --  -10.63017 -10.62911 -10.62800 -10.60393  -0.92920
 Alpha  occ. eigenvalues --   -0.84963  -0.71069  -0.64002  -0.55354  -0.53654
 Alpha  occ. eigenvalues --   -0.47486  -0.44975  -0.41059  -0.37653  -0.27620
 Alpha virt. eigenvalues --    0.00949   0.07032   0.07565   0.08062   0.09277
 Alpha virt. eigenvalues --    0.11426   0.12841   0.14657   0.15307   0.16503
 Alpha virt. eigenvalues --    0.19048   0.19898   0.22055   0.22770   0.23867

 Mulliken charges:
               1
     1  C   -0.164272
     2  C   -0.032079
     3  C   -0.031951
     4  C   -0.170935
     5  H    0.081875
     6  H    0.064467
     7  H    0.048709
     8  H    0.063187
     9  H    0.049059
    10  H    0.091941
 Sum of Mulliken charges =   0.00000

 Dipole moment (field-independent basis, Debye):
    X=             -0.0555    Y=              0.0147    Z=              0.0598  Tot=              0.0829
 Quadrupole moment (field-independent basis, Debye-Ang):
   XX=            -22.7008   YY=            -23.6833   ZZ=            -29.2193
   XY=             -0.1992   XZ=             -0.7694   YZ=             -0.1628

 1\1\GINC-NODE18\SP\RB2PLYPD3-FC\def2QZVP\C4H6\BOITTIER\26-Aug-2020\0\\
 #p B2PLYPD3/Def2QZVP\\butadiene\\0,1\C,0,-3.868563,0.206043,0.048745\C
 ,0,-2.721684,-0.463332,0.034509\C,0,-1.382424,0.081432,-0.040397\C,0,-
 0.238787,-0.659914,0.046855\H,0,-4.729655,-0.290765,-0.051277\H,0,-3.9
 93143,1.252282,-0.087433\H,0,-2.717278,-1.556181,0.069971\H,0,-1.26529
 5,1.139794,0.173615\H,0,-0.399611,-1.752233,0.096137\H,0,0.832325,-0.3
 42076,0.086578\\Version=ES64L-G09RevD.01\State=1-A\HF=-155.6828671\MP2
 =-155.9096293\RMSD=9.621e-09\PG=C01 [X(C4H6)]\\@

 Normal termination of Gaussian 09 at Wed Aug 26 13:38:30 2020.
