 Gaussian 09, Revision D.01,
 Gaussian 09:  ES64L-G09RevD.01 24-Apr-2013

 --------------------
 #p B2PLYPD3/Def2QZVP
 --------------------

 ---------
 butadiene
 ---------
 Symbolic Z-matrix:
 Charge =  0 Multiplicity = 1

                         Standard orientation:
 ---------------------------------------------------------------------
 Center     Atomic      Atomic             Coordinates (Angstroms)
 Number     Number       Type             X           Y           Z
 ---------------------------------------------------------------------
      1          6           0       -1.841874    0.116877    0.036694
      2          6           0       -0.608116   -0.414404   -0.040427
      3          6           0        0.601296    0.381761   -0.050955
      4          6           0        1.836210   -0.096897    0.042358
      5          1           0       -2.719895   -0.534743    0.052434
      6          1           0       -2.037630    1.192090    0.030609
      7          1           0       -0.479448   -1.477367    0.003402
      8          1           0        0.478733    1.488240   -0.083559
      9          1           0        2.147503   -1.141303   -0.057379
     10          1           0        2.685645    0.549065    0.128468
 ---------------------------------------------------------------------

 SCF Done:  E(RB2PLYPD3) =  -155.697203906     A.U. after   11 cycles
 E2(B2PLYPD3) =    -0.2260278762D+00 E(B2PLYPD3) =    -0.15592323178171D+03

 The electronic state is 1-A.
 Alpha  occ. eigenvalues --  -10.62768 -10.62601 -10.61974 -10.61400  -0.92930
 Alpha  occ. eigenvalues --   -0.84803  -0.70347  -0.63889  -0.54785  -0.53634
 Alpha  occ. eigenvalues --   -0.46737  -0.45353  -0.40904  -0.38060  -0.27605
 Alpha virt. eigenvalues --    0.01561   0.06973   0.07396   0.08005   0.09544
 Alpha virt. eigenvalues --    0.11532   0.12422   0.14812   0.15782   0.16308
 Alpha virt. eigenvalues --    0.18907   0.20218   0.21820   0.22770   0.23594

 Mulliken charges:
               1
     1  C   -0.171006
     2  C   -0.039664
     3  C   -0.026849
     4  C   -0.171609
     5  H    0.082029
     6  H    0.068834
     7  H    0.063698
     8  H    0.052242
     9  H    0.064425
    10  H    0.077900
 Sum of Mulliken charges =   0.00000

 Dipole moment (field-independent basis, Debye):
    X=              0.0228    Y=             -0.0178    Z=             -0.0074  Tot=              0.0298
 Quadrupole moment (field-independent basis, Debye-Ang):
   XX=            -23.3070   YY=            -23.1656   ZZ=            -29.2837
   XY=             -0.3636   XZ=             -0.0179   YZ=              0.0552

 1\1\GINC-NODE03\SP\RB2PLYPD3-FC\def2QZVP\C4H6\BOITTIER\26-Aug-2020\0\\
 #p B2PLYPD3/Def2QZVP\\butadiene\\0,1\C,0,-3.839433,0.239322,0.056959\C
 ,0,-2.724176,-0.510859,-0.004644\C,0,-1.389391,0.049644,-0.03381\C,0,-
 0.262803,-0.644685,0.073615\H,0,-4.821937,-0.239732,0.088117\H,0,-3.83
 4867,1.331689,0.022965\H,0,-2.792327,-1.577929,0.066666\H,0,-1.307228,
 1.158646,-0.095008\H,0,-0.148486,-1.730651,0.001203\H,0,0.690892,-0.16
 3352,0.144375\\Version=ES64L-G09RevD.01\State=1-A\HF=-155.6972039\MP2=
 -155.9232318\RMSD=7.249e-09\PG=C01 [X(C4H6)]\\@

 Normal termination of Gaussian 09 at Wed Aug 26 08:44:04 2020.
