 Gaussian 09, Revision D.01,
 Gaussian 09:  ES64L-G09RevD.01 24-Apr-2013

 --------------------
 #p B2PLYPD3/Def2QZVP
 --------------------

 ---------
 butadiene
 ---------
 Symbolic Z-matrix:
 Charge =  0 Multiplicity = 1

                         Standard orientation:
 ---------------------------------------------------------------------
 Center     Atomic      Atomic             Coordinates (Angstroms)
 Number     Number       Type             X           Y           Z
 ---------------------------------------------------------------------
      1          6           0        1.836855   -0.095525    0.006675
      2          6           0        0.594977    0.389893   -0.032266
      3          6           0       -0.607563   -0.413235   -0.029593
      4          6           0       -1.826664    0.115461    0.018367
      5          1           0        2.695163    0.525064    0.105644
      6          1           0        2.006491   -1.170522    0.036549
      7          1           0        0.437267    1.477378   -0.022373
      8          1           0       -0.445689   -1.479788    0.011952
      9          1           0       -1.984638    1.195792    0.045423
     10          1           0       -2.694225   -0.527488    0.043710
 ---------------------------------------------------------------------

 SCF Done:  E(RB2PLYPD3) =  -155.700548625     A.U. after   11 cycles
 E2(B2PLYPD3) =    -0.2256192407D+00 E(B2PLYPD3) =    -0.15592616786588D+03

 The electronic state is 1-A.
 Alpha  occ. eigenvalues --  -10.62465 -10.62327 -10.61594 -10.61295  -0.93194
 Alpha  occ. eigenvalues --   -0.84958  -0.70270  -0.63984  -0.54827  -0.53785
 Alpha  occ. eigenvalues --   -0.46965  -0.45478  -0.41034  -0.38281  -0.27694
 Alpha virt. eigenvalues --    0.01770   0.07040   0.07326   0.08126   0.09645
 Alpha virt. eigenvalues --    0.11729   0.12439   0.14762   0.15798   0.16142
 Alpha virt. eigenvalues --    0.18751   0.20374   0.21732   0.22980   0.23764

 Mulliken charges:
               1
     1  C   -0.178061
     2  C   -0.021789
     3  C   -0.031273
     4  C   -0.174622
     5  H    0.088015
     6  H    0.059848
     7  H    0.048351
     8  H    0.055610
     9  H    0.068247
    10  H    0.085675
 Sum of Mulliken charges =   0.00000

 Dipole moment (field-independent basis, Debye):
    X=             -0.0320    Y=             -0.0091    Z=              0.1621  Tot=              0.1655
 Quadrupole moment (field-independent basis, Debye-Ang):
   XX=            -23.5503   YY=            -23.1115   ZZ=            -29.2229
   XY=             -0.1930   XZ=              0.1679   YZ=              0.0158

 1\1\GINC-NODE21\SP\RB2PLYPD3-FC\def2QZVP\C4H6\BOITTIER\26-Aug-2020\0\\
 #p B2PLYPD3/Def2QZVP\\butadiene\\0,1\C,0,-3.840734,0.215971,0.031802\C
 ,0,-2.70919,-0.490038,0.007953\C,0,-1.379724,0.078489,-0.012513\C,0,-0
 .278085,-0.663323,0.05177\H,0,-4.79783,-0.233399,0.148646\H,0,-3.81012
 9,1.304248,0.029708\H,0,-2.753615,-1.587234,0.05016\H,0,-1.342981,1.15
 7386,-0.002686\H,0,-0.320853,-1.753037,0.110921\H,0,0.692817,-0.190047
 ,0.058527\\Version=ES64L-G09RevD.01\State=1-A\HF=-155.7005486\MP2=-155
 .9261679\RMSD=3.850e-09\PG=C01 [X(C4H6)]\\@

 Normal termination of Gaussian 09 at Wed Aug 26 16:31:55 2020.
