 Gaussian 09, Revision D.01,
 Gaussian 09:  ES64L-G09RevD.01 24-Apr-2013

 --------------------
 #p B2PLYPD3/Def2QZVP
 --------------------

 ---------
 butadiene
 ---------
 Symbolic Z-matrix:
 Charge =  0 Multiplicity = 1

                         Standard orientation:
 ---------------------------------------------------------------------
 Center     Atomic      Atomic             Coordinates (Angstroms)
 Number     Number       Type             X           Y           Z
 ---------------------------------------------------------------------
      1          6           0        1.820106    0.117090    0.006888
      2          6           0        0.610220   -0.398278   -0.020228
      3          6           0       -0.600065    0.409619    0.011733
      4          6           0       -1.820994   -0.120308   -0.002770
      5          1           0        2.623534   -0.584153   -0.001285
      6          1           0        2.004991    1.176428   -0.082863
      7          1           0        0.460913   -1.471116    0.128258
      8          1           0       -0.485070    1.543733    0.063642
      9          1           0       -1.900897   -1.198397   -0.084755
     10          1           0       -2.759069    0.484765    0.003270
 ---------------------------------------------------------------------

 SCF Done:  E(RB2PLYPD3) =  -155.695205809     A.U. after   11 cycles
 E2(B2PLYPD3) =    -0.2258462702D+00 E(B2PLYPD3) =    -0.15592105207892D+03

 The electronic state is 1-A.
 Alpha  occ. eigenvalues --  -10.62868 -10.62261 -10.61720 -10.60973  -0.93216
 Alpha  occ. eigenvalues --   -0.85190  -0.69566  -0.63449  -0.54390  -0.53919
 Alpha  occ. eigenvalues --   -0.46441  -0.45321  -0.40826  -0.38246  -0.27934
 Alpha virt. eigenvalues --    0.02108   0.07085   0.07160   0.07962   0.09440
 Alpha virt. eigenvalues --    0.11765   0.12343   0.14714   0.15433   0.16136
 Alpha virt. eigenvalues --    0.18521   0.19893   0.21674   0.23069   0.24171

 Mulliken charges:
               1
     1  C   -0.177825
     2  C   -0.027451
     3  C   -0.026646
     4  C   -0.175301
     5  H    0.083039
     6  H    0.074378
     7  H    0.055864
     8  H    0.045502
     9  H    0.061467
    10  H    0.086973
 Sum of Mulliken charges =   0.00000

 Dipole moment (field-independent basis, Debye):
    X=              0.0246    Y=             -0.0117    Z=              0.0028  Tot=              0.0274
 Quadrupole moment (field-independent basis, Debye-Ang):
   XX=            -23.8307   YY=            -23.0217   ZZ=            -29.2335
   XY=              0.0544   XZ=              0.0220   YZ=             -0.0913

 1\1\GINC-NODE39\SP\RB2PLYPD3-FC\def2QZVP\C4H6\BOITTIER\26-Aug-2020\0\\
 #p B2PLYPD3/Def2QZVP\\butadiene\\0,1\C,0,-3.821188,0.22356,0.011108\C,
 0,-2.722438,-0.498411,0.051949\C,0,-1.387642,0.079952,0.003724\C,0,-0.
 28065,-0.658595,0.032304\H,0,-4.736691,-0.322923,0.03382\H,0,-3.814137
 ,1.300644,0.076502\H,0,-2.767043,-1.583763,-0.07192\H,0,-1.298832,1.21
 4937,-0.074083\H,0,-0.393936,-1.731533,0.138849\H,0,0.750213,-0.230663
 ,0.014132\\Version=ES64L-G09RevD.01\State=1-A\HF=-155.6952058\MP2=-155
 .9210521\RMSD=3.987e-09\PG=C01 [X(C4H6)]\\@

 Normal termination of Gaussian 09 at Wed Aug 26 10:05:18 2020.
