 Gaussian 09, Revision D.01,
 Gaussian 09:  ES64L-G09RevD.01 24-Apr-2013

 --------------------
 #p B2PLYPD3/Def2QZVP
 --------------------

 ---------
 butadiene
 ---------
 Symbolic Z-matrix:
 Charge =  0 Multiplicity = 1

                         Standard orientation:
 ---------------------------------------------------------------------
 Center     Atomic      Atomic             Coordinates (Angstroms)
 Number     Number       Type             X           Y           Z
 ---------------------------------------------------------------------
      1          6           0        1.851240    0.113348   -0.004410
      2          6           0        0.615972   -0.402111    0.005488
      3          6           0       -0.607134    0.396607   -0.015458
      4          6           0       -1.841412   -0.113962    0.012266
      5          1           0        2.696205   -0.518550   -0.016150
      6          1           0        1.967980    1.195789    0.074765
      7          1           0        0.467363   -1.484820   -0.039238
      8          1           0       -0.532121    1.485758   -0.012442
      9          1           0       -2.019114   -1.165875    0.046832
     10          1           0       -2.692304    0.524412   -0.041078
 ---------------------------------------------------------------------

 SCF Done:  E(RB2PLYPD3) =  -155.699961544     A.U. after   11 cycles
 E2(B2PLYPD3) =    -0.2256263692D+00 E(B2PLYPD3) =    -0.15592558791345D+03

 The electronic state is 1-A.
 Alpha  occ. eigenvalues --  -10.62730 -10.62569 -10.61408 -10.61122  -0.92810
 Alpha  occ. eigenvalues --   -0.85088  -0.70266  -0.63917  -0.54787  -0.54102
 Alpha  occ. eigenvalues --   -0.46567  -0.45834  -0.41283  -0.37967  -0.27702
 Alpha virt. eigenvalues --    0.01721   0.07050   0.07431   0.08073   0.09572
 Alpha virt. eigenvalues --    0.11695   0.12426   0.14722   0.15799   0.16243
 Alpha virt. eigenvalues --    0.18791   0.20316   0.21630   0.22850   0.24043

 Mulliken charges:
               1
     1  C   -0.177523
     2  C   -0.034360
     3  C   -0.025538
     4  C   -0.177833
     5  H    0.091734
     6  H    0.068367
     7  H    0.053151
     8  H    0.051014
     9  H    0.065425
    10  H    0.085563
 Sum of Mulliken charges =   0.00000

 Dipole moment (field-independent basis, Debye):
    X=             -0.0222    Y=             -0.0185    Z=              0.0100  Tot=              0.0305
 Quadrupole moment (field-independent basis, Debye-Ang):
   XX=            -23.4982   YY=            -23.0440   ZZ=            -29.2626
   XY=              0.0010   XZ=              0.1024   YZ=              0.0670

 1\1\GINC-NODE05\SP\RB2PLYPD3-FC\def2QZVP\C4H6\BOITTIER\26-Aug-2020\0\\
 #p B2PLYPD3/Def2QZVP\\butadiene\\0,1\C,0,-3.851687,0.224971,0.020205\C
 ,0,-2.727326,-0.50123,0.031517\C,0,-1.381996,0.068377,0.028142\C,0,-0.
 257804,-0.653454,0.021466\H,0,-4.795193,-0.246428,0.051503\H,0,-3.7750
 77,1.307579,-0.0967\H,0,-2.772738,-1.590938,0.114089\H,0,-1.262868,1.1
 52822,-0.012768\H,0,-0.269401,-1.720765,0.023808\H,0,0.692906,-0.17448
 8,0.055004\\Version=ES64L-G09RevD.01\State=1-A\HF=-155.6999615\MP2=-15
 5.9255879\RMSD=2.770e-09\PG=C01 [X(C4H6)]\\@

 Normal termination of Gaussian 09 at Wed Aug 26 19:32:11 2020.
