 Gaussian 09, Revision D.01,
 Gaussian 09:  ES64L-G09RevD.01 24-Apr-2013

 --------------------
 #p B2PLYPD3/Def2QZVP
 --------------------

 ---------
 butadiene
 ---------
 Symbolic Z-matrix:
 Charge =  0 Multiplicity = 1

                         Standard orientation:
 ---------------------------------------------------------------------
 Center     Atomic      Atomic             Coordinates (Angstroms)
 Number     Number       Type             X           Y           Z
 ---------------------------------------------------------------------
      1          6           0       -1.810150   -0.160085    0.055024
      2          6           0       -0.618967    0.470287   -0.060686
      3          6           0        0.607214   -0.368876   -0.089388
      4          6           0        1.832990    0.076247    0.083466
      5          1           0       -2.720977    0.406608    0.140994
      6          1           0       -1.848165   -1.280739    0.048885
      7          1           0       -0.507238    1.561885   -0.011485
      8          1           0        0.506947   -1.409605   -0.204943
      9          1           0        1.878869    1.151502   -0.134120
     10          1           0        2.624034   -0.535085    0.230176
 ---------------------------------------------------------------------

 SCF Done:  E(RB2PLYPD3) =  -155.682848519     A.U. after   12 cycles
 E2(B2PLYPD3) =    -0.2261391781D+00 E(B2PLYPD3) =    -0.15590898769705D+03

 The electronic state is 1-A.
 Alpha  occ. eigenvalues --  -10.63375 -10.62223 -10.61777 -10.60159  -0.92923
 Alpha  occ. eigenvalues --   -0.85183  -0.69481  -0.64202  -0.55559  -0.53644
 Alpha  occ. eigenvalues --   -0.47055  -0.44731  -0.42004  -0.37189  -0.27594
 Alpha virt. eigenvalues --    0.02065   0.07115   0.07302   0.08196   0.08902
 Alpha virt. eigenvalues --    0.11705   0.12627   0.14325   0.15588   0.16596
 Alpha virt. eigenvalues --    0.18636   0.19512   0.21213   0.23679   0.24599

 Mulliken charges:
               1
     1  C   -0.167078
     2  C   -0.052238
     3  C   -0.013142
     4  C   -0.190140
     5  H    0.086718
     6  H    0.069037
     7  H    0.061002
     8  H    0.053613
     9  H    0.061492
    10  H    0.090736
 Sum of Mulliken charges =   0.00000

 Dipole moment (field-independent basis, Debye):
    X=             -0.0871    Y=             -0.0667    Z=             -0.0331  Tot=              0.1146
 Quadrupole moment (field-independent basis, Debye-Ang):
   XX=            -24.0201   YY=            -22.9904   ZZ=            -29.1394
   XY=             -0.4321   XZ=             -0.1832   YZ=             -0.1334

 1\1\GINC-NODE07\SP\RB2PLYPD3-FC\def2QZVP\C4H6\BOITTIER\26-Aug-2020\0\\
 #p B2PLYPD3/Def2QZVP\\butadiene\\0,1\C,0,-3.807574,0.255924,-0.044993\
 C,0,-2.743592,-0.566017,0.103431\C,0,-1.390107,0.047653,0.098442\C,0,-
 0.261121,-0.611127,-0.049674\H,0,-4.803401,-0.147117,-0.108439\H,0,-3.
 650204,1.365237,-0.0898\H,0,-2.823509,-1.66151,0.104166\H,0,-1.307455,
 1.094115,0.166339\H,0,-0.40188,-1.667019,0.216597\H,0,0.62349,-0.15388
 4,-0.221119\\Version=ES64L-G09RevD.01\State=1-A\HF=-155.6828485\MP2=-1
 55.9089877\RMSD=3.575e-09\PG=C01 [X(C4H6)]\\@

 Normal termination of Gaussian 09 at Wed Aug 26 16:07:24 2020.
