 Gaussian 09, Revision D.01,
 Gaussian 09:  ES64L-G09RevD.01 24-Apr-2013

 --------------------
 #p B2PLYPD3/Def2QZVP
 --------------------

 ---------
 butadiene
 ---------
 Symbolic Z-matrix:
 Charge =  0 Multiplicity = 1

                         Standard orientation:
 ---------------------------------------------------------------------
 Center     Atomic      Atomic             Coordinates (Angstroms)
 Number     Number       Type             X           Y           Z
 ---------------------------------------------------------------------
      1          6           0       -1.838100   -0.107081    0.028823
      2          6           0       -0.614704    0.371721   -0.033952
      3          6           0        0.627430   -0.427074   -0.062029
      4          6           0        1.842309    0.129960    0.053623
      5          1           0       -2.716136    0.560262   -0.009024
      6          1           0       -2.064160   -1.137655    0.142376
      7          1           0       -0.575139    1.474987   -0.064635
      8          1           0        0.512798   -1.499555   -0.039976
      9          1           0        1.937048    1.248359    0.070355
     10          1           0        2.803976   -0.451558   -0.017885
 ---------------------------------------------------------------------

 SCF Done:  E(RB2PLYPD3) =  -155.694227891     A.U. after   11 cycles
 E2(B2PLYPD3) =    -0.2260345390D+00 E(B2PLYPD3) =    -0.15592026242985D+03

 The electronic state is 1-A.
 Alpha  occ. eigenvalues --  -10.63056 -10.62644 -10.62566 -10.61082  -0.92712
 Alpha  occ. eigenvalues --   -0.85039  -0.69323  -0.63902  -0.54213  -0.53771
 Alpha  occ. eigenvalues --   -0.46683  -0.44788  -0.40754  -0.37913  -0.28046
 Alpha virt. eigenvalues --    0.01891   0.06905   0.07444   0.07826   0.09517
 Alpha virt. eigenvalues --    0.11579   0.12376   0.14432   0.15759   0.16237
 Alpha virt. eigenvalues --    0.18922   0.20197   0.21416   0.22178   0.24086

 Mulliken charges:
               1
     1  C   -0.173390
     2  C   -0.018255
     3  C   -0.052902
     4  C   -0.158138
     5  H    0.078056
     6  H    0.063653
     7  H    0.050684
     8  H    0.065231
     9  H    0.062626
    10  H    0.082434
 Sum of Mulliken charges =   0.00000

 Dipole moment (field-independent basis, Debye):
    X=              0.0008    Y=             -0.0361    Z=              0.0133  Tot=              0.0385
 Quadrupole moment (field-independent basis, Debye-Ang):
   XX=            -23.4018   YY=            -23.1823   ZZ=            -29.3332
   XY=              0.0034   XZ=             -0.1684   YZ=             -0.1133

 1\1\GINC-NODE21\SP\RB2PLYPD3-FC\def2QZVP\C4H6\BOITTIER\26-Aug-2020\0\\
 #p B2PLYPD3/Def2QZVP\\butadiene\\0,1\C,0,-3.847455,0.201866,-0.014747\
 C,0,-2.724204,-0.47734,0.068175\C,0,-1.363368,0.09699,0.073568\C,0,-0.
 26237,-0.663789,-0.019235\H,0,-4.826877,-0.303283,0.042551\H,0,-3.8936
 15,1.251528,-0.16361\H,0,-2.874449,-1.569367,0.136032\H,0,-1.292337,1.
 171876,0.015119\H,0,-0.360973,-1.781779,0.001927\H,0,0.784986,-0.25380
 9,0.035922\\Version=ES64L-G09RevD.01\State=1-A\HF=-155.6942279\MP2=-15
 5.9202624\RMSD=8.502e-09\PG=C01 [X(C4H6)]\\@

 Normal termination of Gaussian 09 at Wed Aug 26 09:17:12 2020.
