 Gaussian 09, Revision D.01,
 Gaussian 09:  ES64L-G09RevD.01 24-Apr-2013

 --------------------
 #p B2PLYPD3/Def2QZVP
 --------------------

 ---------
 butadiene
 ---------
 Symbolic Z-matrix:
 Charge =  0 Multiplicity = 1

                         Standard orientation:
 ---------------------------------------------------------------------
 Center     Atomic      Atomic             Coordinates (Angstroms)
 Number     Number       Type             X           Y           Z
 ---------------------------------------------------------------------
      1          6           0        1.870224   -0.098000    0.072949
      2          6           0        0.633695    0.343755   -0.062060
      3          6           0       -0.644489   -0.455764   -0.073044
      4          6           0       -1.850122    0.162441    0.021132
      5          1           0        2.598169    0.617674   -0.105135
      6          1           0        2.016694   -1.154327    0.288627
      7          1           0        0.588867    1.503057   -0.179023
      8          1           0       -0.547943   -1.532603   -0.191771
      9          1           0       -1.859071    1.269240    0.299284
     10          1           0       -2.852564   -0.417629    0.134155
 ---------------------------------------------------------------------

 SCF Done:  E(RB2PLYPD3) =  -155.677049390     A.U. after   12 cycles
 E2(B2PLYPD3) =    -0.2275329886D+00 E(B2PLYPD3) =    -0.15590458237883D+03

 The electronic state is 1-A.
 Alpha  occ. eigenvalues --  -10.63861 -10.63551 -10.63300 -10.60720  -0.92102
 Alpha  occ. eigenvalues --   -0.85040  -0.68808  -0.62697  -0.54641  -0.52994
 Alpha  occ. eigenvalues --   -0.46847  -0.44071  -0.40516  -0.37305  -0.28102
 Alpha virt. eigenvalues --    0.01606   0.06861   0.07240   0.07572   0.09246
 Alpha virt. eigenvalues --    0.11557   0.12069   0.14217   0.15587   0.16206
 Alpha virt. eigenvalues --    0.18917   0.19501   0.20899   0.21617   0.23948

 Mulliken charges:
               1
     1  C   -0.189769
     2  C   -0.008105
     3  C   -0.062219
     4  C   -0.153935
     5  H    0.096329
     6  H    0.069136
     7  H    0.035656
     8  H    0.068587
     9  H    0.065612
    10  H    0.078709
 Sum of Mulliken charges =   0.00000

 Dipole moment (field-independent basis, Debye):
    X=             -0.0219    Y=             -0.0913    Z=              0.1507  Tot=              0.1776
 Quadrupole moment (field-independent basis, Debye-Ang):
   XX=            -24.0772   YY=            -23.1466   ZZ=            -29.3554
   XY=              0.3498   XZ=             -0.6876   YZ=             -0.0532

 1\1\GINC-NODE27\SP\RB2PLYPD3-FC\def2QZVP\C4H6\BOITTIER\26-Aug-2020\0\\
 #p B2PLYPD3/Def2QZVP\\butadiene\\0,1\C,0,-3.881029,0.18687,0.085216\C,
 0,-2.733812,-0.456717,-0.024632\C,0,-1.341688,0.121193,-0.058035\C,0,-
 0.253948,-0.682303,0.067714\H,0,-4.716594,-0.406059,-0.069944\H,0,-3.8
 52075,1.260514,0.259134\H,0,-2.87995,-1.611331,-0.096611\H,0,-1.260081
 ,1.193815,-0.218731\H,0,-0.426901,-1.763861,0.388295\H,0,0.830127,-0.2
 70615,0.164869\\Version=ES64L-G09RevD.01\State=1-A\HF=-155.6770494\MP2
 =-155.9045824\RMSD=3.241e-09\PG=C01 [X(C4H6)]\\@

 Normal termination of Gaussian 09 at Wed Aug 26 11:47:56 2020.
