 Gaussian 09, Revision D.01,
 Gaussian 09:  ES64L-G09RevD.01 24-Apr-2013

 --------------------
 #p B2PLYPD3/Def2QZVP
 --------------------

 ---------
 butadiene
 ---------
 Symbolic Z-matrix:
 Charge =  0 Multiplicity = 1

                         Standard orientation:
 ---------------------------------------------------------------------
 Center     Atomic      Atomic             Coordinates (Angstroms)
 Number     Number       Type             X           Y           Z
 ---------------------------------------------------------------------
      1          6           0        1.870007   -0.153564   -0.022390
      2          6           0        0.614307    0.425238   -0.014031
      3          6           0       -0.625366   -0.327787    0.038036
      4          6           0       -1.868205    0.060519   -0.041760
      5          1           0        2.702789    0.458068    0.254405
      6          1           0        1.958413   -1.180180   -0.197854
      7          1           0        0.546379    1.507041    0.015285
      8          1           0       -0.497684   -1.436584    0.075548
      9          1           0       -1.981826    1.172479   -0.062942
     10          1           0       -2.672526   -0.547261    0.156427
 ---------------------------------------------------------------------

 SCF Done:  E(RB2PLYPD3) =  -155.683219828     A.U. after   12 cycles
 E2(B2PLYPD3) =    -0.2266419511D+00 E(B2PLYPD3) =    -0.15590986177903D+03

 The electronic state is 1-A.
 Alpha  occ. eigenvalues --  -10.63403 -10.62327 -10.62020 -10.60858  -0.92930
 Alpha  occ. eigenvalues --   -0.85292  -0.70875  -0.63505  -0.55272  -0.54157
 Alpha  occ. eigenvalues --   -0.47140  -0.46172  -0.40382  -0.37713  -0.27569
 Alpha virt. eigenvalues --    0.00783   0.07046   0.07530   0.07995   0.09802
 Alpha virt. eigenvalues --    0.11688   0.12421   0.14563   0.15704   0.16109
 Alpha virt. eigenvalues --    0.18855   0.20392   0.21038   0.22254   0.24046

 Mulliken charges:
               1
     1  C   -0.184921
     2  C   -0.047726
     3  C   -0.009600
     4  C   -0.164946
     5  H    0.093559
     6  H    0.080416
     7  H    0.055481
     8  H    0.034757
     9  H    0.047831
    10  H    0.095148
 Sum of Mulliken charges =   0.00000

 Dipole moment (field-independent basis, Debye):
    X=              0.0661    Y=             -0.0324    Z=              0.2409  Tot=              0.2519
 Quadrupole moment (field-independent basis, Debye-Ang):
   XX=            -23.5606   YY=            -23.3963   ZZ=            -29.1137
   XY=              0.2383   XZ=              0.0014   YZ=              0.2212

 1\1\GINC-NODE06\SP\RB2PLYPD3-FC\def2QZVP\C4H6\BOITTIER\26-Aug-2020\0\\
 #p B2PLYPD3/Def2QZVP\\butadiene\\0,1\C,0,-3.86773,0.260522,-0.002545\C
 ,0,-2.731821,-0.527064,0.033269\C,0,-1.379789,0.000274,0.054993\C,0,-0
 .223911,-0.601455,-0.005546\H,0,-4.792618,-0.184376,0.298925\H,0,-3.77
 7216,1.278347,-0.222507\H,0,-2.852931,-1.601904,0.109575\H,0,-1.312447
 ,1.114944,0.044169\H,0,-0.305557,-1.716087,0.021702\H,0,0.674979,-0.13
 4965,0.167632\\Version=ES64L-G09RevD.01\State=1-A\HF=-155.6832198\MP2=
 -155.9098618\RMSD=2.747e-09\PG=C01 [X(C4H6)]\\@

 Normal termination of Gaussian 09 at Wed Aug 26 12:33:18 2020.
