 Gaussian 09, Revision D.01,
 Gaussian 09:  ES64L-G09RevD.01 24-Apr-2013

 --------------------
 #p B2PLYPD3/Def2QZVP
 --------------------

 ---------
 butadiene
 ---------
 Symbolic Z-matrix:
 Charge =  0 Multiplicity = 1

                         Standard orientation:
 ---------------------------------------------------------------------
 Center     Atomic      Atomic             Coordinates (Angstroms)
 Number     Number       Type             X           Y           Z
 ---------------------------------------------------------------------
      1          6           0        1.839008   -0.123326   -0.025631
      2          6           0        0.616135    0.403663    0.008759
      3          6           0       -0.616885   -0.379321    0.017267
      4          6           0       -1.853189    0.100201   -0.008381
      5          1           0        2.751475    0.493364    0.050673
      6          1           0        1.974281   -1.193986   -0.039731
      7          1           0        0.514297    1.508971    0.044213
      8          1           0       -0.449237   -1.435480    0.066798
      9          1           0       -1.996623    1.177878   -0.046332
     10          1           0       -2.704607   -0.558053   -0.027707
 ---------------------------------------------------------------------

 SCF Done:  E(RB2PLYPD3) =  -155.699831112     A.U. after   11 cycles
 E2(B2PLYPD3) =    -0.2255992833D+00 E(B2PLYPD3) =    -0.15592543039552D+03

 The electronic state is 1-A.
 Alpha  occ. eigenvalues --  -10.62801 -10.62273 -10.61752 -10.61443  -0.92965
 Alpha  occ. eigenvalues --   -0.85127  -0.70005  -0.63861  -0.54624  -0.53799
 Alpha  occ. eigenvalues --   -0.46957  -0.45513  -0.40753  -0.38114  -0.27943
 Alpha virt. eigenvalues --    0.01808   0.06980   0.07418   0.08006   0.09741
 Alpha virt. eigenvalues --    0.11685   0.12400   0.14618   0.15805   0.16095
 Alpha virt. eigenvalues --    0.18830   0.20382   0.21474   0.22753   0.23845

 Mulliken charges:
               1
     1  C   -0.173242
     2  C   -0.027521
     3  C   -0.028446
     4  C   -0.177499
     5  H    0.085399
     6  H    0.063393
     7  H    0.047843
     8  H    0.052198
     9  H    0.066489
    10  H    0.091388
 Sum of Mulliken charges =   0.00000

 Dipole moment (field-independent basis, Debye):
    X=              0.0235    Y=             -0.0335    Z=              0.0572  Tot=              0.0704
 Quadrupole moment (field-independent basis, Debye-Ang):
   XX=            -23.4194   YY=            -23.2024   ZZ=            -29.2609
   XY=             -0.0267   XZ=              0.2610   YZ=              0.0210

 1\1\GINC-NODE31\SP\RB2PLYPD3-FC\def2QZVP\C4H6\BOITTIER\26-Aug-2020\0\\
 #p B2PLYPD3/Def2QZVP\\butadiene\\0,1\C,0,-3.842369,0.230004,-0.002775\
 C,0,-2.731353,-0.503095,0.047499\C,0,-1.379599,0.050058,0.031396\C,0,-
 0.247342,-0.640533,0.020188\H,0,-4.848793,-0.213494,0.092854\H,0,-3.78
 6886,1.306809,-0.049928\H,0,-2.82573,-1.607443,0.117078\H,0,-1.358173,
 1.120238,0.048302\H,0,-0.296329,-1.727262,0.01553\H,0,0.706645,-0.1436
 45,-0.019756\\Version=ES64L-G09RevD.01\State=1-A\HF=-155.6998311\MP2=-
 155.9254304\RMSD=2.900e-09\PG=C01 [X(C4H6)]\\@

 Normal termination of Gaussian 09 at Wed Aug 26 20:22:50 2020.
