 Gaussian 09, Revision D.01,
 Gaussian 09:  ES64L-G09RevD.01 24-Apr-2013

 --------------------
 #p B2PLYPD3/Def2QZVP
 --------------------

 ---------
 butadiene
 ---------
 Symbolic Z-matrix:
 Charge =  0 Multiplicity = 1

                         Standard orientation:
 ---------------------------------------------------------------------
 Center     Atomic      Atomic             Coordinates (Angstroms)
 Number     Number       Type             X           Y           Z
 ---------------------------------------------------------------------
      1          6           0        1.853157    0.102280   -0.006271
      2          6           0        0.612972   -0.389622    0.003803
      3          6           0       -0.615058    0.418318    0.022716
      4          6           0       -1.845469   -0.126422   -0.020491
      5          1           0        2.708817   -0.563391   -0.020721
      6          1           0        2.005101    1.177230   -0.090379
      7          1           0        0.468948   -1.467572    0.109555
      8          1           0       -0.471374    1.510852    0.070643
      9          1           0       -2.006327   -1.186272   -0.072803
     10          1           0       -2.738782    0.501824    0.005156
 ---------------------------------------------------------------------

 SCF Done:  E(RB2PLYPD3) =  -155.699599808     A.U. after   11 cycles
 E2(B2PLYPD3) =    -0.2261398088D+00 E(B2PLYPD3) =    -0.15592573961636D+03

 The electronic state is 1-A.
 Alpha  occ. eigenvalues --  -10.63123 -10.62630 -10.61826 -10.61574  -0.92592
 Alpha  occ. eigenvalues --   -0.84783  -0.69937  -0.63799  -0.54372  -0.53706
 Alpha  occ. eigenvalues --   -0.46750  -0.45628  -0.40944  -0.37799  -0.27745
 Alpha virt. eigenvalues --    0.01696   0.07012   0.07359   0.08003   0.09404
 Alpha virt. eigenvalues --    0.11666   0.12355   0.14663   0.15672   0.16116
 Alpha virt. eigenvalues --    0.18803   0.20225   0.21588   0.22878   0.23743

 Mulliken charges:
               1
     1  C   -0.180012
     2  C   -0.025203
     3  C   -0.039156
     4  C   -0.174106
     5  H    0.088582
     6  H    0.065770
     7  H    0.054247
     8  H    0.054902
     9  H    0.070389
    10  H    0.084587
 Sum of Mulliken charges =   0.00000

 Dipole moment (field-independent basis, Debye):
    X=             -0.0372    Y=             -0.0218    Z=              0.0093  Tot=              0.0441
 Quadrupole moment (field-independent basis, Debye-Ang):
   XX=            -23.5401   YY=            -23.0793   ZZ=            -29.3615
   XY=              0.1651   XZ=             -0.0820   YZ=             -0.0536

 1\1\GINC-NODE21\SP\RB2PLYPD3-FC\def2QZVP\C4H6\BOITTIER\26-Aug-2020\0\\
 #p B2PLYPD3/Def2QZVP\\butadiene\\0,1\C,0,-3.857016,0.215126,0.026173\C
 ,0,-2.724168,-0.489694,0.029698\C,0,-1.372069,0.086113,-0.008507\C,0,-
 0.258048,-0.66761,0.049609\H,0,-4.817392,-0.287097,0.056663\H,0,-3.814
 999,1.301723,0.08292\H,0,-2.774589,-1.578375,-0.048618\H,0,-1.31927,1.
 185229,-0.08419\H,0,-0.288117,-1.737521,0.128865\H,0,0.732683,-0.20918
 4,0.008908\\Version=ES64L-G09RevD.01\State=1-A\HF=-155.6995998\MP2=-15
 5.9257396\RMSD=5.744e-09\PG=C01 [X(C4H6)]\\@

 Normal termination of Gaussian 09 at Wed Aug 26 19:01:58 2020.
