 Gaussian 09, Revision D.01,
 Gaussian 09:  ES64L-G09RevD.01 24-Apr-2013

 --------------------
 #p B2PLYPD3/Def2QZVP
 --------------------

 ---------
 butadiene
 ---------
 Symbolic Z-matrix:
 Charge =  0 Multiplicity = 1

                         Standard orientation:
 ---------------------------------------------------------------------
 Center     Atomic      Atomic             Coordinates (Angstroms)
 Number     Number       Type             X           Y           Z
 ---------------------------------------------------------------------
      1          6           0       -1.817075   -0.119329    0.017262
      2          6           0       -0.602990    0.417937   -0.043303
      3          6           0        0.585408   -0.393229   -0.016521
      4          6           0        1.835808    0.086844    0.034596
      5          1           0       -2.685311    0.490115    0.120689
      6          1           0       -1.986736   -1.159477   -0.019419
      7          1           0       -0.489190    1.526343    0.012165
      8          1           0        0.388919   -1.435459   -0.055989
      9          1           0        2.057844    1.138034   -0.073665
     10          1           0        2.707574   -0.512893    0.064013
 ---------------------------------------------------------------------

 SCF Done:  E(RB2PLYPD3) =  -155.697450198     A.U. after   11 cycles
 E2(B2PLYPD3) =    -0.2254648643D+00 E(B2PLYPD3) =    -0.15592291506222D+03

 The electronic state is 1-A.
 Alpha  occ. eigenvalues --  -10.62570 -10.62285 -10.61223 -10.60972  -0.93325
 Alpha  occ. eigenvalues --   -0.84940  -0.70797  -0.64326  -0.55216  -0.53961
 Alpha  occ. eigenvalues --   -0.46914  -0.45699  -0.41298  -0.38242  -0.27508
 Alpha virt. eigenvalues --    0.01649   0.07070   0.07432   0.08155   0.09502
 Alpha virt. eigenvalues --    0.11701   0.12641   0.14921   0.15769   0.16370
 Alpha virt. eigenvalues --    0.18779   0.20311   0.22145   0.23305   0.23555

 Mulliken charges:
               1
     1  C   -0.177375
     2  C   -0.019426
     3  C   -0.035993
     4  C   -0.174139
     5  H    0.082860
     6  H    0.066590
     7  H    0.053461
     8  H    0.058652
     9  H    0.062782
    10  H    0.082588
 Sum of Mulliken charges =   0.00000

 Dipole moment (field-independent basis, Debye):
    X=             -0.0601    Y=             -0.0280    Z=             -0.0049  Tot=              0.0665
 Quadrupole moment (field-independent basis, Debye-Ang):
   XX=            -23.2950   YY=            -23.1893   ZZ=            -29.1329
   XY=              0.3729   XZ=             -0.3414   YZ=              0.0628

 1\1\GINC-NODE14\SP\RB2PLYPD3-FC\def2QZVP\C4H6\BOITTIER\26-Aug-2020\0\\
 #p B2PLYPD3/Def2QZVP\\butadiene\\0,1\C,0,-3.815361,0.239033,-0.004647\
 C,0,-2.722541,-0.513072,0.075402\C,0,-1.403882,0.061654,0.032679\C,0,-
 0.264786,-0.644008,-0.000252\H,0,-4.781956,-0.200639,-0.095943\H,0,-3.
 788328,1.293183,0.004002\H,0,-2.817178,-1.624362,0.049513\H,0,-1.40281
 9,1.122918,0.043939\H,0,-0.242345,-1.714901,0.136514\H,0,0.703404,-0.2
 18058,-0.041482\\Version=ES64L-G09RevD.01\State=1-A\HF=-155.6974502\MP
 2=-155.9229151\RMSD=3.791e-09\PG=C01 [X(C4H6)]\\@

 Normal termination of Gaussian 09 at Wed Aug 26 10:27:29 2020.
