 Gaussian 09, Revision D.01,
 Gaussian 09:  ES64L-G09RevD.01 24-Apr-2013

 --------------------
 #p B2PLYPD3/Def2QZVP
 --------------------

 ---------
 butadiene
 ---------
 Symbolic Z-matrix:
 Charge =  0 Multiplicity = 1

                         Standard orientation:
 ---------------------------------------------------------------------
 Center     Atomic      Atomic             Coordinates (Angstroms)
 Number     Number       Type             X           Y           Z
 ---------------------------------------------------------------------
      1          6           0        1.838786   -0.123996    0.000699
      2          6           0        0.611342    0.405152   -0.024757
      3          6           0       -0.615354   -0.383261   -0.015995
      4          6           0       -1.835886    0.110763    0.005081
      5          1           0        2.730812    0.520184    0.081906
      6          1           0        1.975948   -1.203455    0.010190
      7          1           0        0.494423    1.494933    0.015001
      8          1           0       -0.505051   -1.450697    0.037333
      9          1           0       -2.030087    1.166153    0.034268
     10          1           0       -2.659374   -0.579071    0.031132
 ---------------------------------------------------------------------

 SCF Done:  E(RB2PLYPD3) =  -155.700156927     A.U. after   11 cycles
 E2(B2PLYPD3) =    -0.2253694309D+00 E(B2PLYPD3) =    -0.15592552635803D+03

 The electronic state is 1-A.
 Alpha  occ. eigenvalues --  -10.62652 -10.62050 -10.61837 -10.60996  -0.93060
 Alpha  occ. eigenvalues --   -0.85199  -0.69868  -0.63985  -0.54418  -0.54143
 Alpha  occ. eigenvalues --   -0.46543  -0.45752  -0.40971  -0.38159  -0.27899
 Alpha virt. eigenvalues --    0.01949   0.06985   0.07421   0.08002   0.09723
 Alpha virt. eigenvalues --    0.11735   0.12309   0.14763   0.15829   0.16049
 Alpha virt. eigenvalues --    0.18749   0.20423   0.21462   0.22758   0.24141

 Mulliken charges:
               1
     1  C   -0.174881
     2  C   -0.034083
     3  C   -0.024058
     4  C   -0.177378
     5  H    0.085264
     6  H    0.066905
     7  H    0.052584
     8  H    0.052385
     9  H    0.069006
    10  H    0.084257
 Sum of Mulliken charges =   0.00000

 Dipole moment (field-independent basis, Debye):
    X=             -0.0133    Y=             -0.0082    Z=              0.1634  Tot=              0.1641
 Quadrupole moment (field-independent basis, Debye-Ang):
   XX=            -23.6774   YY=            -23.0025   ZZ=            -29.2235
   XY=             -0.0572   XZ=              0.1037   YZ=              0.0387

 1\1\GINC-NODE10\SP\RB2PLYPD3-FC\def2QZVP\C4H6\BOITTIER\26-Aug-2020\0\\
 #p B2PLYPD3/Def2QZVP\\butadiene\\0,1\C,0,-3.840022,0.232621,0.024004\C
 ,0,-2.725438,-0.505555,0.015909\C,0,-1.378765,0.053666,0.001823\C,0,-0
 .264577,-0.647328,0.039159\H,0,-4.831419,-0.241104,0.123946\H,0,-3.784
 357,1.31912,0.000427\H,0,-2.802632,-1.597146,0.089007\H,0,-1.298594,1.
 124916,0.022455\H,0,-0.259678,-1.719056,0.100718\H,0,0.667897,-0.11334
 2,0.044965\\Version=ES64L-G09RevD.01\State=1-A\HF=-155.7001569\MP2=-15
 5.9255264\RMSD=5.112e-09\PG=C01 [X(C4H6)]\\@

 Normal termination of Gaussian 09 at Wed Aug 26 19:00:02 2020.
