 Gaussian 09, Revision D.01,
 Gaussian 09:  ES64L-G09RevD.01 24-Apr-2013

 --------------------
 #p B2PLYPD3/Def2QZVP
 --------------------

 ---------
 butadiene
 ---------
 Symbolic Z-matrix:
 Charge =  0 Multiplicity = 1

                         Standard orientation:
 ---------------------------------------------------------------------
 Center     Atomic      Atomic             Coordinates (Angstroms)
 Number     Number       Type             X           Y           Z
 ---------------------------------------------------------------------
      1          6           0        1.872830   -0.111554   -0.014127
      2          6           0        0.626053    0.353846   -0.009331
      3          6           0       -0.629162   -0.414497   -0.089590
      4          6           0       -1.857444    0.127087    0.032549
      5          1           0        2.687664    0.637204    0.143618
      6          1           0        1.919451   -1.158537    0.053593
      7          1           0        0.572244    1.409209    0.068178
      8          1           0       -0.485470   -1.460814    0.156699
      9          1           0       -1.918453    1.262797   -0.064411
     10          1           0       -2.849099   -0.419148    0.125317
 ---------------------------------------------------------------------

 SCF Done:  E(RB2PLYPD3) =  -155.680362652     A.U. after   11 cycles
 E2(B2PLYPD3) =    -0.2272679549D+00 E(B2PLYPD3) =    -0.15590763060717D+03

 The electronic state is 1-A.
 Alpha  occ. eigenvalues --  -10.63478 -10.63175 -10.62118 -10.61310  -0.92815
 Alpha  occ. eigenvalues --   -0.85053  -0.69344  -0.64056  -0.54467  -0.53268
 Alpha  occ. eigenvalues --   -0.46615  -0.44776  -0.40850  -0.37576  -0.28052
 Alpha virt. eigenvalues --    0.01364   0.06906   0.07508   0.07745   0.09197
 Alpha virt. eigenvalues --    0.11604   0.12379   0.14258   0.15224   0.16271
 Alpha virt. eigenvalues --    0.18523   0.19430   0.21319   0.22747   0.24521

 Mulliken charges:
               1
     1  C   -0.180151
     2  C   -0.012637
     3  C   -0.043240
     4  C   -0.164929
     5  H    0.088047
     6  H    0.064749
     7  H    0.043003
     8  H    0.056570
     9  H    0.059766
    10  H    0.088822
 Sum of Mulliken charges =   0.00000

 Dipole moment (field-independent basis, Debye):
    X=             -0.1859    Y=              0.0690    Z=              0.3853  Tot=              0.4334
 Quadrupole moment (field-independent basis, Debye-Ang):
   XX=            -23.5615   YY=            -23.4584   ZZ=            -29.3250
   XY=              0.4204   XZ=              0.1619   YZ=             -0.2523

 1\1\GINC-NODE30\SP\RB2PLYPD3-FC\def2QZVP\C4H6\BOITTIER\26-Aug-2020\0\\
 #p B2PLYPD3/Def2QZVP\\butadiene\\0,1\C,0,-3.879395,0.204117,0.019581\C
 ,0,-2.728221,-0.46353,0.030443\C,0,-1.362218,0.082441,-0.060705\C,0,-0
 .241741,-0.655621,0.068541\H,0,-4.807764,-0.395301,0.187821\H,0,-3.749
 749,1.244924,0.072913\H,0,-2.851812,-1.511841,0.12244\H,0,-1.327923,1.
 141272,0.171214\H,0,-0.372146,-1.786699,-0.012812\H,0,0.827656,-0.2820
 91,0.153527\\Version=ES64L-G09RevD.01\State=1-A\HF=-155.6803627\MP2=-1
 55.9076306\RMSD=6.764e-09\PG=C01 [X(C4H6)]\\@

 Normal termination of Gaussian 09 at Wed Aug 26 14:44:34 2020.
