 Gaussian 09, Revision D.01,
 Gaussian 09:  ES64L-G09RevD.01 24-Apr-2013

 --------------------
 #p B2PLYPD3/Def2QZVP
 --------------------

 ---------
 butadiene
 ---------
 Symbolic Z-matrix:
 Charge =  0 Multiplicity = 1

                         Standard orientation:
 ---------------------------------------------------------------------
 Center     Atomic      Atomic             Coordinates (Angstroms)
 Number     Number       Type             X           Y           Z
 ---------------------------------------------------------------------
      1          6           0       -1.837041   -0.115598   -0.001526
      2          6           0       -0.608378    0.407507   -0.011950
      3          6           0        0.612456   -0.381239   -0.027654
      4          6           0        1.839429    0.107661    0.012782
      5          1           0       -2.746149    0.485131    0.050993
      6          1           0       -1.995906   -1.218784    0.030013
      7          1           0       -0.525679    1.501115    0.035988
      8          1           0        0.496805   -1.453841    0.016986
      9          1           0        2.061524    1.152823   -0.023146
     10          1           0        2.670614   -0.576432    0.059256
 ---------------------------------------------------------------------

 SCF Done:  E(RB2PLYPD3) =  -155.699731190     A.U. after   11 cycles
 E2(B2PLYPD3) =    -0.2255279956D+00 E(B2PLYPD3) =    -0.15592525918598D+03

 The electronic state is 1-A.
 Alpha  occ. eigenvalues --  -10.62701 -10.62265 -10.61959 -10.61097  -0.93036
 Alpha  occ. eigenvalues --   -0.85115  -0.69996  -0.63882  -0.54541  -0.54110
 Alpha  occ. eigenvalues --   -0.46720  -0.45245  -0.40931  -0.38223  -0.27862
 Alpha virt. eigenvalues --    0.01850   0.06993   0.07420   0.07974   0.09714
 Alpha virt. eigenvalues --    0.11629   0.12378   0.14684   0.15868   0.16211
 Alpha virt. eigenvalues --    0.18829   0.20430   0.21584   0.22627   0.23873

 Mulliken charges:
               1
     1  C   -0.168722
     2  C   -0.035719
     3  C   -0.025912
     4  C   -0.175289
     5  H    0.084654
     6  H    0.058617
     7  H    0.054014
     8  H    0.055348
     9  H    0.070511
    10  H    0.082499
 Sum of Mulliken charges =   0.00000

 Dipole moment (field-independent basis, Debye):
    X=              0.0035    Y=              0.0138    Z=              0.1237  Tot=              0.1245
 Quadrupole moment (field-independent basis, Debye-Ang):
   XX=            -23.4261   YY=            -23.1158   ZZ=            -29.2436
   XY=              0.0865   XZ=             -0.1005   YZ=             -0.0611

 1\1\GINC-NODE33\SP\RB2PLYPD3-FC\def2QZVP\C4H6\BOITTIER\26-Aug-2020\0\\
 #p B2PLYPD3/Def2QZVP\\butadiene\\0,1\C,0,-3.839677,0.227149,0.013795\C
 ,0,-2.723601,-0.505471,0.045458\C,0,-1.381911,0.053644,0.037615\C,0,-0
 .261586,-0.646769,0.017277\H,0,-4.841298,-0.203752,-0.020709\H,0,-3.79
 9923,1.339276,-0.055807\H,0,-2.836869,-1.59734,0.035093\H,0,-1.305115,
 1.127561,-0.043917\H,0,-0.228784,-1.712927,0.08946\H,0,0.677849,-0.123
 395,-0.050215\\Version=ES64L-G09RevD.01\State=1-A\HF=-155.6997312\MP2=
 -155.9252592\RMSD=3.079e-09\PG=C01 [X(C4H6)]\\@

 Normal termination of Gaussian 09 at Wed Aug 26 21:36:20 2020.
