 Gaussian 09, Revision D.01,
 Gaussian 09:  ES64L-G09RevD.01 24-Apr-2013

 --------------------
 #p B2PLYPD3/Def2QZVP
 --------------------

 ---------
 butadiene
 ---------
 Symbolic Z-matrix:
 Charge =  0 Multiplicity = 1

                         Standard orientation:
 ---------------------------------------------------------------------
 Center     Atomic      Atomic             Coordinates (Angstroms)
 Number     Number       Type             X           Y           Z
 ---------------------------------------------------------------------
      1          6           0       -1.832558   -0.121758    0.003487
      2          6           0       -0.618302    0.411975   -0.014879
      3          6           0        0.607434   -0.381846   -0.013193
      4          6           0        1.846787    0.100854    0.021794
      5          1           0       -2.714233    0.490412    0.082487
      6          1           0       -1.987918   -1.203967   -0.019307
      7          1           0       -0.558580    1.508060   -0.029570
      8          1           0        0.465462   -1.482498    0.003119
      9          1           0        2.044810    1.157516   -0.017272
     10          1           0        2.730294   -0.524873   -0.002716
 ---------------------------------------------------------------------

 SCF Done:  E(RB2PLYPD3) =  -155.700033228     A.U. after   11 cycles
 E2(B2PLYPD3) =    -0.2255807663D+00 E(B2PLYPD3) =    -0.15592561399473D+03

 The electronic state is 1-A.
 Alpha  occ. eigenvalues --  -10.62864 -10.62638 -10.61466 -10.61372  -0.92895
 Alpha  occ. eigenvalues --   -0.85137  -0.70020  -0.63702  -0.54751  -0.53880
 Alpha  occ. eigenvalues --   -0.46803  -0.45192  -0.40875  -0.38158  -0.27896
 Alpha virt. eigenvalues --    0.01871   0.07010   0.07376   0.07970   0.09660
 Alpha virt. eigenvalues --    0.11605   0.12474   0.14622   0.15828   0.16336
 Alpha virt. eigenvalues --    0.18842   0.20267   0.21820   0.22722   0.23676

 Mulliken charges:
               1
     1  C   -0.170619
     2  C   -0.029928
     3  C   -0.030982
     4  C   -0.170941
     5  H    0.085150
     6  H    0.063073
     7  H    0.054093
     8  H    0.051379
     9  H    0.064172
    10  H    0.084604
 Sum of Mulliken charges =   0.00000

 Dipole moment (field-independent basis, Debye):
    X=             -0.0385    Y=              0.0264    Z=             -0.0079  Tot=              0.0473
 Quadrupole moment (field-independent basis, Debye-Ang):
   XX=            -23.2928   YY=            -23.1768   ZZ=            -29.2612
   XY=              0.0901   XZ=             -0.2478   YZ=              0.0130

 1\1\GINC-NODE15\SP\RB2PLYPD3-FC\def2QZVP\C4H6\BOITTIER\26-Aug-2020\0\\
 #p B2PLYPD3/Def2QZVP\\butadiene\\0,1\C,0,-3.834323,0.229522,0.010591\C
 ,0,-2.733538,-0.509646,0.049706\C,0,-1.386761,0.054542,0.028097\C,0,-0
 .252351,-0.640503,0.012409\H,0,-4.810493,-0.219277,-0.052777\H,0,-3.79
 5842,1.322331,-0.000382\H,0,-2.868533,-1.598042,0.098227\H,0,-1.331915
 ,1.161922,-0.022481\H,0,-0.244208,-1.713815,0.084584\H,0,0.727918,-0.1
 80372,0.020905\\Version=ES64L-G09RevD.01\State=1-A\HF=-155.7000332\MP2
 =-155.925614\RMSD=2.531e-09\PG=C01 [X(C4H6)]\\@

 Normal termination of Gaussian 09 at Wed Aug 26 14:02:39 2020.
