 Gaussian 09, Revision D.01,
 Gaussian 09:  ES64L-G09RevD.01 24-Apr-2013

 --------------------
 #p B2PLYPD3/Def2QZVP
 --------------------

 ---------
 butadiene
 ---------
 Symbolic Z-matrix:
 Charge =  0 Multiplicity = 1

                         Standard orientation:
 ---------------------------------------------------------------------
 Center     Atomic      Atomic             Coordinates (Angstroms)
 Number     Number       Type             X           Y           Z
 ---------------------------------------------------------------------
      1          6           0        1.855315    0.097499    0.006924
      2          6           0        0.601609   -0.386093   -0.020926
      3          6           0       -0.612507    0.414288   -0.021257
      4          6           0       -1.841959   -0.121778    0.015821
      5          1           0        2.718753   -0.537019    0.006049
      6          1           0        2.032078    1.157976    0.109659
      7          1           0        0.412293   -1.459243   -0.018000
      8          1           0       -0.491871    1.484974   -0.056834
      9          1           0       -1.960255   -1.179369    0.054664
     10          1           0       -2.725745    0.509184    0.021089
 ---------------------------------------------------------------------

 SCF Done:  E(RB2PLYPD3) =  -155.700409288     A.U. after   11 cycles
 E2(B2PLYPD3) =    -0.2259153819D+00 E(B2PLYPD3) =    -0.15592632467003D+03

 The electronic state is 1-A.
 Alpha  occ. eigenvalues --  -10.62727 -10.62522 -10.61555 -10.61553  -0.92878
 Alpha  occ. eigenvalues --   -0.84780  -0.70405  -0.64229  -0.54630  -0.53887
 Alpha  occ. eigenvalues --   -0.46785  -0.45954  -0.41210  -0.37975  -0.27560
 Alpha virt. eigenvalues --    0.01507   0.07008   0.07459   0.08107   0.09546
 Alpha virt. eigenvalues --    0.11689   0.12481   0.14750   0.15852   0.16100
 Alpha virt. eigenvalues --    0.18814   0.20581   0.21586   0.22958   0.23660

 Mulliken charges:
               1
     1  C   -0.178671
     2  C   -0.030745
     3  C   -0.028049
     4  C   -0.178708
     5  H    0.088506
     6  H    0.065874
     7  H    0.051007
     8  H    0.055541
     9  H    0.067832
    10  H    0.087413
 Sum of Mulliken charges =   0.00000

 Dipole moment (field-independent basis, Debye):
    X=             -0.0351    Y=              0.0109    Z=              0.0841  Tot=              0.0918
 Quadrupole moment (field-independent basis, Debye-Ang):
   XX=            -23.4084   YY=            -23.1563   ZZ=            -29.2927
   XY=              0.1512   XZ=              0.0982   YZ=              0.0282

 1\1\GINC-NODE40\SP\RB2PLYPD3-FC\def2QZVP\C4H6\BOITTIER\26-Aug-2020\0\\
 #p B2PLYPD3/Def2QZVP\\butadiene\\0,1\C,0,-3.859437,0.214644,0.007965\C
 ,0,-2.713355,-0.485959,0.05343\C,0,-1.374868,0.082152,0.033674\C,0,-0.
 262267,-0.667575,0.015709\H,0,-4.823092,-0.253561,0.025039\H,0,-3.8424
 32,1.286139,-0.126273\H,0,-2.720567,-1.575274,0.082459\H,0,-1.300462,1
 .157622,0.037544\H,0,-0.336624,-1.729844,0.008184\H,0,0.72075,-0.20666
 2,-0.005595\\Version=ES64L-G09RevD.01\State=1-A\HF=-155.7004093\MP2=-1
 55.9263247\RMSD=3.906e-09\PG=C01 [X(C4H6)]\\@

 Normal termination of Gaussian 09 at Wed Aug 26 09:10:34 2020.
