 Gaussian 09, Revision D.01,
 Gaussian 09:  ES64L-G09RevD.01 24-Apr-2013

 --------------------
 #p B2PLYPD3/Def2QZVP
 --------------------

 ---------
 butadiene
 ---------
 Symbolic Z-matrix:
 Charge =  0 Multiplicity = 1

                         Standard orientation:
 ---------------------------------------------------------------------
 Center     Atomic      Atomic             Coordinates (Angstroms)
 Number     Number       Type             X           Y           Z
 ---------------------------------------------------------------------
      1          6           0       -1.832923    0.099819    0.020000
      2          6           0       -0.592730   -0.382849   -0.014926
      3          6           0        0.609239    0.409188   -0.020677
      4          6           0        1.827286   -0.116922    0.003884
      5          1           0       -2.670597   -0.546892    0.006743
      6          1           0       -2.013179    1.170445   -0.034710
      7          1           0       -0.465733   -1.465175    0.023447
      8          1           0        0.457759    1.475710    0.024519
      9          1           0        1.922125   -1.182341   -0.014872
     10          1           0        2.704390    0.492841    0.065182
 ---------------------------------------------------------------------

 SCF Done:  E(RB2PLYPD3) =  -155.700737167     A.U. after   11 cycles
 E2(B2PLYPD3) =    -0.2252469131D+00 E(B2PLYPD3) =    -0.15592598407968D+03

 The electronic state is 1-A.
 Alpha  occ. eigenvalues --  -10.62237 -10.62132 -10.61171 -10.61135  -0.93393
 Alpha  occ. eigenvalues --   -0.85190  -0.70432  -0.64132  -0.54926  -0.54187
 Alpha  occ. eigenvalues --   -0.46837  -0.45731  -0.41251  -0.38374  -0.27708
 Alpha virt. eigenvalues --    0.01797   0.07069   0.07428   0.08132   0.09749
 Alpha virt. eigenvalues --    0.11769   0.12510   0.14808   0.15838   0.16122
 Alpha virt. eigenvalues --    0.18716   0.20339   0.21707   0.22977   0.24152

 Mulliken charges:
               1
     1  C   -0.180971
     2  C   -0.022152
     3  C   -0.027238
     4  C   -0.176772
     5  H    0.087804
     6  H    0.062701
     7  H    0.047372
     8  H    0.053236
     9  H    0.066654
    10  H    0.089367
 Sum of Mulliken charges =   0.00000

 Dipole moment (field-independent basis, Debye):
    X=              0.0289    Y=              0.0025    Z=              0.0353  Tot=              0.0457
 Quadrupole moment (field-independent basis, Debye-Ang):
   XX=            -23.5247   YY=            -23.1151   ZZ=            -29.1444
   XY=             -0.0308   XZ=              0.2377   YZ=              0.0158

 1\1\GINC-NODE37\SP\RB2PLYPD3-FC\def2QZVP\C4H6\BOITTIER\26-Aug-2020\0\\
 #p B2PLYPD3/Def2QZVP\\butadiene\\0,1\C,0,-3.838089,0.215086,0.036672\C
 ,0,-2.70595,-0.485107,0.020654\C,0,-1.380375,0.075528,-0.004346\C,0,-0
 .277777,-0.661573,0.040311\H,0,-4.779102,-0.269263,0.039662\H,0,-3.821
 467,1.298523,-0.050589\H,0,-2.777099,-1.570885,0.091741\H,0,-1.336013,
 1.152712,0.008481\H,0,-0.377594,-1.726618,0.053674\H,0,0.695406,-0.219
 247,0.086585\\Version=ES64L-G09RevD.01\State=1-A\HF=-155.7007372\MP2=-
 155.9259841\RMSD=3.737e-09\PG=C01 [X(C4H6)]\\@

 Normal termination of Gaussian 09 at Wed Aug 26 18:40:19 2020.
