 Gaussian 09, Revision D.01,
 Gaussian 09:  ES64L-G09RevD.01 24-Apr-2013

 --------------------
 #p B2PLYPD3/Def2QZVP
 --------------------

 ---------
 butadiene
 ---------
 Symbolic Z-matrix:
 Charge =  0 Multiplicity = 1

                         Standard orientation:
 ---------------------------------------------------------------------
 Center     Atomic      Atomic             Coordinates (Angstroms)
 Number     Number       Type             X           Y           Z
 ---------------------------------------------------------------------
      1          6           0       -1.846376    0.090635   -0.033644
      2          6           0       -0.590575   -0.391416    0.022707
      3          6           0        0.615763    0.428989    0.043277
      4          6           0        1.822591   -0.128080   -0.054868
      5          1           0       -2.748058   -0.511648    0.017690
      6          1           0       -2.046426    1.192525   -0.135640
      7          1           0       -0.469968   -1.442750    0.131268
      8          1           0        0.587889    1.537702    0.172230
      9          1           0        1.917465   -1.225752   -0.021523
     10          1           0        2.750681    0.449153   -0.028859
 ---------------------------------------------------------------------

 SCF Done:  E(RB2PLYPD3) =  -155.695010954     A.U. after   11 cycles
 E2(B2PLYPD3) =    -0.2264906702D+00 E(B2PLYPD3) =    -0.15592150162424D+03

 The electronic state is 1-A.
 Alpha  occ. eigenvalues --  -10.62995 -10.62721 -10.62082 -10.61789  -0.92845
 Alpha  occ. eigenvalues --   -0.84640  -0.69590  -0.63866  -0.54500  -0.53660
 Alpha  occ. eigenvalues --   -0.46584  -0.44616  -0.41398  -0.37757  -0.27677
 Alpha virt. eigenvalues --    0.01715   0.07071   0.07322   0.07831   0.09361
 Alpha virt. eigenvalues --    0.11527   0.12471   0.14350   0.15863   0.16406
 Alpha virt. eigenvalues --    0.18851   0.20341   0.21348   0.22410   0.23734

 Mulliken charges:
               1
     1  C   -0.172560
     2  C   -0.038633
     3  C   -0.033359
     4  C   -0.164693
     5  H    0.085032
     6  H    0.059387
     7  H    0.063953
     8  H    0.059748
     9  H    0.059164
    10  H    0.081960
 Sum of Mulliken charges =   0.00000

 Dipole moment (field-independent basis, Debye):
    X=              0.0542    Y=             -0.0108    Z=              0.1779  Tot=              0.1863
 Quadrupole moment (field-independent basis, Debye-Ang):
   XX=            -23.3791   YY=            -23.2089   ZZ=            -29.3544
   XY=              0.0785   XZ=              0.1218   YZ=             -0.1194

 1\1\GINC-NODE10\SP\RB2PLYPD3-FC\def2QZVP\C4H6\BOITTIER\26-Aug-2020\0\\
 #p B2PLYPD3/Def2QZVP\\butadiene\\0,1\C,0,-3.853863,0.199425,-0.014819\
 C,0,-2.702818,-0.494774,0.061118\C,0,-1.370517,0.099962,0.060188\C,0,-
 0.281239,-0.664266,-0.016111\H,0,-4.84763,-0.232254,0.052208\H,0,-3.85
 6383,1.315549,-0.152101\H,0,-2.76955,-1.546927,0.20309\H,0,-1.201889,1
 .199684,0.154137\H,0,-0.381638,-1.759835,0.052048\H,0,0.734254,-0.2594
 54,-0.004953\\Version=ES64L-G09RevD.01\State=1-A\HF=-155.695011\MP2=-1
 55.9215016\RMSD=3.605e-09\PG=C01 [X(C4H6)]\\@

 Normal termination of Gaussian 09 at Wed Aug 26 11:19:15 2020.
