 Gaussian 09, Revision D.01,
 Gaussian 09:  ES64L-G09RevD.01 24-Apr-2013

 --------------------
 #p B2PLYPD3/Def2QZVP
 --------------------

 ---------
 butadiene
 ---------
 Symbolic Z-matrix:
 Charge =  0 Multiplicity = 1

                         Standard orientation:
 ---------------------------------------------------------------------
 Center     Atomic      Atomic             Coordinates (Angstroms)
 Number     Number       Type             X           Y           Z
 ---------------------------------------------------------------------
      1          6           0        1.839456   -0.113668    0.015958
      2          6           0        0.602040    0.413833   -0.022219
      3          6           0       -0.607740   -0.391914   -0.017922
      4          6           0       -1.836125    0.100968    0.025851
      5          1           0        2.756496    0.482832   -0.000097
      6          1           0        1.940330   -1.208409    0.057401
      7          1           0        0.450938    1.474798   -0.047870
      8          1           0       -0.476295   -1.451422   -0.029046
      9          1           0       -1.974428    1.179903    0.064931
     10          1           0       -2.682826   -0.533011   -0.055323
 ---------------------------------------------------------------------

 SCF Done:  E(RB2PLYPD3) =  -155.699842290     A.U. after   11 cycles
 E2(B2PLYPD3) =    -0.2256527149D+00 E(B2PLYPD3) =    -0.15592549500506D+03

 The electronic state is 1-A.
 Alpha  occ. eigenvalues --  -10.62557 -10.62051 -10.62041 -10.61119  -0.93118
 Alpha  occ. eigenvalues --   -0.84909  -0.70047  -0.64363  -0.54732  -0.53845
 Alpha  occ. eigenvalues --   -0.46869  -0.45499  -0.41327  -0.38100  -0.27687
 Alpha virt. eigenvalues --    0.01738   0.07023   0.07432   0.08125   0.09606
 Alpha virt. eigenvalues --    0.11708   0.12505   0.14592   0.15871   0.16119
 Alpha virt. eigenvalues --    0.18758   0.20451   0.21480   0.22849   0.24006

 Mulliken charges:
               1
     1  C   -0.174061
     2  C   -0.036509
     3  C   -0.021919
     4  C   -0.178426
     5  H    0.088289
     6  H    0.062375
     7  H    0.055839
     8  H    0.053228
     9  H    0.062032
    10  H    0.089151
 Sum of Mulliken charges =   0.00000

 Dipole moment (field-independent basis, Debye):
    X=              0.0011    Y=             -0.0057    Z=             -0.0392  Tot=              0.0396
 Quadrupole moment (field-independent basis, Debye-Ang):
   XX=            -23.5084   YY=            -23.1359   ZZ=            -29.2477
   XY=              0.0112   XZ=              0.1523   YZ=              0.0219

 1\1\GINC-NODE29\SP\RB2PLYPD3-FC\def2QZVP\C4H6\BOITTIER\26-Aug-2020\0\\
 #p B2PLYPD3/Def2QZVP\\butadiene\\0,1\C,0,-3.841166,0.228681,0.035644\C
 ,0,-2.718885,-0.513556,0.013642\C,0,-1.383989,0.061364,-0.004664\C,0,-
 0.263997,-0.642856,0.054237\H,0,-4.85054,-0.193452,0.036313\H,0,-3.743
 464,1.324452,0.045191\H,0,-2.761035,-1.584691,0.018933\H,0,-1.322932,1
 .126477,-0.046659\H,0,-0.321672,-1.727503,0.124745\H,0,0.682476,-0.174
 016,-0.044756\\Version=ES64L-G09RevD.01\State=1-A\HF=-155.6998423\MP2=
 -155.925495\RMSD=5.748e-09\PG=C01 [X(C4H6)]\\@

 Normal termination of Gaussian 09 at Wed Aug 26 18:45:48 2020.
