 Gaussian 09, Revision D.01,
 Gaussian 09:  ES64L-G09RevD.01 24-Apr-2013

 --------------------
 #p B2PLYPD3/Def2QZVP
 --------------------

 ---------
 butadiene
 ---------
 Symbolic Z-matrix:
 Charge =  0 Multiplicity = 1

                         Standard orientation:
 ---------------------------------------------------------------------
 Center     Atomic      Atomic             Coordinates (Angstroms)
 Number     Number       Type             X           Y           Z
 ---------------------------------------------------------------------
      1          6           0       -1.843004   -0.108963    0.026608
      2          6           0       -0.604228    0.387376   -0.017292
      3          6           0        0.620114   -0.408533   -0.023375
      4          6           0        1.835937    0.114510    0.010460
      5          1           0       -2.733152    0.544197    0.001603
      6          1           0       -2.042742   -1.172026    0.012915
      7          1           0       -0.487604    1.478316   -0.033865
      8          1           0        0.514344   -1.485697   -0.052144
      9          1           0        1.946491    1.204968    0.014443
     10          1           0        2.749746   -0.476100    0.078644
 ---------------------------------------------------------------------

 SCF Done:  E(RB2PLYPD3) =  -155.700221471     A.U. after   11 cycles
 E2(B2PLYPD3) =    -0.2257068331D+00 E(B2PLYPD3) =    -0.15592592830424D+03

 The electronic state is 1-A.
 Alpha  occ. eigenvalues --  -10.62770 -10.62461 -10.61731 -10.61630  -0.92947
 Alpha  occ. eigenvalues --   -0.85000  -0.69782  -0.63943  -0.54575  -0.53760
 Alpha  occ. eigenvalues --   -0.46823  -0.45121  -0.40926  -0.38142  -0.27883
 Alpha virt. eigenvalues --    0.01869   0.06970   0.07406   0.07966   0.09638
 Alpha virt. eigenvalues --    0.11625   0.12456   0.14545   0.15863   0.16214
 Alpha virt. eigenvalues --    0.18833   0.20392   0.21601   0.22643   0.23760

 Mulliken charges:
               1
     1  C   -0.173455
     2  C   -0.030929
     3  C   -0.031220
     4  C   -0.168446
     5  H    0.082314
     6  H    0.065707
     7  H    0.052755
     8  H    0.055913
     9  H    0.060284
    10  H    0.087076
 Sum of Mulliken charges =   0.00000

 Dipole moment (field-independent basis, Debye):
    X=              0.0315    Y=             -0.0286    Z=             -0.0088  Tot=              0.0435
 Quadrupole moment (field-independent basis, Debye-Ang):
   XX=            -23.3646   YY=            -23.1899   ZZ=            -29.2904
   XY=              0.0465   XZ=              0.2420   YZ=             -0.0243

 1\1\GINC-NODE39\SP\RB2PLYPD3-FC\def2QZVP\C4H6\BOITTIER\26-Aug-2020\0\\
 #p B2PLYPD3/Def2QZVP\\butadiene\\0,1\C,0,-3.848528,0.215073,-0.00501\C
 ,0,-2.716476,-0.490563,0.053139\C,0,-1.370958,0.076723,0.036164\C,0,-0
 .266608,-0.653347,0.017383\H,0,-4.839762,-0.269833,0.038899\H,0,-3.857
 608,1.296652,-0.022015\H,0,-2.793967,-1.584049,0.101208\H,0,-1.284979,
 1.156028,0.033816\H,0,-0.350094,-1.745872,0.044891\H,0,0.736664,-0.235
 385,-0.067882\\Version=ES64L-G09RevD.01\State=1-A\HF=-155.7002215\MP2=
 -155.9259283\RMSD=3.635e-09\PG=C01 [X(C4H6)]\\@

 Normal termination of Gaussian 09 at Wed Aug 26 18:52:06 2020.
