 Gaussian 09, Revision D.01,
 Gaussian 09:  ES64L-G09RevD.01 24-Apr-2013

 --------------------
 #p B2PLYPD3/Def2QZVP
 --------------------

 ---------
 butadiene
 ---------
 Symbolic Z-matrix:
 Charge =  0 Multiplicity = 1

                         Standard orientation:
 ---------------------------------------------------------------------
 Center     Atomic      Atomic             Coordinates (Angstroms)
 Number     Number       Type             X           Y           Z
 ---------------------------------------------------------------------
      1          6           0       -1.876338    0.083059    0.041479
      2          6           0       -0.646328   -0.341951   -0.069422
      3          6           0        0.625672    0.411692   -0.015956
      4          6           0        1.860556   -0.139458    0.072457
      5          1           0       -2.698376   -0.617172   -0.088106
      6          1           0       -1.988869    1.131196    0.260015
      7          1           0       -0.353367   -1.351091   -0.102480
      8          1           0        0.616605    1.587957   -0.212606
      9          1           0        1.910858   -1.240242    0.121784
     10          1           0        2.731781    0.409300   -0.149952
 ---------------------------------------------------------------------

 SCF Done:  E(RB2PLYPD3) =  -155.680306144     A.U. after   12 cycles
 E2(B2PLYPD3) =    -0.2266345745D+00 E(B2PLYPD3) =    -0.15590694071851D+03

 The electronic state is 1-A.
 Alpha  occ. eigenvalues --  -10.64011 -10.62144 -10.61886 -10.61506  -0.92830
 Alpha  occ. eigenvalues --   -0.85374  -0.70440  -0.62917  -0.54792  -0.53696
 Alpha  occ. eigenvalues --   -0.47800  -0.45321  -0.39680  -0.37641  -0.28221
 Alpha virt. eigenvalues --    0.01349   0.07075   0.07333   0.07858   0.09618
 Alpha virt. eigenvalues --    0.11700   0.12238   0.14508   0.15501   0.15968
 Alpha virt. eigenvalues --    0.19145   0.19676   0.20976   0.22500   0.23928

 Mulliken charges:
               1
     1  C   -0.175789
     2  C   -0.025084
     3  C   -0.029956
     4  C   -0.177845
     5  H    0.098924
     6  H    0.076842
     7  H    0.051141
     8  H    0.035475
     9  H    0.052464
    10  H    0.093828
 Sum of Mulliken charges =   0.00000

 Dipole moment (field-independent basis, Debye):
    X=             -0.0241    Y=             -0.1030    Z=             -0.1976  Tot=              0.2241
 Quadrupole moment (field-independent basis, Debye-Ang):
   XX=            -23.4258   YY=            -23.5959   ZZ=            -29.1743
   XY=              0.1074   XZ=             -0.6508   YZ=              0.0090

 1\1\GINC-NODE16\SP\RB2PLYPD3-FC\def2QZVP\C4H6\BOITTIER\26-Aug-2020\0\\
 #p B2PLYPD3/Def2QZVP\\butadiene\\0,1\C,0,-3.882013,0.189225,0.06453\C,
 0,-2.744293,-0.445021,-0.0313\C,0,-1.36149,0.080768,-0.016425\C,0,-0.2
 38343,-0.669691,0.092545\H,0,-4.813235,-0.364563,-0.030369\H,0,-3.8109
 05,1.249708,0.235795\H,0,-2.628893,-1.489928,-0.019671\H,0,-1.171155,1
 .231333,-0.266077\H,0,-0.376775,-1.759525,0.191467\H,0,0.711454,-0.288
 906,-0.157502\\Version=ES64L-G09RevD.01\State=1-A\HF=-155.6803061\MP2=
 -155.9069407\RMSD=2.992e-09\PG=C01 [X(C4H6)]\\@

 Normal termination of Gaussian 09 at Wed Aug 26 12:14:57 2020.
