 Gaussian 09, Revision D.01,
 Gaussian 09:  ES64L-G09RevD.01 24-Apr-2013

 --------------------
 #p B2PLYPD3/Def2QZVP
 --------------------

 ---------
 butadiene
 ---------
 Symbolic Z-matrix:
 Charge =  0 Multiplicity = 1

                         Standard orientation:
 ---------------------------------------------------------------------
 Center     Atomic      Atomic             Coordinates (Angstroms)
 Number     Number       Type             X           Y           Z
 ---------------------------------------------------------------------
      1          6           0        1.832843   -0.111906   -0.011202
      2          6           0        0.601462    0.412870    0.009453
      3          6           0       -0.603446   -0.394869   -0.000955
      4          6           0       -1.832084    0.102414   -0.001309
      5          1           0        2.755706    0.456669   -0.015451
      6          1           0        1.925655   -1.188665   -0.034736
      7          1           0        0.480259    1.507324    0.096000
      8          1           0       -0.459879   -1.458784    0.063253
      9          1           0       -2.018268    1.162749   -0.096945
     10          1           0       -2.676126   -0.530345    0.011954
 ---------------------------------------------------------------------

 SCF Done:  E(RB2PLYPD3) =  -155.700122843     A.U. after   11 cycles
 E2(B2PLYPD3) =    -0.2255058442D+00 E(B2PLYPD3) =    -0.15592562868682D+03

 The electronic state is 1-A.
 Alpha  occ. eigenvalues --  -10.62713 -10.62256 -10.61559 -10.61015  -0.93140
 Alpha  occ. eigenvalues --   -0.85032  -0.70238  -0.64081  -0.54927  -0.53951
 Alpha  occ. eigenvalues --   -0.46903  -0.45415  -0.41252  -0.38148  -0.27718
 Alpha virt. eigenvalues --    0.01814   0.07085   0.07404   0.08085   0.09550
 Alpha virt. eigenvalues --    0.11673   0.12589   0.14669   0.15823   0.16230
 Alpha virt. eigenvalues --    0.18735   0.20404   0.21763   0.22902   0.23858

 Mulliken charges:
               1
     1  C   -0.174485
     2  C   -0.029205
     3  C   -0.028897
     4  C   -0.176302
     5  H    0.088331
     6  H    0.059610
     7  H    0.053375
     8  H    0.055315
     9  H    0.066622
    10  H    0.085636
 Sum of Mulliken charges =   0.00000

 Dipole moment (field-independent basis, Debye):
    X=             -0.0027    Y=             -0.0144    Z=              0.0215  Tot=              0.0260
 Quadrupole moment (field-independent basis, Debye-Ang):
   XX=            -23.3502   YY=            -23.1876   ZZ=            -29.1980
   XY=             -0.0865   XZ=              0.0649   YZ=             -0.0575

 1\1\GINC-NODE07\SP\RB2PLYPD3-FC\def2QZVP\C4H6\BOITTIER\26-Aug-2020\0\\
 #p B2PLYPD3/Def2QZVP\\butadiene\\0,1\C,0,-3.834707,0.226396,0.009442\C
 ,0,-2.718228,-0.511353,0.045752\C,0,-1.387344,0.064955,0.014639\C,0,-0
 .268681,-0.645836,0.029195\H,0,-4.845062,-0.166094,0.019689\H,0,-3.731
 692,1.301178,-0.043552\H,0,-2.796271,-1.606957,0.162248\H,0,-1.336231,
 1.138645,0.049649\H,0,-0.277351,-1.724551,-0.037282\H,0,0.675772,-0.17
 5764,0.026121\\Version=ES64L-G09RevD.01\State=1-A\HF=-155.7001228\MP2=
 -155.9256287\RMSD=3.407e-09\PG=C01 [X(C4H6)]\\@

 Normal termination of Gaussian 09 at Wed Aug 26 20:01:28 2020.
