 Gaussian 09, Revision D.01,
 Gaussian 09:  ES64L-G09RevD.01 24-Apr-2013

 --------------------
 #p B2PLYPD3/Def2QZVP
 --------------------

 ---------
 butadiene
 ---------
 Symbolic Z-matrix:
 Charge =  0 Multiplicity = 1

                         Standard orientation:
 ---------------------------------------------------------------------
 Center     Atomic      Atomic             Coordinates (Angstroms)
 Number     Number       Type             X           Y           Z
 ---------------------------------------------------------------------
      1          6           0       -1.835526   -0.118379   -0.006234
      2          6           0       -0.606544    0.410235   -0.027816
      3          6           0        0.592575   -0.368372   -0.001788
      4          6           0        1.858213    0.083618    0.011875
      5          1           0       -2.712001    0.519841    0.062611
      6          1           0       -2.015765   -1.185480    0.001483
      7          1           0       -0.523912    1.484703    0.075100
      8          1           0        0.400060   -1.461117    0.048219
      9          1           0        2.106801    1.135012   -0.024589
     10          1           0        2.692507   -0.535569   -0.019045
 ---------------------------------------------------------------------

 SCF Done:  E(RB2PLYPD3) =  -155.697517052     A.U. after   11 cycles
 E2(B2PLYPD3) =    -0.2259709541D+00 E(B2PLYPD3) =    -0.15592348800606D+03

 The electronic state is 1-A.
 Alpha  occ. eigenvalues --  -10.62819 -10.62397 -10.61749 -10.61232  -0.93156
 Alpha  occ. eigenvalues --   -0.84866  -0.70987  -0.63905  -0.55157  -0.53799
 Alpha  occ. eigenvalues --   -0.46997  -0.45474  -0.41109  -0.38202  -0.27509
 Alpha virt. eigenvalues --    0.01284   0.07036   0.07436   0.08042   0.09764
 Alpha virt. eigenvalues --    0.11593   0.12516   0.14883   0.15780   0.16193
 Alpha virt. eigenvalues --    0.18913   0.20383   0.21959   0.22760   0.23444

 Mulliken charges:
               1
     1  C   -0.174226
     2  C   -0.024702
     3  C   -0.029982
     4  C   -0.175114
     5  H    0.083158
     6  H    0.066042
     7  H    0.057180
     8  H    0.047385
     9  H    0.061903
    10  H    0.088357
 Sum of Mulliken charges =   0.00000

 Dipole moment (field-independent basis, Debye):
    X=             -0.0469    Y=              0.0191    Z=              0.1050  Tot=              0.1166
 Quadrupole moment (field-independent basis, Debye-Ang):
   XX=            -23.1438   YY=            -23.2915   ZZ=            -29.2359
   XY=              0.2757   XZ=             -0.3567   YZ=              0.0711

 1\1\GINC-NODE30\SP\RB2PLYPD3-FC\def2QZVP\C4H6\BOITTIER\26-Aug-2020\0\\
 #p B2PLYPD3/Def2QZVP\\butadiene\\0,1\C,0,-3.835018,0.240184,0.016477\C
 ,0,-2.724463,-0.505004,0.057223\C,0,-1.402425,0.038476,0.016742\C,0,-0
 .241733,-0.639093,0.02046\H,0,-4.81409,-0.227255,-0.040004\H,0,-3.8155
 67,1.321657,-0.019407\H,0,-2.841231,-1.578617,-0.017747\H,0,-1.390326,
 1.146306,-0.06213\H,0,-0.191104,-1.716974,0.084991\H,0,0.692366,-0.183
 573,0.039322\\Version=ES64L-G09RevD.01\State=1-A\HF=-155.6975171\MP2=-
 155.923488\RMSD=4.021e-09\PG=C01 [X(C4H6)]\\@

 Normal termination of Gaussian 09 at Wed Aug 26 11:20:58 2020.
