 Gaussian 09, Revision D.01,
 Gaussian 09:  ES64L-G09RevD.01 24-Apr-2013

 --------------------
 #p B2PLYPD3/Def2QZVP
 --------------------

 ---------
 butadiene
 ---------
 Symbolic Z-matrix:
 Charge =  0 Multiplicity = 1

                         Standard orientation:
 ---------------------------------------------------------------------
 Center     Atomic      Atomic             Coordinates (Angstroms)
 Number     Number       Type             X           Y           Z
 ---------------------------------------------------------------------
      1          6           0       -1.833488   -0.107349    0.033266
      2          6           0       -0.613709    0.421504   -0.057878
      3          6           0        0.596910   -0.405103   -0.047126
      4          6           0        1.844105    0.099069    0.051435
      5          1           0       -2.702410    0.473840    0.087996
      6          1           0       -1.944462   -1.202924    0.043329
      7          1           0       -0.433818    1.469830   -0.045067
      8          1           0        0.396017   -1.423363   -0.003156
      9          1           0        1.995352    1.175850    0.067432
     10          1           0        2.726417   -0.541959   -0.028720
 ---------------------------------------------------------------------

 SCF Done:  E(RB2PLYPD3) =  -155.696341635     A.U. after   11 cycles
 E2(B2PLYPD3) =    -0.2257632999D+00 E(B2PLYPD3) =    -0.15592210493531D+03

 The electronic state is 1-A.
 Alpha  occ. eigenvalues --  -10.62300 -10.62229 -10.61857 -10.61397  -0.92989
 Alpha  occ. eigenvalues --   -0.84717  -0.70270  -0.64885  -0.54903  -0.53516
 Alpha  occ. eigenvalues --   -0.47161  -0.45883  -0.41261  -0.37852  -0.27615
 Alpha virt. eigenvalues --    0.01648   0.07030   0.07432   0.08310   0.09323
 Alpha virt. eigenvalues --    0.11773   0.12546   0.14628   0.15748   0.16107
 Alpha virt. eigenvalues --    0.18806   0.20109   0.21726   0.23409   0.23815

 Mulliken charges:
               1
     1  C   -0.175063
     2  C   -0.030760
     3  C   -0.034838
     4  C   -0.177863
     5  H    0.089650
     6  H    0.060598
     7  H    0.056828
     8  H    0.062548
     9  H    0.063765
    10  H    0.085136
 Sum of Mulliken charges =   0.00000

 Dipole moment (field-independent basis, Debye):
    X=             -0.0719    Y=              0.0144    Z=              0.0355  Tot=              0.0815
 Quadrupole moment (field-independent basis, Debye-Ang):
   XX=            -23.5306   YY=            -23.1268   ZZ=            -29.2493
   XY=              0.2103   XZ=             -0.3108   YZ=              0.0639

 1\1\GINC-NODE25\SP\RB2PLYPD3-FC\def2QZVP\C4H6\BOITTIER\26-Aug-2020\0\\
 #p B2PLYPD3/Def2QZVP\\butadiene\\0,1\C,0,-3.833793,0.227024,-0.021064\
 C,0,-2.731854,-0.514026,0.090428\C,0,-1.389955,0.075372,0.060256\C,0,-
 0.25681,-0.652076,-0.018488\H,0,-4.794807,-0.185967,-0.062183\H,0,-3.7
 4154,1.32355,-0.063716\H,0,-2.747713,-1.577469,0.109105\H,0,-1.400349,
 1.111454,-0.014378\H,0,-0.30606,-1.738308,-0.002275\H,0,0.728402,-0.18
 2,0.046343\\Version=ES64L-G09RevD.01\State=1-A\HF=-155.6963416\MP2=-15
 5.9221049\RMSD=5.488e-09\PG=C01 [X(C4H6)]\\@

 Normal termination of Gaussian 09 at Wed Aug 26 10:33:02 2020.
