 Gaussian 09, Revision D.01,
 Gaussian 09:  ES64L-G09RevD.01 24-Apr-2013

 --------------------
 #p B2PLYPD3/Def2QZVP
 --------------------

 ---------
 butadiene
 ---------
 Symbolic Z-matrix:
 Charge =  0 Multiplicity = 1

                         Standard orientation:
 ---------------------------------------------------------------------
 Center     Atomic      Atomic             Coordinates (Angstroms)
 Number     Number       Type             X           Y           Z
 ---------------------------------------------------------------------
      1          6           0       -1.825259    0.124901    0.092592
      2          6           0       -0.639451   -0.407635   -0.084097
      3          6           0        0.592854    0.346967   -0.099104
      4          6           0        1.859160   -0.097716    0.046396
      5          1           0       -2.725413   -0.445430    0.101169
      6          1           0       -1.930223    1.206293    0.032419
      7          1           0       -0.650039   -1.481506   -0.050956
      8          1           0        0.543392    1.469164   -0.174316
      9          1           0        2.210496   -1.082431    0.028384
     10          1           0        2.627966    0.534810    0.328582
 ---------------------------------------------------------------------

 SCF Done:  E(RB2PLYPD3) =  -155.686302895     A.U. after   12 cycles
 E2(B2PLYPD3) =    -0.2256762480D+00 E(B2PLYPD3) =    -0.15591197914285D+03

 The electronic state is 1-A.
 Alpha  occ. eigenvalues --  -10.63401 -10.62199 -10.61057 -10.60823  -0.93173
 Alpha  occ. eigenvalues --   -0.85499  -0.70981  -0.64028  -0.55714  -0.53972
 Alpha  occ. eigenvalues --   -0.47016  -0.45145  -0.41375  -0.37830  -0.27642
 Alpha virt. eigenvalues --    0.01419   0.06997   0.07643   0.07913   0.09694
 Alpha virt. eigenvalues --    0.11472   0.12764   0.14720   0.15737   0.16964
 Alpha virt. eigenvalues --    0.18969   0.19194   0.21348   0.23201   0.24250

 Mulliken charges:
               1
     1  C   -0.153931
     2  C   -0.037028
     3  C   -0.033229
     4  C   -0.170887
     5  H    0.081604
     6  H    0.056307
     7  H    0.060054
     8  H    0.053910
     9  H    0.064930
    10  H    0.078269
 Sum of Mulliken charges =   0.00000

 Dipole moment (field-independent basis, Debye):
    X=             -0.0439    Y=             -0.0707    Z=              0.1056  Tot=              0.1344
 Quadrupole moment (field-independent basis, Debye-Ang):
   XX=            -23.0606   YY=            -23.4091   ZZ=            -28.9799
   XY=              0.0242   XZ=              0.6165   YZ=              0.0075

 1\1\GINC-NODE28\SP\RB2PLYPD3-FC\def2QZVP\C4H6\BOITTIER\26-Aug-2020\0\\
 #p B2PLYPD3/Def2QZVP\\butadiene\\0,1\C,0,-3.825527,0.231258,0.106166\C
 ,0,-2.750126,-0.503814,-0.049188\C,0,-1.405212,0.024207,-0.074209\C,0,
 -0.236059,-0.630208,0.09092\H,0,-4.811261,-0.173326,0.122529\H,0,-3.74
 0427,1.312535,0.018724\H,0,-2.947633,-1.558265,0.010249\H,0,-1.258315,
 1.135612,-0.177304\H,0,-0.061519,-1.661172,0.099531\H,0,0.630429,-0.13
 4158,0.36279\\Version=ES64L-G09RevD.01\State=1-A\HF=-155.6863029\MP2=-
 155.9119791\RMSD=3.254e-09\PG=C01 [X(C4H6)]\\@

 Normal termination of Gaussian 09 at Wed Aug 26 15:11:20 2020.
