 Gaussian 09, Revision D.01,
 Gaussian 09:  ES64L-G09RevD.01 24-Apr-2013

 --------------------
 #p B2PLYPD3/Def2QZVP
 --------------------

 ---------
 butadiene
 ---------
 Symbolic Z-matrix:
 Charge =  0 Multiplicity = 1

                         Standard orientation:
 ---------------------------------------------------------------------
 Center     Atomic      Atomic             Coordinates (Angstroms)
 Number     Number       Type             X           Y           Z
 ---------------------------------------------------------------------
      1          6           0       -1.834645   -0.129151    0.032285
      2          6           0       -0.607149    0.426340   -0.023130
      3          6           0        0.591623   -0.375782   -0.028702
      4          6           0        1.831823    0.081048    0.004678
      5          1           0       -2.725542    0.486861   -0.063443
      6          1           0       -1.864240   -1.258941    0.125710
      7          1           0       -0.462806    1.522874   -0.076794
      8          1           0        0.462485   -1.426898   -0.086561
      9          1           0        1.977914    1.183796    0.175358
     10          1           0        2.722276   -0.522421    0.014945
 ---------------------------------------------------------------------

 SCF Done:  E(RB2PLYPD3) =  -155.693895874     A.U. after   11 cycles
 E2(B2PLYPD3) =    -0.2264796454D+00 E(B2PLYPD3) =    -0.15592037551969D+03

 The electronic state is 1-A.
 Alpha  occ. eigenvalues --  -10.62917 -10.62438 -10.61928 -10.61586  -0.93246
 Alpha  occ. eigenvalues --   -0.84762  -0.69760  -0.63830  -0.54779  -0.53371
 Alpha  occ. eigenvalues --   -0.46740  -0.44769  -0.41146  -0.38238  -0.27652
 Alpha virt. eigenvalues --    0.01608   0.07031   0.07232   0.07991   0.09569
 Alpha virt. eigenvalues --    0.11682   0.12428   0.14440   0.15861   0.16016
 Alpha virt. eigenvalues --    0.18624   0.20235   0.21114   0.22642   0.24048

 Mulliken charges:
               1
     1  C   -0.176203
     2  C   -0.034749
     3  C   -0.019000
     4  C   -0.172805
     5  H    0.094340
     6  H    0.064496
     7  H    0.052781
     8  H    0.051747
     9  H    0.051310
    10  H    0.088085
 Sum of Mulliken charges =   0.00000

 Dipole moment (field-independent basis, Debye):
    X=             -0.0059    Y=             -0.0206    Z=              0.0397  Tot=              0.0452
 Quadrupole moment (field-independent basis, Debye-Ang):
   XX=            -23.6581   YY=            -23.2381   ZZ=            -29.2991
   XY=             -0.2663   XZ=              0.3566   YZ=             -0.0087

 1\1\GINC-NODE27\SP\RB2PLYPD3-FC\def2QZVP\C4H6\BOITTIER\26-Aug-2020\0\\
 #p B2PLYPD3/Def2QZVP\\butadiene\\0,1\C,0,-3.831648,0.240004,-0.010062\
 C,0,-2.723409,-0.524958,0.060825\C,0,-1.400148,0.048658,0.040077\C,0,-
 0.262313,-0.624246,0.019153\H,0,-4.81795,-0.202851,0.105792\H,0,-3.658
 664,1.353412,-0.138233\H,0,-2.777814,-1.627468,0.148076\H,0,-1.338172,
 1.107135,0.065676\H,0,-0.317649,-1.73993,-0.117644\H,0,0.721885,-0.191
 073,-0.010893\\Version=ES64L-G09RevD.01\State=1-A\HF=-155.6938959\MP2=
 -155.9203755\RMSD=6.781e-09\PG=C01 [X(C4H6)]\\@

 Normal termination of Gaussian 09 at Wed Aug 26 08:48:30 2020.
