 Gaussian 09, Revision D.01,
 Gaussian 09:  ES64L-G09RevD.01 24-Apr-2013

 --------------------
 #p B2PLYPD3/Def2QZVP
 --------------------

 ---------
 butadiene
 ---------
 Symbolic Z-matrix:
 Charge =  0 Multiplicity = 1

                         Standard orientation:
 ---------------------------------------------------------------------
 Center     Atomic      Atomic             Coordinates (Angstroms)
 Number     Number       Type             X           Y           Z
 ---------------------------------------------------------------------
      1          6           0       -1.823168    0.073799    0.001543
      2          6           0       -0.581552   -0.364651    0.001924
      3          6           0        0.586755    0.427443   -0.043767
      4          6           0        1.818601   -0.124524    0.023881
      5          1           0       -2.700709   -0.521319   -0.029983
      6          1           0       -2.006087    1.115177    0.156685
      7          1           0       -0.434780   -1.434738   -0.085233
      8          1           0        0.469274    1.503929   -0.017277
      9          1           0        1.980509   -1.223198    0.110640
     10          1           0        2.687978    0.487746   -0.036320
 ---------------------------------------------------------------------

 SCF Done:  E(RB2PLYPD3) =  -155.695850666     A.U. after   11 cycles
 E2(B2PLYPD3) =    -0.2257864199D+00 E(B2PLYPD3) =    -0.15592163708640D+03

 The electronic state is 1-A.
 Alpha  occ. eigenvalues --  -10.62492 -10.61999 -10.61710 -10.60673  -0.93734
 Alpha  occ. eigenvalues --   -0.84910  -0.70756  -0.64185  -0.55286  -0.53920
 Alpha  occ. eigenvalues --   -0.46869  -0.45215  -0.41374  -0.38573  -0.27389
 Alpha virt. eigenvalues --    0.01421   0.07084   0.07401   0.08093   0.09758
 Alpha virt. eigenvalues --    0.11690   0.12525   0.14865   0.15680   0.16468
 Alpha virt. eigenvalues --    0.18740   0.20011   0.22152   0.22711   0.23688

 Mulliken charges:
               1
     1  C   -0.178078
     2  C   -0.010450
     3  C   -0.039833
     4  C   -0.173743
     5  H    0.084579
     6  H    0.055543
     7  H    0.051008
     8  H    0.058265
     9  H    0.066984
    10  H    0.085726
 Sum of Mulliken charges =   0.00000

 Dipole moment (field-independent basis, Debye):
    X=              0.0355    Y=              0.0151    Z=              0.0672  Tot=              0.0775
 Quadrupole moment (field-independent basis, Debye-Ang):
   XX=            -23.3615   YY=            -23.2433   ZZ=            -29.1050
   XY=             -0.1242   XZ=             -0.0472   YZ=              0.1317

 1\1\GINC-NODE05\SP\RB2PLYPD3-FC\def2QZVP\C4H6\BOITTIER\26-Aug-2020\0\\
 #p B2PLYPD3/Def2QZVP\\butadiene\\0,1\C,0,-3.830178,0.196831,0.02424\C,
 0,-2.69216,-0.465469,0.035284\C,0,-1.396732,0.09359,-0.026068\C,0,-0.2
 89292,-0.676962,0.054638\H,0,-4.803425,-0.224639,0.004496\H,0,-3.81515
 1,1.257097,0.156934\H,0,-2.747854,-1.54575,-0.028866\H,0,-1.311247,1.1
 73407,-0.022677\H,0,-0.334936,-1.784466,0.164991\H,0,0.678864,-0.23906
 2,-0.017698\\Version=ES64L-G09RevD.01\State=1-A\HF=-155.6958507\MP2=-1
 55.9216371\RMSD=7.200e-09\PG=C01 [X(C4H6)]\\@

 Normal termination of Gaussian 09 at Wed Aug 26 11:36:14 2020.
