 Gaussian 09, Revision D.01,
 Gaussian 09:  ES64L-G09RevD.01 24-Apr-2013

 --------------------
 #p B2PLYPD3/Def2QZVP
 --------------------

 ---------
 butadiene
 ---------
 Symbolic Z-matrix:
 Charge =  0 Multiplicity = 1

                         Standard orientation:
 ---------------------------------------------------------------------
 Center     Atomic      Atomic             Coordinates (Angstroms)
 Number     Number       Type             X           Y           Z
 ---------------------------------------------------------------------
      1          6           0        1.857538   -0.123923    0.000828
      2          6           0        0.608857    0.425449   -0.014656
      3          6           0       -0.622489   -0.395424   -0.042042
      4          6           0       -1.856130    0.097641    0.023065
      5          1           0        2.750622    0.525196    0.149916
      6          1           0        2.023374   -1.229046    0.036843
      7          1           0        0.476977    1.491706   -0.068122
      8          1           0       -0.479217   -1.462629   -0.043902
      9          1           0       -2.002787    1.191648   -0.003136
     10          1           0       -2.695629   -0.539336    0.125231
 ---------------------------------------------------------------------

 SCF Done:  E(RB2PLYPD3) =  -155.695498007     A.U. after   11 cycles
 E2(B2PLYPD3) =    -0.2266252390D+00 E(B2PLYPD3) =    -0.15592212324649D+03

 The electronic state is 1-A.
 Alpha  occ. eigenvalues --  -10.63254 -10.62742 -10.62548 -10.61445  -0.92414
 Alpha  occ. eigenvalues --   -0.84532  -0.69674  -0.64060  -0.54412  -0.53332
 Alpha  occ. eigenvalues --   -0.46707  -0.45362  -0.41227  -0.37556  -0.27636
 Alpha virt. eigenvalues --    0.01558   0.06960   0.07338   0.08071   0.09217
 Alpha virt. eigenvalues --    0.11634   0.12317   0.14466   0.15713   0.16107
 Alpha virt. eigenvalues --    0.18839   0.20274   0.21418   0.23019   0.23672

 Mulliken charges:
               1
     1  C   -0.171467
     2  C   -0.046192
     3  C   -0.026804
     4  C   -0.176347
     5  H    0.081867
     6  H    0.066563
     7  H    0.062966
     8  H    0.056062
     9  H    0.062794
    10  H    0.090559
 Sum of Mulliken charges =   0.00000

 Dipole moment (field-independent basis, Debye):
    X=             -0.0335    Y=             -0.0143    Z=              0.1438  Tot=              0.1483
 Quadrupole moment (field-independent basis, Debye-Ang):
   XX=            -23.6937   YY=            -23.0180   ZZ=            -29.4307
   XY=             -0.0966   XZ=              0.1293   YZ=             -0.0903

 1\1\GINC-NODE06\SP\RB2PLYPD3-FC\def2QZVP\C4H6\BOITTIER\26-Aug-2020\0\\
 #p B2PLYPD3/Def2QZVP\\butadiene\\0,1\C,0,-3.859026,0.238343,0.025951\C
 ,0,-2.728293,-0.524995,0.022572\C,0,-1.370476,0.062504,-0.02186\C,0,-0
 .244229,-0.641069,0.054131\H,0,-4.852968,-0.237927,0.188517\H,0,-3.825
 145,1.355837,0.038394\H,0,-2.78872,-1.598568,-0.008156\H,0,-1.321281,1
 .137879,-0.04647\H,0,-0.294967,-1.744003,0.051257\H,0,0.695693,-0.1619
 19,0.143003\\Version=ES64L-G09RevD.01\State=1-A\HF=-155.695498\MP2=-15
 5.9221232\RMSD=7.254e-09\PG=C01 [X(C4H6)]\\@

 Normal termination of Gaussian 09 at Wed Aug 26 10:16:28 2020.
