 Gaussian 09, Revision D.01,
 Gaussian 09:  ES64L-G09RevD.01 24-Apr-2013

 --------------------
 #p B2PLYPD3/Def2QZVP
 --------------------

 ---------
 butadiene
 ---------
 Symbolic Z-matrix:
 Charge =  0 Multiplicity = 1

                         Standard orientation:
 ---------------------------------------------------------------------
 Center     Atomic      Atomic             Coordinates (Angstroms)
 Number     Number       Type             X           Y           Z
 ---------------------------------------------------------------------
      1          6           0        1.834988   -0.119621    0.044469
      2          6           0        0.597700    0.422455   -0.051300
      3          6           0       -0.600577   -0.386818   -0.012521
      4          6           0       -1.827296    0.089853    0.026441
      5          1           0        2.729703    0.507713   -0.080533
      6          1           0        1.976212   -1.193227    0.109471
      7          1           0        0.372512    1.504978   -0.041238
      8          1           0       -0.430695   -1.434214   -0.094335
      9          1           0       -2.035118    1.183974    0.142951
     10          1           0       -2.641506   -0.604432   -0.078853
 ---------------------------------------------------------------------

 SCF Done:  E(RB2PLYPD3) =  -155.694878068     A.U. after   11 cycles
 E2(B2PLYPD3) =    -0.2262574222D+00 E(B2PLYPD3) =    -0.15592113549009D+03

 The electronic state is 1-A.
 Alpha  occ. eigenvalues --  -10.62948 -10.62154 -10.61732 -10.61475  -0.93208
 Alpha  occ. eigenvalues --   -0.84711  -0.70071  -0.63935  -0.54483  -0.53414
 Alpha  occ. eigenvalues --   -0.46753  -0.45768  -0.40887  -0.38038  -0.27625
 Alpha virt. eigenvalues --    0.01566   0.07025   0.07249   0.08109   0.09558
 Alpha virt. eigenvalues --    0.11778   0.12224   0.14821   0.15511   0.16067
 Alpha virt. eigenvalues --    0.18751   0.20125   0.21422   0.22590   0.24066

 Mulliken charges:
               1
     1  C   -0.174328
     2  C   -0.038690
     3  C   -0.016201
     4  C   -0.183034
     5  H    0.084986
     6  H    0.068728
     7  H    0.053938
     8  H    0.053877
     9  H    0.064282
    10  H    0.086442
 Sum of Mulliken charges =   0.00000

 Dipole moment (field-independent basis, Debye):
    X=             -0.0073    Y=             -0.0492    Z=             -0.0784  Tot=              0.0928
 Quadrupole moment (field-independent basis, Debye-Ang):
   XX=            -23.8355   YY=            -23.0731   ZZ=            -29.2641
   XY=             -0.3530   XZ=             -0.0315   YZ=              0.1205

 1\1\GINC-NODE23\SP\RB2PLYPD3-FC\def2QZVP\C4H6\BOITTIER\26-Aug-2020\0\\
 #p B2PLYPD3/Def2QZVP\\butadiene\\0,1\C,0,-3.831696,0.246554,0.058492\C
 ,0,-2.717682,-0.520011,-0.013963\C,0,-1.38931,0.052333,-0.001898\C,0,-
 0.272898,-0.643101,0.057845\H,0,-4.828266,-0.206979,-0.045647\H,0,-3.7
 6987,1.329306,0.083487\H,0,-2.698359,-1.624428,0.036605\H,0,-1.361159,
 1.109309,-0.122728\H,0,-0.272343,-1.751756,0.215171\H,0,0.656082,-0.11
 7275,-0.070835\\Version=ES64L-G09RevD.01\State=1-A\HF=-155.6948781\MP2
 =-155.9211355\RMSD=7.523e-09\PG=C01 [X(C4H6)]\\@

 Normal termination of Gaussian 09 at Wed Aug 26 09:01:22 2020.
