 Gaussian 09, Revision D.01,
 Gaussian 09:  ES64L-G09RevD.01 24-Apr-2013

 --------------------
 #p B2PLYPD3/Def2QZVP
 --------------------

 ---------
 butadiene
 ---------
 Symbolic Z-matrix:
 Charge =  0 Multiplicity = 1

                         Standard orientation:
 ---------------------------------------------------------------------
 Center     Atomic      Atomic             Coordinates (Angstroms)
 Number     Number       Type             X           Y           Z
 ---------------------------------------------------------------------
      1          6           0       -1.829550   -0.124836   -0.048737
      2          6           0       -0.607378    0.393647    0.024501
      3          6           0        0.593962   -0.389262    0.034866
      4          6           0        1.835194    0.101386   -0.025972
      5          1           0       -2.657778    0.576751    0.074715
      6          1           0       -1.969536   -1.184910   -0.057684
      7          1           0       -0.469661    1.493016    0.055436
      8          1           0        0.464928   -1.445054    0.115051
      9          1           0        1.953810    1.207288   -0.043650
     10          1           0        2.724868   -0.532703   -0.051817
 ---------------------------------------------------------------------

 SCF Done:  E(RB2PLYPD3) =  -155.697143191     A.U. after   11 cycles
 E2(B2PLYPD3) =    -0.2260204092D+00 E(B2PLYPD3) =    -0.15592316360008D+03

 The electronic state is 1-A.
 Alpha  occ. eigenvalues --  -10.62437 -10.62072 -10.61924 -10.61392  -0.93384
 Alpha  occ. eigenvalues --   -0.84971  -0.70020  -0.63931  -0.54259  -0.54146
 Alpha  occ. eigenvalues --   -0.46448  -0.45556  -0.41195  -0.38264  -0.27661
 Alpha virt. eigenvalues --    0.01616   0.06982   0.07354   0.07975   0.09802
 Alpha virt. eigenvalues --    0.11806   0.12305   0.14723   0.15666   0.16121
 Alpha virt. eigenvalues --    0.18679   0.20034   0.21504   0.22647   0.24181

 Mulliken charges:
               1
     1  C   -0.178667
     2  C   -0.020899
     3  C   -0.027583
     4  C   -0.177295
     5  H    0.085464
     6  H    0.070897
     7  H    0.046602
     8  H    0.051683
     9  H    0.059713
    10  H    0.090086
 Sum of Mulliken charges =   0.00000

 Dipole moment (field-independent basis, Debye):
    X=              0.0204    Y=             -0.0425    Z=              0.1248  Tot=              0.1334
 Quadrupole moment (field-independent basis, Debye-Ang):
   XX=            -23.8595   YY=            -23.0528   ZZ=            -29.2504
   XY=             -0.0545   XZ=             -0.3373   YZ=              0.0511

 1\1\GINC-NODE36\SP\RB2PLYPD3-FC\def2QZVP\C4H6\BOITTIER\26-Aug-2020\0\\
 #p B2PLYPD3/Def2QZVP\\butadiene\\0,1\C,0,-3.828942,0.235026,0.059757\C
 ,0,-2.71968,-0.49611,0.00616\C,0,-1.397364,0.05801,-0.020359\C,0,-0.26
 4281,-0.645451,0.059391\H,0,-4.769686,-0.309766,-0.048071\H,0,-3.77643
 8,1.30285,0.039018\H,0,-2.78148,-1.602779,0.005987\H,0,-1.334906,1.117
 183,-0.130029\H,0,-0.346016,-1.753768,0.107906\H,0,0.724745,-0.180767,
 0.071771\\Version=ES64L-G09RevD.01\State=1-A\HF=-155.6971432\MP2=-155.
 9231636\RMSD=5.339e-09\PG=C01 [X(C4H6)]\\@

 Normal termination of Gaussian 09 at Wed Aug 26 09:04:02 2020.
