 Gaussian 09, Revision D.01,
 Gaussian 09:  ES64L-G09RevD.01 24-Apr-2013

 --------------------
 #p B2PLYPD3/Def2QZVP
 --------------------

 ---------
 butadiene
 ---------
 Symbolic Z-matrix:
 Charge =  0 Multiplicity = 1

                         Standard orientation:
 ---------------------------------------------------------------------
 Center     Atomic      Atomic             Coordinates (Angstroms)
 Number     Number       Type             X           Y           Z
 ---------------------------------------------------------------------
      1          6           0        1.861357    0.128918   -0.031528
      2          6           0        0.660859   -0.406701    0.073070
      3          6           0       -0.626790    0.365809    0.046323
      4          6           0       -1.870629   -0.095804   -0.072203
      5          1           0        2.656677   -0.476915   -0.198755
      6          1           0        1.936571    1.201527   -0.231765
      7          1           0        0.522385   -1.450881    0.264630
      8          1           0       -0.536983    1.482049    0.277709
      9          1           0       -1.939217   -1.189572   -0.188285
     10          1           0       -2.788221    0.480458   -0.017507
 ---------------------------------------------------------------------

 SCF Done:  E(RB2PLYPD3) =  -155.686545942     A.U. after   11 cycles
 E2(B2PLYPD3) =    -0.2257783807D+00 E(B2PLYPD3) =    -0.15591232432266D+03

 The electronic state is 1-A.
 Alpha  occ. eigenvalues --  -10.63315 -10.62849 -10.61796 -10.60880  -0.92524
 Alpha  occ. eigenvalues --   -0.85607  -0.70104  -0.63210  -0.55335  -0.53580
 Alpha  occ. eigenvalues --   -0.47926  -0.45077  -0.40525  -0.36895  -0.28517
 Alpha virt. eigenvalues --    0.01896   0.07147   0.07454   0.07913   0.09342
 Alpha virt. eigenvalues --    0.11506   0.12611   0.14398   0.15390   0.16186
 Alpha virt. eigenvalues --    0.18901   0.19752   0.21374   0.22316   0.23430

 Mulliken charges:
               1
     1  C   -0.160794
     2  C   -0.045521
     3  C   -0.030621
     4  C   -0.178240
     5  H    0.089786
     6  H    0.066225
     7  H    0.061378
     8  H    0.045941
     9  H    0.054173
    10  H    0.097673
 Sum of Mulliken charges =   0.00000

 Dipole moment (field-independent basis, Debye):
    X=              0.0152    Y=             -0.0850    Z=             -0.0285  Tot=              0.0909
 Quadrupole moment (field-independent basis, Debye-Ang):
   XX=            -23.3245   YY=            -23.5445   ZZ=            -29.0418
   XY=             -0.2816   XZ=             -0.6968   YZ=              0.0416

 1\1\GINC-NODE19\SP\RB2PLYPD3-FC\def2QZVP\C4H6\BOITTIER\26-Aug-2020\0\\
 #p B2PLYPD3/Def2QZVP\\butadiene\\0,1\C,0,-3.861627,0.226704,0.058107\C
 ,0,-2.769176,-0.50619,-0.03377\C,0,-1.369781,0.038991,-0.034217\C,0,-0
 .220377,-0.621734,0.094559\H,0,-4.746138,-0.231434,0.245941\H,0,-3.753
 786,1.302075,0.226006\H,0,-2.809809,-1.563944,-0.194043\H,0,-1.272442,
 1.147143,-0.299019\H,0,-0.335776,-1.707556,0.243493\H,0,0.780588,-0.21
 0012,0.019739\\Version=ES64L-G09RevD.01\State=1-A\HF=-155.6865459\MP2=
 -155.9123243\RMSD=7.413e-09\PG=C01 [X(C4H6)]\\@

 Normal termination of Gaussian 09 at Wed Aug 26 12:06:39 2020.
