 Gaussian 09, Revision D.01,
 Gaussian 09:  ES64L-G09RevD.01 24-Apr-2013

 --------------------
 #p B2PLYPD3/Def2QZVP
 --------------------

 ---------
 butadiene
 ---------
 Symbolic Z-matrix:
 Charge =  0 Multiplicity = 1

                         Standard orientation:
 ---------------------------------------------------------------------
 Center     Atomic      Atomic             Coordinates (Angstroms)
 Number     Number       Type             X           Y           Z
 ---------------------------------------------------------------------
      1          6           0       -1.855288    0.086039    0.030082
      2          6           0       -0.615066   -0.377490   -0.049966
      3          6           0        0.608797    0.431571   -0.002620
      4          6           0        1.837037   -0.130150    0.022686
      5          1           0       -2.667812   -0.564919    0.095021
      6          1           0       -2.054215    1.163078   -0.036259
      7          1           0       -0.448029   -1.491663   -0.015190
      8          1           0        0.491179    1.509959   -0.079491
      9          1           0        2.101204   -1.182918   -0.042246
     10          1           0        2.724795    0.506637    0.077074
 ---------------------------------------------------------------------

 SCF Done:  E(RB2PLYPD3) =  -155.695025063     A.U. after   11 cycles
 E2(B2PLYPD3) =    -0.2261905766D+00 E(B2PLYPD3) =    -0.15592121563986D+03

 The electronic state is 1-A.
 Alpha  occ. eigenvalues --  -10.63178 -10.62817 -10.62089 -10.61087  -0.92579
 Alpha  occ. eigenvalues --   -0.84851  -0.70265  -0.63561  -0.54932  -0.53391
 Alpha  occ. eigenvalues --   -0.47354  -0.44918  -0.40802  -0.37787  -0.27708
 Alpha virt. eigenvalues --    0.01650   0.07018   0.07293   0.08045   0.09376
 Alpha virt. eigenvalues --    0.11518   0.12357   0.14786   0.15622   0.16356
 Alpha virt. eigenvalues --    0.18831   0.20105   0.21892   0.22983   0.23505

 Mulliken charges:
               1
     1  C   -0.176374
     2  C   -0.023473
     3  C   -0.041861
     4  C   -0.169989
     5  H    0.090453
     6  H    0.063093
     7  H    0.047355
     8  H    0.062933
     9  H    0.072335
    10  H    0.075529
 Sum of Mulliken charges =   0.00000

 Dipole moment (field-independent basis, Debye):
    X=              0.0545    Y=             -0.0080    Z=             -0.0461  Tot=              0.0718
 Quadrupole moment (field-independent basis, Debye-Ang):
   XX=            -23.3689   YY=            -23.1044   ZZ=            -29.3381
   XY=             -0.3880   XZ=             -0.1488   YZ=             -0.1311

 1\1\GINC-NODE27\SP\RB2PLYPD3-FC\def2QZVP\C4H6\BOITTIER\26-Aug-2020\0\\
 #p B2PLYPD3/Def2QZVP\\butadiene\\0,1\C,0,-3.8581,0.20782,0.049149\C,0,
 -2.723622,-0.476875,-0.010591\C,0,-1.37256,0.096747,0.005243\C,0,-0.26
 7091,-0.678,0.054745\H,0,-4.775204,-0.28096,0.139553\H,0,-3.857873,1.2
 99528,-0.061116\H,0,-2.76217,-1.600519,0.069607\H,0,-1.292206,1.174535
 ,-0.115505\H,0,-0.199575,-1.763029,0.032933\H,0,0.722155,-0.212067,0.0
 84231\\Version=ES64L-G09RevD.01\State=1-A\HF=-155.6950251\MP2=-155.921
 2156\RMSD=7.435e-09\PG=C01 [X(C4H6)]\\@

 Normal termination of Gaussian 09 at Wed Aug 26 08:44:02 2020.
