 Gaussian 09, Revision D.01,
 Gaussian 09:  ES64L-G09RevD.01 24-Apr-2013

 --------------------
 #p B2PLYPD3/Def2QZVP
 --------------------

 ---------
 butadiene
 ---------
 Symbolic Z-matrix:
 Charge =  0 Multiplicity = 1

                         Standard orientation:
 ---------------------------------------------------------------------
 Center     Atomic      Atomic             Coordinates (Angstroms)
 Number     Number       Type             X           Y           Z
 ---------------------------------------------------------------------
      1          6           0       -1.837521    0.115395   -0.017862
      2          6           0       -0.595351   -0.420257    0.028650
      3          6           0        0.600387    0.399677    0.016451
      4          6           0        1.838010   -0.100296   -0.030013
      5          1           0       -2.715452   -0.515477   -0.056541
      6          1           0       -1.988752    1.194994   -0.021664
      7          1           0       -0.447448   -1.462657    0.025137
      8          1           0        0.429399    1.457343    0.077086
      9          1           0        1.968059   -1.167279    0.028265
     10          1           0        2.721042    0.525964   -0.035634
 ---------------------------------------------------------------------

 SCF Done:  E(RB2PLYPD3) =  -155.699539584     A.U. after   11 cycles
 E2(B2PLYPD3) =    -0.2259518083D+00 E(B2PLYPD3) =    -0.15592549139250D+03

 The electronic state is 1-A.
 Alpha  occ. eigenvalues --  -10.62428 -10.62273 -10.61894 -10.61407  -0.93057
 Alpha  occ. eigenvalues --   -0.84606  -0.70220  -0.64695  -0.54532  -0.53874
 Alpha  occ. eigenvalues --   -0.46724  -0.45853  -0.41568  -0.37968  -0.27428
 Alpha virt. eigenvalues --    0.01567   0.07019   0.07447   0.08172   0.09415
 Alpha virt. eigenvalues --    0.11726   0.12508   0.14698   0.15815   0.16155
 Alpha virt. eigenvalues --    0.18706   0.20485   0.21596   0.23214   0.23832

 Mulliken charges:
               1
     1  C   -0.178176
     2  C   -0.037907
     3  C   -0.023863
     4  C   -0.179649
     5  H    0.085197
     6  H    0.067326
     7  H    0.060706
     8  H    0.055781
     9  H    0.063804
    10  H    0.086780
 Sum of Mulliken charges =   0.00000

 Dipole moment (field-independent basis, Debye):
    X=             -0.0159    Y=             -0.0068    Z=              0.0485  Tot=              0.0515
 Quadrupole moment (field-independent basis, Debye-Ang):
   XX=            -23.5773   YY=            -23.0618   ZZ=            -29.2920
   XY=             -0.1537   XZ=              0.2074   YZ=              0.0145

 1\1\GINC-NODE24\SP\RB2PLYPD3-FC\def2QZVP\C4H6\BOITTIER\26-Aug-2020\0\\
 #p B2PLYPD3/Def2QZVP\\butadiene\\0,1\C,0,-3.837997,0.234412,-0.002142\
 C,0,-2.714653,-0.517808,0.063706\C,0,-1.389157,0.068979,0.032551\C,0,-
 0.263923,-0.649978,0.00444\H,0,-4.816561,-0.22613,-0.026072\H,0,-3.789
 251,1.322915,-0.036851\H,0,-2.759881,-1.569353,0.090044\H,0,-1.363732,
 1.141364,0.062803\H,0,-0.33109,-1.720668,0.093175\H,0,0.718735,-0.1961
 55,-0.015765\\Version=ES64L-G09RevD.01\State=1-A\HF=-155.6995396\MP2=-
 155.9254914\RMSD=5.921e-09\PG=C01 [X(C4H6)]\\@

 Normal termination of Gaussian 09 at Wed Aug 26 22:04:46 2020.
