 Gaussian 09, Revision D.01,
 Gaussian 09:  ES64L-G09RevD.01 24-Apr-2013

 --------------------
 #p B2PLYPD3/Def2QZVP
 --------------------

 ---------
 butadiene
 ---------
 Symbolic Z-matrix:
 Charge =  0 Multiplicity = 1

                         Standard orientation:
 ---------------------------------------------------------------------
 Center     Atomic      Atomic             Coordinates (Angstroms)
 Number     Number       Type             X           Y           Z
 ---------------------------------------------------------------------
      1          6           0       -1.836622   -0.106906    0.014296
      2          6           0       -0.592797    0.396902   -0.029669
      3          6           0        0.596193   -0.417445   -0.005393
      4          6           0        1.826925    0.109563    0.020723
      5          1           0       -2.660800    0.555376    0.060200
      6          1           0       -2.048376   -1.142399   -0.004886
      7          1           0       -0.447962    1.483649   -0.003150
      8          1           0        0.480869   -1.486218   -0.049093
      9          1           0        1.997133    1.181688   -0.033591
     10          1           0        2.716946   -0.484776    0.030773
 ---------------------------------------------------------------------

 SCF Done:  E(RB2PLYPD3) =  -155.699810335     A.U. after   11 cycles
 E2(B2PLYPD3) =    -0.2256882593D+00 E(B2PLYPD3) =    -0.15592549859392D+03

 The electronic state is 1-A.
 Alpha  occ. eigenvalues --  -10.62601 -10.62381 -10.61433 -10.61015  -0.93102
 Alpha  occ. eigenvalues --   -0.84821  -0.70552  -0.64292  -0.54795  -0.54196
 Alpha  occ. eigenvalues --   -0.46475  -0.45842  -0.41550  -0.38139  -0.27415
 Alpha virt. eigenvalues --    0.01609   0.07051   0.07435   0.08117   0.09511
 Alpha virt. eigenvalues --    0.11692   0.12516   0.14883   0.15830   0.16302
 Alpha virt. eigenvalues --    0.18754   0.20446   0.21914   0.22974   0.23804

 Mulliken charges:
               1
     1  C   -0.181281
     2  C   -0.027624
     3  C   -0.032132
     4  C   -0.173417
     5  H    0.084290
     6  H    0.070771
     7  H    0.055013
     8  H    0.059135
     9  H    0.062271
    10  H    0.082974
 Sum of Mulliken charges =   0.00000

 Dipole moment (field-independent basis, Debye):
    X=              0.0190    Y=             -0.0229    Z=             -0.0281  Tot=              0.0409
 Quadrupole moment (field-independent basis, Debye-Ang):
   XX=            -23.4756   YY=            -23.0181   ZZ=            -29.2330
   XY=              0.2690   XZ=             -0.1919   YZ=              0.0581

 1\1\GINC-NODE25\SP\RB2PLYPD3-FC\def2QZVP\C4H6\BOITTIER\26-Aug-2020\0\\
 #p B2PLYPD3/Def2QZVP\\butadiene\\0,1\C,0,-3.837376,0.225891,0.001973\C
 ,0,-2.707529,-0.497067,0.062269\C,0,-1.388955,0.083616,0.022076\C,0,-0
 .276338,-0.661446,0.012834\H,0,-4.769465,-0.274259,-0.030498\H,0,-3.85
 482,1.282822,-0.004752\H,0,-2.765307,-1.59222,0.062688\H,0,-1.305459,1
 .156097,0.039367\H,0,-0.306382,-1.74492,0.093789\H,0,0.707888,-0.24155
 2,-0.008762\\Version=ES64L-G09RevD.01\State=1-A\HF=-155.6998103\MP2=-1
 55.9254986\RMSD=4.504e-09\PG=C01 [X(C4H6)]\\@

 Normal termination of Gaussian 09 at Wed Aug 26 14:53:00 2020.
