 Gaussian 09, Revision D.01,
 Gaussian 09:  ES64L-G09RevD.01 24-Apr-2013

 --------------------
 #p B2PLYPD3/Def2QZVP
 --------------------

 ---------
 butadiene
 ---------
 Symbolic Z-matrix:
 Charge =  0 Multiplicity = 1

                         Standard orientation:
 ---------------------------------------------------------------------
 Center     Atomic      Atomic             Coordinates (Angstroms)
 Number     Number       Type             X           Y           Z
 ---------------------------------------------------------------------
      1          6           0        1.872730   -0.136540    0.041586
      2          6           0        0.619251    0.440052   -0.024202
      3          6           0       -0.630228   -0.387173   -0.087698
      4          6           0       -1.881588    0.081821    0.010580
      5          1           0        2.723359    0.511400    0.193181
      6          1           0        2.019676   -1.218985   -0.095340
      7          1           0        0.456120    1.536227   -0.112996
      8          1           0       -0.436855   -1.442340    0.039479
      9          1           0       -1.993203    1.146228    0.047240
     10          1           0       -2.650082   -0.521485    0.286832
 ---------------------------------------------------------------------

 SCF Done:  E(RB2PLYPD3) =  -155.685417555     A.U. after   11 cycles
 E2(B2PLYPD3) =    -0.2272836890D+00 E(B2PLYPD3) =    -0.15591270124382D+03

 The electronic state is 1-A.
 Alpha  occ. eigenvalues --  -10.64087 -10.62837 -10.62677 -10.60786  -0.91985
 Alpha  occ. eigenvalues --   -0.84595  -0.70309  -0.63806  -0.54912  -0.53387
 Alpha  occ. eigenvalues --   -0.47031  -0.45956  -0.41086  -0.37059  -0.27461
 Alpha virt. eigenvalues --    0.01109   0.07040   0.07365   0.08225   0.08696
 Alpha virt. eigenvalues --    0.11651   0.12475   0.14558   0.15404   0.16261
 Alpha virt. eigenvalues --    0.18993   0.19900   0.21503   0.23155   0.23997

 Mulliken charges:
               1
     1  C   -0.183305
     2  C   -0.054340
     3  C   -0.020959
     4  C   -0.170432
     5  H    0.090578
     6  H    0.078032
     7  H    0.057990
     8  H    0.053957
     9  H    0.058837
    10  H    0.089641
 Sum of Mulliken charges =   0.00000

 Dipole moment (field-independent basis, Debye):
    X=              0.0689    Y=              0.0056    Z=              0.2640  Tot=              0.2730
 Quadrupole moment (field-independent basis, Debye-Ang):
   XX=            -23.7896   YY=            -23.1215   ZZ=            -29.3363
   XY=             -0.2204   XZ=             -0.7305   YZ=             -0.1071

 1\1\GINC-NODE27\SP\RB2PLYPD3-FC\def2QZVP\C4H6\BOITTIER\26-Aug-2020\0\\
 #p B2PLYPD3/Def2QZVP\\butadiene\\0,1\C,0,-3.872293,0.255011,0.058843\C
 ,0,-2.742148,-0.537727,0.01053\C,0,-1.364484,0.051216,-0.058153\C,0,-0
 .217727,-0.632505,0.055826\H,0,-4.825757,-0.227482,0.215319\H,0,-3.822
 484,1.343783,-0.096474\H,0,-2.777699,-1.646748,-0.059513\H,0,-1.366166
 ,1.125965,0.050731\H,0,-0.298712,-1.698915,0.11037\H,0,0.645428,-0.171
 926,0.327316\\Version=ES64L-G09RevD.01\State=1-A\HF=-155.6854176\MP2=-
 155.9127012\RMSD=8.481e-09\PG=C01 [X(C4H6)]\\@

 Normal termination of Gaussian 09 at Wed Aug 26 14:19:38 2020.
