 Gaussian 09, Revision D.01,
 Gaussian 09:  ES64L-G09RevD.01 24-Apr-2013

 --------------------
 #p B2PLYPD3/Def2QZVP
 --------------------

 ---------
 butadiene
 ---------
 Symbolic Z-matrix:
 Charge =  0 Multiplicity = 1

                         Standard orientation:
 ---------------------------------------------------------------------
 Center     Atomic      Atomic             Coordinates (Angstroms)
 Number     Number       Type             X           Y           Z
 ---------------------------------------------------------------------
      1          6           0       -1.835815   -0.118685    0.025943
      2          6           0       -0.600482    0.412749   -0.033752
      3          6           0        0.607129   -0.379884   -0.017050
      4          6           0        1.840119    0.093244    0.010437
      5          1           0       -2.703160    0.491440    0.004626
      6          1           0       -2.034007   -1.181625    0.053953
      7          1           0       -0.519278    1.484366   -0.027795
      8          1           0        0.436154   -1.436037   -0.054183
      9          1           0        2.049399    1.158237    0.083732
     10          1           0        2.705188   -0.560928    0.026198
 ---------------------------------------------------------------------

 SCF Done:  E(RB2PLYPD3) =  -155.700444596     A.U. after   11 cycles
 E2(B2PLYPD3) =    -0.2253733148D+00 E(B2PLYPD3) =    -0.15592581791112D+03

 The electronic state is 1-A.
 Alpha  occ. eigenvalues --  -10.62497 -10.62082 -10.61448 -10.61372  -0.93160
 Alpha  occ. eigenvalues --   -0.84994  -0.70512  -0.64344  -0.54876  -0.54022
 Alpha  occ. eigenvalues --   -0.46909  -0.45599  -0.41131  -0.38234  -0.27676
 Alpha virt. eigenvalues --    0.01664   0.07007   0.07504   0.08113   0.09736
 Alpha virt. eigenvalues --    0.11648   0.12455   0.14837   0.15845   0.16285
 Alpha virt. eigenvalues --    0.18885   0.20402   0.21858   0.22715   0.23672

 Mulliken charges:
               1
     1  C   -0.174830
     2  C   -0.034682
     3  C   -0.027957
     4  C   -0.173272
     5  H    0.083144
     6  H    0.063587
     7  H    0.057682
     8  H    0.057460
     9  H    0.064915
    10  H    0.083952
 Sum of Mulliken charges =   0.00000

 Dipole moment (field-independent basis, Debye):
    X=             -0.0399    Y=             -0.0011    Z=              0.0470  Tot=              0.0617
 Quadrupole moment (field-independent basis, Debye-Ang):
   XX=            -23.3105   YY=            -23.1471   ZZ=            -29.1890
   XY=              0.2253   XZ=              0.1092   YZ=              0.0593

 1\1\GINC-NODE36\SP\RB2PLYPD3-FC\def2QZVP\C4H6\BOITTIER\26-Aug-2020\0\\
 #p B2PLYPD3/Def2QZVP\\butadiene\\0,1\C,0,-3.836785,0.236001,-0.007035\
 C,0,-2.718658,-0.509826,0.067579\C,0,-1.386971,0.048866,0.030926\C,0,-
 0.260882,-0.641494,0.016851\H,0,-4.800643,-0.205161,0.029684\H,0,-3.83
 8201,1.316163,-0.063185\H,0,-2.83399,-1.578092,0.089914\H,0,-1.362598,
 1.119096,0.040096\H,0,-0.249347,-1.728332,-0.028206\H,0,0.708782,-0.15
 6478,-0.015476\\Version=ES64L-G09RevD.01\State=1-A\HF=-155.7004446\MP2
 =-155.9258179\RMSD=5.562e-09\PG=C01 [X(C4H6)]\\@

 Normal termination of Gaussian 09 at Wed Aug 26 21:58:00 2020.
