 Gaussian 09, Revision D.01,
 Gaussian 09:  ES64L-G09RevD.01 24-Apr-2013

 --------------------
 #p B2PLYPD3/Def2QZVP
 --------------------

 ---------
 butadiene
 ---------
 Symbolic Z-matrix:
 Charge =  0 Multiplicity = 1

                         Standard orientation:
 ---------------------------------------------------------------------
 Center     Atomic      Atomic             Coordinates (Angstroms)
 Number     Number       Type             X           Y           Z
 ---------------------------------------------------------------------
      1          6           0        1.834467    0.116816    0.007062
      2          6           0        0.603515   -0.417043    0.002272
      3          6           0       -0.594223    0.389366   -0.021846
      4          6           0       -1.827108   -0.097321    0.001770
      5          1           0        2.713676   -0.509778   -0.029595
      6          1           0        1.986238    1.178896    0.081331
      7          1           0        0.442203   -1.486661   -0.063146
      8          1           0       -0.478285    1.487183   -0.024941
      9          1           0       -2.073848   -1.157381    0.099790
     10          1           0       -2.689887    0.536830    0.001018
 ---------------------------------------------------------------------

 SCF Done:  E(RB2PLYPD3) =  -155.699913945     A.U. after   11 cycles
 E2(B2PLYPD3) =    -0.2256954449D+00 E(B2PLYPD3) =    -0.15592560938973D+03

 The electronic state is 1-A.
 Alpha  occ. eigenvalues --  -10.62583 -10.62444 -10.61572 -10.61264  -0.93129
 Alpha  occ. eigenvalues --   -0.84891  -0.70344  -0.63969  -0.54832  -0.53838
 Alpha  occ. eigenvalues --   -0.46722  -0.45513  -0.41028  -0.38258  -0.27624
 Alpha virt. eigenvalues --    0.01711   0.07039   0.07365   0.08059   0.09586
 Alpha virt. eigenvalues --    0.11657   0.12445   0.14853   0.15775   0.16245
 Alpha virt. eigenvalues --    0.18771   0.20428   0.21842   0.22721   0.23744

 Mulliken charges:
               1
     1  C   -0.175962
     2  C   -0.035745
     3  C   -0.022691
     4  C   -0.173958
     5  H    0.085252
     6  H    0.070006
     7  H    0.060064
     8  H    0.050950
     9  H    0.060577
    10  H    0.081506
 Sum of Mulliken charges =   0.00000

 Dipole moment (field-independent basis, Debye):
    X=             -0.0071    Y=             -0.0027    Z=              0.0530  Tot=              0.0536
 Quadrupole moment (field-independent basis, Debye-Ang):
   XX=            -23.4232   YY=            -23.1211   ZZ=            -29.2309
   XY=              0.2770   XZ=             -0.1795   YZ=              0.0685

 1\1\GINC-NODE05\SP\RB2PLYPD3-FC\def2QZVP\C4H6\BOITTIER\26-Aug-2020\0\\
 #p B2PLYPD3/Def2QZVP\\butadiene\\0,1\C,0,-3.831842,0.23685,0.011943\C,
 0,-2.719807,-0.513546,0.035514\C,0,-1.394267,0.059506,0.032771\C,0,-0.
 271837,-0.645856,0.026348\H,0,-4.810912,-0.216014,0.069465\H,0,-3.7864
 84,1.305639,-0.098505\H,0,-2.757221,-1.591789,0.137377\H,0,-1.30668,1.
 159417,-0.001556\H,0,-0.224462,-1.735882,-0.035415\H,0,0.692685,-0.181
 295,0.005948\\Version=ES64L-G09RevD.01\State=1-A\HF=-155.6999139\MP2=-
 155.9256094\RMSD=5.616e-09\PG=C01 [X(C4H6)]\\@

 Normal termination of Gaussian 09 at Wed Aug 26 22:45:10 2020.
