 Gaussian 09, Revision D.01,
 Gaussian 09:  ES64L-G09RevD.01 24-Apr-2013

 --------------------
 #p B2PLYPD3/Def2QZVP
 --------------------

 ---------
 butadiene
 ---------
 Symbolic Z-matrix:
 Charge =  0 Multiplicity = 1

                         Standard orientation:
 ---------------------------------------------------------------------
 Center     Atomic      Atomic             Coordinates (Angstroms)
 Number     Number       Type             X           Y           Z
 ---------------------------------------------------------------------
      1          6           0        1.836185    0.091327    0.039888
      2          6           0        0.593152   -0.361705   -0.033761
      3          6           0       -0.596217    0.416148   -0.022209
      4          6           0       -1.830981   -0.118856    0.020513
      5          1           0        2.656564   -0.595376   -0.050027
      6          1           0        2.037063    1.136973    0.039180
      7          1           0        0.481143   -1.451122   -0.063196
      8          1           0       -0.489582    1.495411   -0.021510
      9          1           0       -1.977873   -1.176113    0.117447
     10          1           0       -2.720150    0.428745   -0.048477
 ---------------------------------------------------------------------

 SCF Done:  E(RB2PLYPD3) =  -155.697999575     A.U. after   11 cycles
 E2(B2PLYPD3) =    -0.2255213337D+00 E(B2PLYPD3) =    -0.15592352090861D+03

 The electronic state is 1-A.
 Alpha  occ. eigenvalues --  -10.62526 -10.62051 -10.61281 -10.60950  -0.93468
 Alpha  occ. eigenvalues --   -0.85104  -0.70986  -0.64097  -0.55071  -0.54387
 Alpha  occ. eigenvalues --   -0.46796  -0.45670  -0.41393  -0.38373  -0.27481
 Alpha virt. eigenvalues --    0.01376   0.07031   0.07517   0.08054   0.09907
 Alpha virt. eigenvalues --    0.11701   0.12582   0.14887   0.15940   0.16201
 Alpha virt. eigenvalues --    0.18866   0.20542   0.21820   0.22396   0.23962

 Mulliken charges:
               1
     1  C   -0.177557
     2  C   -0.015793
     3  C   -0.035509
     4  C   -0.172739
     5  H    0.084864
     6  H    0.064490
     7  H    0.048016
     8  H    0.055003
     9  H    0.062642
    10  H    0.086583
 Sum of Mulliken charges =   0.00000

 Dipole moment (field-independent basis, Debye):
    X=             -0.0732    Y=              0.0032    Z=             -0.0625  Tot=              0.0963
 Quadrupole moment (field-independent basis, Debye-Ang):
   XX=            -23.3292   YY=            -23.1927   ZZ=            -29.1215
   XY=              0.1174   XZ=             -0.1744   YZ=             -0.0446

 1\1\GINC-NODE13\SP\RB2PLYPD3-FC\def2QZVP\C4H6\BOITTIER\26-Aug-2020\0\\
 #p B2PLYPD3/Def2QZVP\\butadiene\\0,1\C,0,-3.84142,0.206121,-0.016955\C
 ,0,-2.701514,-0.464029,0.068524\C,0,-1.39032,0.083333,0.037629\C,0,-0.
 273993,-0.668785,0.008848\H,0,-4.772854,-0.316987,0.09008\H,0,-3.84828
 ,1.270552,-0.042798\H,0,-2.789882,-1.554523,0.125582\H,0,-1.298395,1.1
 63584,0.009556\H,0,-0.322746,-1.737185,-0.061226\H,0,0.700403,-0.29098
 ,0.064212\\Version=ES64L-G09RevD.01\State=1-A\HF=-155.6979996\MP2=-155
 .9235209\RMSD=6.247e-09\PG=C01 [X(C4H6)]\\@

 Normal termination of Gaussian 09 at Wed Aug 26 09:21:39 2020.
