 Gaussian 09, Revision D.01,
 Gaussian 09:  ES64L-G09RevD.01 24-Apr-2013

 --------------------
 #p B2PLYPD3/Def2QZVP
 --------------------

 ---------
 butadiene
 ---------
 Symbolic Z-matrix:
 Charge =  0 Multiplicity = 1

                         Standard orientation:
 ---------------------------------------------------------------------
 Center     Atomic      Atomic             Coordinates (Angstroms)
 Number     Number       Type             X           Y           Z
 ---------------------------------------------------------------------
      1          6           0        1.823723   -0.118824   -0.010666
      2          6           0        0.602717    0.409248    0.015192
      3          6           0       -0.589510   -0.389003    0.004106
      4          6           0       -1.834236    0.100436   -0.019269
      5          1           0        2.704150    0.520979    0.024151
      6          1           0        1.971378   -1.199340   -0.047571
      7          1           0        0.476474    1.485182    0.031695
      8          1           0       -0.463359   -1.452434    0.029274
      9          1           0       -1.982768    1.151951   -0.050502
     10          1           0       -2.722047   -0.517482    0.076769
 ---------------------------------------------------------------------

 SCF Done:  E(RB2PLYPD3) =  -155.700475837     A.U. after   11 cycles
 E2(B2PLYPD3) =    -0.2255969797D+00 E(B2PLYPD3) =    -0.15592607281663D+03

 The electronic state is 1-A.
 Alpha  occ. eigenvalues --  -10.62300 -10.62133 -10.61636 -10.61248  -0.93381
 Alpha  occ. eigenvalues --   -0.84913  -0.70227  -0.64369  -0.54571  -0.54176
 Alpha  occ. eigenvalues --   -0.46628  -0.45551  -0.41447  -0.38337  -0.27554
 Alpha virt. eigenvalues --    0.01669   0.07019   0.07451   0.08054   0.09710
 Alpha virt. eigenvalues --    0.11738   0.12493   0.14758   0.15916   0.16095
 Alpha virt. eigenvalues --    0.18749   0.20525   0.21582   0.22831   0.23901

 Mulliken charges:
               1
     1  C   -0.175019
     2  C   -0.030922
     3  C   -0.024072
     4  C   -0.179117
     5  H    0.084858
     6  H    0.067204
     7  H    0.054856
     8  H    0.054474
     9  H    0.062369
    10  H    0.085368
 Sum of Mulliken charges =   0.00000

 Dipole moment (field-independent basis, Debye):
    X=              0.0313    Y=              0.0109    Z=              0.0715  Tot=              0.0788
 Quadrupole moment (field-independent basis, Debye-Ang):
   XX=            -23.5443   YY=            -23.1009   ZZ=            -29.2034
   XY=             -0.0851   XZ=             -0.1710   YZ=             -0.0365

 1\1\GINC-NODE06\SP\RB2PLYPD3-FC\def2QZVP\C4H6\BOITTIER\26-Aug-2020\0\\
 #p B2PLYPD3/Def2QZVP\\butadiene\\0,1\C,0,-3.823671,0.231788,0.006738\C
 ,0,-2.718409,-0.507672,0.051221\C,0,-1.40138,0.060892,0.02117\C,0,-0.2
 659,-0.646281,0.015419\H,0,-4.805314,-0.23679,0.056972\H,0,-3.773322,1
 .319691,-0.061165\H,0,-2.78903,-1.587773,0.098535\H,0,-1.332842,1.1298
 66,0.015863\H,0,-0.310282,-1.707766,0.014393\H,0,0.719323,-0.196842,0.
 096627\\Version=ES64L-G09RevD.01\State=1-A\HF=-155.7004758\MP2=-155.92
 60728\RMSD=2.781e-09\PG=C01 [X(C4H6)]\\@

 Normal termination of Gaussian 09 at Wed Aug 26 20:52:13 2020.
