 Gaussian 09, Revision D.01,
 Gaussian 09:  ES64L-G09RevD.01 24-Apr-2013

 --------------------
 #p B2PLYPD3/Def2QZVP
 --------------------

 ---------
 butadiene
 ---------
 Symbolic Z-matrix:
 Charge =  0 Multiplicity = 1

                         Standard orientation:
 ---------------------------------------------------------------------
 Center     Atomic      Atomic             Coordinates (Angstroms)
 Number     Number       Type             X           Y           Z
 ---------------------------------------------------------------------
      1          6           0        1.828429    0.112810   -0.022983
      2          6           0        0.599907   -0.413638    0.017074
      3          6           0       -0.600557    0.387058   -0.001002
      4          6           0       -1.836634   -0.106930   -0.008808
      5          1           0        2.743180   -0.483012    0.034846
      6          1           0        1.977906    1.215065   -0.026546
      7          1           0        0.512826   -1.482676    0.040925
      8          1           0       -0.475018    1.479450    0.078104
      9          1           0       -2.024987   -1.171720   -0.038845
     10          1           0       -2.680774    0.567101    0.005827
 ---------------------------------------------------------------------

 SCF Done:  E(RB2PLYPD3) =  -155.699721519     A.U. after   11 cycles
 E2(B2PLYPD3) =    -0.2259021952D+00 E(B2PLYPD3) =    -0.15592562371386D+03

 The electronic state is 1-A.
 Alpha  occ. eigenvalues --  -10.62534 -10.62390 -10.61945 -10.61376  -0.93139
 Alpha  occ. eigenvalues --   -0.84872  -0.69942  -0.63958  -0.54462  -0.54038
 Alpha  occ. eigenvalues --   -0.46488  -0.45179  -0.41259  -0.38244  -0.27656
 Alpha virt. eigenvalues --    0.01728   0.07011   0.07370   0.07971   0.09643
 Alpha virt. eigenvalues --    0.11658   0.12385   0.14650   0.15759   0.16302
 Alpha virt. eigenvalues --    0.18758   0.20269   0.21659   0.22639   0.23889

 Mulliken charges:
               1
     1  C   -0.167825
     2  C   -0.036111
     3  C   -0.023265
     4  C   -0.179773
     5  H    0.083189
     6  H    0.058602
     7  H    0.058081
     8  H    0.052764
     9  H    0.068537
    10  H    0.085800
 Sum of Mulliken charges =   0.00000

 Dipole moment (field-independent basis, Debye):
    X=              0.0163    Y=             -0.0277    Z=              0.0957  Tot=              0.1010
 Quadrupole moment (field-independent basis, Debye-Ang):
   XX=            -23.5435   YY=            -23.0805   ZZ=            -29.2887
   XY=              0.0521   XZ=              0.0951   YZ=              0.0550

 1\1\GINC-NODE27\SP\RB2PLYPD3-FC\def2QZVP\C4H6\BOITTIER\26-Aug-2020\0\\
 #p B2PLYPD3/Def2QZVP\\butadiene\\0,1\C,0,-3.8309,0.227677,0.036787\C,0
 ,-2.71725,-0.512214,0.017711\C,0,-1.39229,0.059628,0.012163\C,0,-0.265
 208,-0.648108,0.039855\H,0,-4.838093,-0.195475,-0.003496\H,0,-3.779663
 ,1.338332,0.002989\H,0,-2.823959,-1.579667,0.02995\H,0,-1.319559,1.153
 514,-0.103861\H,0,-0.27135,-1.727799,0.106082\H,0,0.686349,-0.137791,0
 .004902\\Version=ES64L-G09RevD.01\State=1-A\HF=-155.6997215\MP2=-155.9
 256237\RMSD=3.196e-09\PG=C01 [X(C4H6)]\\@

 Normal termination of Gaussian 09 at Wed Aug 26 19:38:10 2020.
