 Gaussian 09, Revision D.01,
 Gaussian 09:  ES64L-G09RevD.01 24-Apr-2013

 --------------------
 #p B2PLYPD3/Def2QZVP
 --------------------

 ---------
 butadiene
 ---------
 Symbolic Z-matrix:
 Charge =  0 Multiplicity = 1

                         Standard orientation:
 ---------------------------------------------------------------------
 Center     Atomic      Atomic             Coordinates (Angstroms)
 Number     Number       Type             X           Y           Z
 ---------------------------------------------------------------------
      1          6           0        1.843483    0.121205   -0.037903
      2          6           0        0.615819   -0.427464    0.038002
      3          6           0       -0.618998    0.391664    0.005874
      4          6           0       -1.859718   -0.107803   -0.014529
      5          1           0        2.781721   -0.474875   -0.055786
      6          1           0        1.995362    1.199964    0.058313
      7          1           0        0.496564   -1.508254    0.053223
      8          1           0       -0.419863    1.488377    0.065919
      9          1           0       -2.046929   -1.157383   -0.016502
     10          1           0       -2.690368    0.586563   -0.053830
 ---------------------------------------------------------------------

 SCF Done:  E(RB2PLYPD3) =  -155.696827945     A.U. after   11 cycles
 E2(B2PLYPD3) =    -0.2264546221D+00 E(B2PLYPD3) =    -0.15592328256674D+03

 The electronic state is 1-A.
 Alpha  occ. eigenvalues --  -10.63163 -10.63055 -10.62210 -10.61474  -0.92383
 Alpha  occ. eigenvalues --   -0.84683  -0.69751  -0.63814  -0.54135  -0.53675
 Alpha  occ. eigenvalues --   -0.46687  -0.45623  -0.40794  -0.37625  -0.27756
 Alpha virt. eigenvalues --    0.01696   0.06959   0.07313   0.08017   0.09246
 Alpha virt. eigenvalues --    0.11623   0.12355   0.14591   0.15748   0.16133
 Alpha virt. eigenvalues --    0.18804   0.20283   0.21629   0.22936   0.23643

 Mulliken charges:
               1
     1  C   -0.167685
     2  C   -0.040055
     3  C   -0.026301
     4  C   -0.181891
     5  H    0.080054
     6  H    0.063406
     7  H    0.058372
     8  H    0.051973
     9  H    0.073878
    10  H    0.088249
 Sum of Mulliken charges =   0.00000

 Dipole moment (field-independent basis, Debye):
    X=              0.0288    Y=             -0.0241    Z=              0.0794  Tot=              0.0879
 Quadrupole moment (field-independent basis, Debye-Ang):
   XX=            -23.5220   YY=            -23.0827   ZZ=            -29.4317
   XY=              0.2965   XZ=              0.1276   YZ=              0.1177

 1\1\GINC-NODE07\SP\RB2PLYPD3-FC\def2QZVP\C4H6\BOITTIER\26-Aug-2020\0\\
 #p B2PLYPD3/Def2QZVP\\butadiene\\0,1\C,0,-3.846038,0.236641,0.051305\C
 ,0,-2.736143,-0.524491,-0.001326\C,0,-1.374951,0.061924,0.00569\C,0,-0
 .243125,-0.649751,0.047608\H,0,-4.87547,-0.181563,0.087312\H,0,-3.8034
 25,1.321109,-0.08345\H,0,-2.81158,-1.609076,0.022032\H,0,-1.375518,1.1
 73752,-0.093699\H,0,-0.246074,-1.715156,0.087258\H,0,0.698156,-0.11369
 2,0.064939\\Version=ES64L-G09RevD.01\State=1-A\HF=-155.6968279\MP2=-15
 5.9232826\RMSD=4.023e-09\PG=C01 [X(C4H6)]\\@

 Normal termination of Gaussian 09 at Wed Aug 26 22:18:11 2020.
