 Gaussian 09, Revision D.01,
 Gaussian 09:  ES64L-G09RevD.01 24-Apr-2013

 --------------------
 #p B2PLYPD3/Def2QZVP
 --------------------

 ---------
 butadiene
 ---------
 Symbolic Z-matrix:
 Charge =  0 Multiplicity = 1

                         Standard orientation:
 ---------------------------------------------------------------------
 Center     Atomic      Atomic             Coordinates (Angstroms)
 Number     Number       Type             X           Y           Z
 ---------------------------------------------------------------------
      1          6           0        1.845130    0.095346   -0.020033
      2          6           0        0.607241   -0.386415    0.032811
      3          6           0       -0.606968    0.413988    0.010706
      4          6           0       -1.832979   -0.121521   -0.023997
      5          1           0        2.688313   -0.546593   -0.010964
      6          1           0        2.045945    1.164218   -0.045751
      7          1           0        0.476629   -1.454778    0.023420
      8          1           0       -0.496155    1.497056    0.049423
      9          1           0       -2.071743   -1.190695   -0.033631
     10          1           0       -2.717533    0.522403    0.020580
 ---------------------------------------------------------------------

 SCF Done:  E(RB2PLYPD3) =  -155.700104422     A.U. after   11 cycles
 E2(B2PLYPD3) =    -0.2256080149D+00 E(B2PLYPD3) =    -0.15592571243721D+03

 The electronic state is 1-A.
 Alpha  occ. eigenvalues --  -10.62754 -10.62272 -10.61894 -10.61179  -0.92934
 Alpha  occ. eigenvalues --   -0.84933  -0.70209  -0.64063  -0.54795  -0.53800
 Alpha  occ. eigenvalues --   -0.46936  -0.45299  -0.40982  -0.38117  -0.27733
 Alpha virt. eigenvalues --    0.01746   0.06994   0.07423   0.08053   0.09636
 Alpha virt. eigenvalues --    0.11604   0.12395   0.14792   0.15845   0.16215
 Alpha virt. eigenvalues --    0.18885   0.20501   0.21744   0.22608   0.23672

 Mulliken charges:
               1
     1  C   -0.174794
     2  C   -0.029107
     3  C   -0.036605
     4  C   -0.170652
     5  H    0.086465
     6  H    0.062918
     7  H    0.056675
     8  H    0.059213
     9  H    0.067924
    10  H    0.077962
 Sum of Mulliken charges =   0.00000

 Dipole moment (field-independent basis, Debye):
    X=             -0.0214    Y=             -0.0199    Z=              0.0322  Tot=              0.0435
 Quadrupole moment (field-independent basis, Debye-Ang):
   XX=            -23.3964   YY=            -23.0737   ZZ=            -29.2673
   XY=              0.2747   XZ=             -0.1514   YZ=              0.0555

 1\1\GINC-NODE02\SP\RB2PLYPD3-FC\def2QZVP\C4H6\BOITTIER\26-Aug-2020\0\\
 #p B2PLYPD3/Def2QZVP\\butadiene\\0,1\C,0,-3.847971,0.21403,0.039879\C,
 0,-2.718309,-0.485874,0.004484\C,0,-1.378959,0.081185,-0.000004\C,0,-0
 .270244,-0.666424,0.053932\H,0,-4.793642,-0.264175,0.052227\H,0,-3.851
 435,1.301845,0.028772\H,0,-2.783597,-1.55926,0.050611\H,0,-1.291696,1.
 164437,-0.075929\H,0,-0.22932,-1.760224,0.100408\H,0,0.716175,-0.19559
 1,-0.012069\\Version=ES64L-G09RevD.01\State=1-A\HF=-155.7001044\MP2=-1
 55.9257124\RMSD=4.562e-09\PG=C01 [X(C4H6)]\\@

 Normal termination of Gaussian 09 at Wed Aug 26 16:14:02 2020.
