 Gaussian 09, Revision D.01,
 Gaussian 09:  ES64L-G09RevD.01 24-Apr-2013

 --------------------
 #p B2PLYPD3/Def2QZVP
 --------------------

 ---------
 butadiene
 ---------
 Symbolic Z-matrix:
 Charge =  0 Multiplicity = 1

                         Standard orientation:
 ---------------------------------------------------------------------
 Center     Atomic      Atomic             Coordinates (Angstroms)
 Number     Number       Type             X           Y           Z
 ---------------------------------------------------------------------
      1          6           0       -1.831538    0.096407    0.014225
      2          6           0       -0.599507   -0.392319   -0.004200
      3          6           0        0.605006    0.422569   -0.019915
      4          6           0        1.825624   -0.125029    0.005369
      5          1           0       -2.693633   -0.531502   -0.002477
      6          1           0       -2.008147    1.176057   -0.023151
      7          1           0       -0.435433   -1.457401   -0.005152
      8          1           0        0.505541    1.490306    0.025774
      9          1           0        1.952046   -1.190430   -0.000136
     10          1           0        2.682110    0.503201    0.032263
 ---------------------------------------------------------------------

 SCF Done:  E(RB2PLYPD3) =  -155.701011453     A.U. after   11 cycles
 E2(B2PLYPD3) =    -0.2252706094D+00 E(B2PLYPD3) =    -0.15592628206201D+03

 The electronic state is 1-A.
 Alpha  occ. eigenvalues --  -10.62321 -10.62205 -10.61209 -10.61177  -0.93140
 Alpha  occ. eigenvalues --   -0.85060  -0.70148  -0.64363  -0.54784  -0.54131
 Alpha  occ. eigenvalues --   -0.46632  -0.45842  -0.41356  -0.38163  -0.27687
 Alpha virt. eigenvalues --    0.01928   0.07068   0.07425   0.08155   0.09540
 Alpha virt. eigenvalues --    0.11757   0.12472   0.14771   0.15850   0.16177
 Alpha virt. eigenvalues --    0.18728   0.20462   0.21643   0.23116   0.24008

 Mulliken charges:
               1
     1  C   -0.175545
     2  C   -0.029147
     3  C   -0.030958
     4  C   -0.179443
     5  H    0.086122
     6  H    0.062557
     7  H    0.054316
     8  H    0.057984
     9  H    0.068085
    10  H    0.086027
 Sum of Mulliken charges =   0.00000

 Dipole moment (field-independent basis, Debye):
    X=              0.0295    Y=              0.0036    Z=              0.0063  Tot=              0.0304
 Quadrupole moment (field-independent basis, Debye-Ang):
   XX=            -23.6096   YY=            -22.9842   ZZ=            -29.1953
   XY=             -0.0933   XZ=              0.1891   YZ=              0.0403

 1\1\GINC-NODE18\SP\RB2PLYPD3-FC\def2QZVP\C4H6\BOITTIER\26-Aug-2020\0\\
 #p B2PLYPD3/Def2QZVP\\butadiene\\0,1\C,0,-3.835973,0.211846,0.031094\C
 ,0,-2.712867,-0.492231,0.029827\C,0,-1.380715,0.090321,-0.004005\C,0,-
 0.27942,-0.66838,0.039972\H,0,-4.797562,-0.249778,0.028575\H,0,-3.8141
 85,1.30421,-0.035976\H,0,-2.744411,-1.569043,0.05815\H,0,-1.285073,1.1
 59256,0.012528\H,0,-0.348059,-1.73881,0.063632\H,0,0.676728,-0.205148,
 0.052653\\Version=ES64L-G09RevD.01\State=1-A\HF=-155.7010115\MP2=-155.
 9262821\RMSD=5.382e-09\PG=C01 [X(C4H6)]\\@

 Normal termination of Gaussian 09 at Wed Aug 26 19:18:12 2020.
