 Gaussian 09, Revision D.01,
 Gaussian 09:  ES64L-G09RevD.01 24-Apr-2013

 --------------------
 #p B2PLYPD3/Def2QZVP
 --------------------

 ---------
 butadiene
 ---------
 Symbolic Z-matrix:
 Charge =  0 Multiplicity = 1

                         Standard orientation:
 ---------------------------------------------------------------------
 Center     Atomic      Atomic             Coordinates (Angstroms)
 Number     Number       Type             X           Y           Z
 ---------------------------------------------------------------------
      1          6           0       -1.827941   -0.102926   -0.004261
      2          6           0       -0.568338    0.375494    0.034009
      3          6           0        0.603461   -0.384705    0.035633
      4          6           0        1.813911    0.104496   -0.063254
      5          1           0       -2.617515    0.527970   -0.068547
      6          1           0       -2.121511   -1.159067   -0.047727
      7          1           0       -0.504701    1.500672    0.041630
      8          1           0        0.528582   -1.491270   -0.074723
      9          1           0        1.895514    1.155832   -0.050893
     10          1           0        2.693080   -0.488295    0.187499
 ---------------------------------------------------------------------

 SCF Done:  E(RB2PLYPD3) =  -155.684628464     A.U. after   11 cycles
 E2(B2PLYPD3) =    -0.2261147778D+00 E(B2PLYPD3) =    -0.15591074324196D+03

 The electronic state is 1-A.
 Alpha  occ. eigenvalues --  -10.62774 -10.61945 -10.61151 -10.60742  -0.94024
 Alpha  occ. eigenvalues --   -0.85412  -0.71216  -0.63518  -0.55251  -0.54376
 Alpha  occ. eigenvalues --   -0.46607  -0.45179  -0.41284  -0.38633  -0.27490
 Alpha virt. eigenvalues --    0.01085   0.07084   0.07301   0.07941   0.09951
 Alpha virt. eigenvalues --    0.11687   0.12706   0.14825   0.15396   0.16635
 Alpha virt. eigenvalues --    0.18678   0.19272   0.22185   0.22870   0.24218

 Mulliken charges:
               1
     1  C   -0.175572
     2  C   -0.032617
     3  C   -0.014618
     4  C   -0.161611
     5  H    0.086222
     6  H    0.063009
     7  H    0.043273
     8  H    0.054986
     9  H    0.054711
    10  H    0.082217
 Sum of Mulliken charges =   0.00000

 Dipole moment (field-independent basis, Debye):
    X=             -0.0975    Y=              0.0058    Z=              0.0452  Tot=              0.1076
 Quadrupole moment (field-independent basis, Debye-Ang):
   XX=            -23.4667   YY=            -23.3120   ZZ=            -29.0153
   XY=             -0.0163   XZ=              0.7529   YZ=             -0.0130

 1\1\GINC-NODE22\SP\RB2PLYPD3-FC\def2QZVP\C4H6\BOITTIER\26-Aug-2020\0\\
 #p B2PLYPD3/Def2QZVP\\butadiene\\0,1\C,0,-3.832842,0.220283,0.034418\C
 ,0,-2.682385,-0.48143,0.002834\C,0,-1.391365,0.051132,-0.022895\C,0,-0
 .289997,-0.648894,0.083113\H,0,-4.723899,-0.253675,0.11791\H,0,-3.9278
 82,1.313052,0.052557\H,0,-2.825702,-1.599096,0.023243\H,0,-1.261602,1.
 155023,0.059913\H,0,-0.402186,-1.69739,0.096851\H,0,0.680532,-0.233254
 ,-0.186208\\Version=ES64L-G09RevD.01\State=1-A\HF=-155.6846285\MP2=-15
 5.9107432\RMSD=8.060e-09\PG=C01 [X(C4H6)]\\@

 Normal termination of Gaussian 09 at Wed Aug 26 13:32:31 2020.
