 Gaussian 09, Revision D.01,
 Gaussian 09:  ES64L-G09RevD.01 24-Apr-2013

 --------------------
 #p B2PLYPD3/Def2QZVP
 --------------------

 ---------
 butadiene
 ---------
 Symbolic Z-matrix:
 Charge =  0 Multiplicity = 1

                         Standard orientation:
 ---------------------------------------------------------------------
 Center     Atomic      Atomic             Coordinates (Angstroms)
 Number     Number       Type             X           Y           Z
 ---------------------------------------------------------------------
      1          6           0        1.834786   -0.111476    0.006827
      2          6           0        0.605133    0.398325   -0.033702
      3          6           0       -0.609240   -0.384007   -0.026084
      4          6           0       -1.844990    0.098409    0.022680
      5          1           0        2.728057    0.495517    0.081274
      6          1           0        2.027291   -1.172400    0.070435
      7          1           0        0.516908    1.477003   -0.026085
      8          1           0       -0.446900   -1.453724   -0.017144
      9          1           0       -2.019371    1.192952    0.061822
     10          1           0       -2.720116   -0.546853    0.011368
 ---------------------------------------------------------------------

 SCF Done:  E(RB2PLYPD3) =  -155.700231577     A.U. after   11 cycles
 E2(B2PLYPD3) =    -0.2255656539D+00 E(B2PLYPD3) =    -0.15592579723077D+03

 The electronic state is 1-A.
 Alpha  occ. eigenvalues --  -10.62429 -10.62347 -10.61807 -10.61484  -0.93176
 Alpha  occ. eigenvalues --   -0.85030  -0.70268  -0.64033  -0.54842  -0.53769
 Alpha  occ. eigenvalues --   -0.47055  -0.45162  -0.40872  -0.38330  -0.27810
 Alpha virt. eigenvalues --    0.01692   0.06979   0.07432   0.08034   0.09809
 Alpha virt. eigenvalues --    0.11628   0.12437   0.14687   0.15873   0.16216
 Alpha virt. eigenvalues --    0.18872   0.20493   0.21600   0.22707   0.23607

 Mulliken charges:
               1
     1  C   -0.170471
     2  C   -0.026404
     3  C   -0.031557
     4  C   -0.172561
     5  H    0.081814
     6  H    0.060242
     7  H    0.053515
     8  H    0.053878
     9  H    0.063122
    10  H    0.088422
 Sum of Mulliken charges =   0.00000

 Dipole moment (field-independent basis, Debye):
    X=              0.0339    Y=             -0.0147    Z=              0.1256  Tot=              0.1309
 Quadrupole moment (field-independent basis, Debye-Ang):
   XX=            -23.2811   YY=            -23.2542   ZZ=            -29.2218
   XY=             -0.1196   XZ=              0.2407   YZ=              0.0255

 1\1\GINC-NODE08\SP\RB2PLYPD3-FC\def2QZVP\C4H6\BOITTIER\26-Aug-2020\0\\
 #p B2PLYPD3/Def2QZVP\\butadiene\\0,1\C,0,-3.838338,0.225831,0.031635\C
 ,0,-2.720905,-0.498244,0.006243\C,0,-1.385421,0.052247,-0.009436\C,0,-
 0.256576,-0.643392,0.053612\H,0,-4.825945,-0.207753,0.124121\H,0,-3.83
 6186,1.305476,0.06368\H,0,-2.828444,-1.574464,0.045923\H,0,-1.352308,1
 .133501,-0.032297\H,0,-0.282059,-1.749819,0.125271\H,0,0.720419,-0.167
 066,0.023095\\Version=ES64L-G09RevD.01\State=1-A\HF=-155.7002316\MP2=-
 155.9257972\RMSD=4.050e-09\PG=C01 [X(C4H6)]\\@

 Normal termination of Gaussian 09 at Wed Aug 26 19:49:12 2020.
