 Gaussian 09, Revision D.01,
 Gaussian 09:  ES64L-G09RevD.01 24-Apr-2013

 --------------------
 #p B2PLYPD3/Def2QZVP
 --------------------

 ---------
 butadiene
 ---------
 Symbolic Z-matrix:
 Charge =  0 Multiplicity = 1

                         Standard orientation:
 ---------------------------------------------------------------------
 Center     Atomic      Atomic             Coordinates (Angstroms)
 Number     Number       Type             X           Y           Z
 ---------------------------------------------------------------------
      1          6           0        1.861310    0.094363   -0.009996
      2          6           0        0.614817   -0.371748    0.029849
      3          6           0       -0.612635    0.402390   -0.010057
      4          6           0       -1.834594   -0.125878   -0.010738
      5          1           0        2.667189   -0.597112   -0.012999
      6          1           0        2.045502    1.146179   -0.138882
      7          1           0        0.377398   -1.415596    0.094294
      8          1           0       -0.489586    1.501148    0.166215
      9          1           0       -2.055948   -1.181762   -0.104191
     10          1           0       -2.717942    0.552386    0.001217
 ---------------------------------------------------------------------

 SCF Done:  E(RB2PLYPD3) =  -155.695860842     A.U. after   11 cycles
 E2(B2PLYPD3) =    -0.2258570358D+00 E(B2PLYPD3) =    -0.15592171787819D+03

 The electronic state is 1-A.
 Alpha  occ. eigenvalues --  -10.62752 -10.62227 -10.61991 -10.61271  -0.93045
 Alpha  occ. eigenvalues --   -0.85054  -0.70480  -0.63670  -0.54746  -0.53657
 Alpha  occ. eigenvalues --   -0.47028  -0.45882  -0.40419  -0.37975  -0.27902
 Alpha virt. eigenvalues --    0.01616   0.07012   0.07402   0.08003   0.09623
 Alpha virt. eigenvalues --    0.11691   0.12284   0.14938   0.15403   0.16009
 Alpha virt. eigenvalues --    0.18762   0.19971   0.21861   0.22842   0.23694

 Mulliken charges:
               1
     1  C   -0.179951
     2  C   -0.030876
     3  C   -0.026297
     4  C   -0.179341
     5  H    0.091130
     6  H    0.071947
     7  H    0.050882
     8  H    0.052888
     9  H    0.069487
    10  H    0.080133
 Sum of Mulliken charges =   0.00000

 Dipole moment (field-independent basis, Debye):
    X=             -0.0598    Y=             -0.0495    Z=             -0.0071  Tot=              0.0780
 Quadrupole moment (field-independent basis, Debye-Ang):
   XX=            -23.5174   YY=            -23.2290   ZZ=            -29.2008
   XY=              0.3502   XZ=             -0.1887   YZ=              0.0786

 1\1\GINC-NODE16\SP\RB2PLYPD3-FC\def2QZVP\C4H6\BOITTIER\26-Aug-2020\0\\
 #p B2PLYPD3/Def2QZVP\\butadiene\\0,1\C,0,-3.861932,0.216727,0.029345\C
 ,0,-2.721308,-0.469665,0.008526\C,0,-1.373285,0.069094,0.018201\C,0,-0
 .267814,-0.67232,0.040332\H,0,-4.780096,-0.315868,0.059439\H,0,-3.8508
 64,1.288718,0.11634\H,0,-2.67815,-1.540997,-0.014373\H,0,-1.295637,1.1
 64155,-0.201559\H,0,-0.241565,-1.746384,0.175677\H,0,0.724061,-0.16715
 5,0.001848\\Version=ES64L-G09RevD.01\State=1-A\HF=-155.6958608\MP2=-15
 5.9217179\RMSD=3.526e-09\PG=C01 [X(C4H6)]\\@

 Normal termination of Gaussian 09 at Wed Aug 26 08:41:34 2020.
