 Gaussian 09, Revision D.01,
 Gaussian 09:  ES64L-G09RevD.01 24-Apr-2013

 --------------------
 #p B2PLYPD3/Def2QZVP
 --------------------

 ---------
 butadiene
 ---------
 Symbolic Z-matrix:
 Charge =  0 Multiplicity = 1

                         Standard orientation:
 ---------------------------------------------------------------------
 Center     Atomic      Atomic             Coordinates (Angstroms)
 Number     Number       Type             X           Y           Z
 ---------------------------------------------------------------------
      1          6           0        1.843362   -0.129360   -0.007584
      2          6           0        0.603085    0.393843    0.001424
      3          6           0       -0.622454   -0.370475    0.018645
      4          6           0       -1.851017    0.105634   -0.034249
      5          1           0        2.716256    0.556180   -0.002112
      6          1           0        1.985728   -1.191562   -0.087166
      7          1           0        0.559473    1.462041    0.111678
      8          1           0       -0.449304   -1.435722    0.091080
      9          1           0       -1.974308    1.173295   -0.041309
     10          1           0       -2.675700   -0.562083    0.058414
 ---------------------------------------------------------------------

 SCF Done:  E(RB2PLYPD3) =  -155.697666624     A.U. after   11 cycles
 E2(B2PLYPD3) =    -0.2256142632D+00 E(B2PLYPD3) =    -0.15592328088718D+03

 The electronic state is 1-A.
 Alpha  occ. eigenvalues --  -10.62335 -10.62102 -10.61899 -10.61055  -0.93214
 Alpha  occ. eigenvalues --   -0.85225  -0.70226  -0.64081  -0.54770  -0.54038
 Alpha  occ. eigenvalues --   -0.46491  -0.45939  -0.41166  -0.38092  -0.27813
 Alpha virt. eigenvalues --    0.01624   0.06995   0.07537   0.07964   0.09849
 Alpha virt. eigenvalues --    0.11763   0.12305   0.14772   0.15690   0.16080
 Alpha virt. eigenvalues --    0.18727   0.20069   0.21572   0.22607   0.24311

 Mulliken charges:
               1
     1  C   -0.182711
     2  C   -0.025960
     3  C   -0.027618
     4  C   -0.176532
     5  H    0.084415
     6  H    0.068710
     7  H    0.051750
     8  H    0.047939
     9  H    0.068454
    10  H    0.091553
 Sum of Mulliken charges =   0.00000

 Dipole moment (field-independent basis, Debye):
    X=              0.0152    Y=             -0.0021    Z=              0.1260  Tot=              0.1270
 Quadrupole moment (field-independent basis, Debye-Ang):
   XX=            -23.6724   YY=            -23.1058   ZZ=            -29.1908
   XY=              0.1234   XZ=             -0.2566   YZ=              0.0565

 1\1\GINC-NODE37\SP\RB2PLYPD3-FC\def2QZVP\C4H6\BOITTIER\26-Aug-2020\0\\
 #p B2PLYPD3/Def2QZVP\\butadiene\\0,1\C,0,-3.847492,0.234617,0.008945\C
 ,0,-2.717842,-0.496797,0.041078\C,0,-1.377458,0.041503,0.035637\C,0,-0
 .251265,-0.64373,0.004192\H,0,-4.82683,-0.287042,0.03556\H,0,-3.802062
 ,1.301828,-0.108834\H,0,-2.861473,-1.551542,0.18936\H,0,-1.361409,1.12
 2507,0.069557\H,0,-0.316657,-1.716061,0.035508\H,0,0.677743,-0.12768,0
 .076105\\Version=ES64L-G09RevD.01\State=1-A\HF=-155.6976666\MP2=-155.9
 232809\RMSD=6.623e-09\PG=C01 [X(C4H6)]\\@

 Normal termination of Gaussian 09 at Wed Aug 26 08:50:45 2020.
