 Gaussian 09, Revision D.01,
 Gaussian 09:  ES64L-G09RevD.01 24-Apr-2013

 --------------------
 #p B2PLYPD3/Def2QZVP
 --------------------

 ---------
 butadiene
 ---------
 Symbolic Z-matrix:
 Charge =  0 Multiplicity = 1

                         Standard orientation:
 ---------------------------------------------------------------------
 Center     Atomic      Atomic             Coordinates (Angstroms)
 Number     Number       Type             X           Y           Z
 ---------------------------------------------------------------------
      1          6           0        1.838418    0.107806    0.021230
      2          6           0        0.618157   -0.397174   -0.022897
      3          6           0       -0.604180    0.383347   -0.036422
      4          6           0       -1.844065   -0.110694    0.010480
      5          1           0        2.709899   -0.520686    0.026029
      6          1           0        1.965594    1.213135    0.036707
      7          1           0        0.482758   -1.455477   -0.021622
      8          1           0       -0.476872    1.465964   -0.001528
      9          1           0       -2.049072   -1.167764    0.062909
     10          1           0       -2.682281    0.565113    0.063159
 ---------------------------------------------------------------------

 SCF Done:  E(RB2PLYPD3) =  -155.700310796     A.U. after   11 cycles
 E2(B2PLYPD3) =    -0.2253938886D+00 E(B2PLYPD3) =    -0.15592570468431D+03

 The electronic state is 1-A.
 Alpha  occ. eigenvalues --  -10.62479 -10.62041 -10.61591 -10.61445  -0.93147
 Alpha  occ. eigenvalues --   -0.85154  -0.70197  -0.63998  -0.54792  -0.53891
 Alpha  occ. eigenvalues --   -0.46898  -0.45560  -0.40924  -0.38251  -0.27856
 Alpha virt. eigenvalues --    0.01801   0.06986   0.07433   0.08073   0.09814
 Alpha virt. eigenvalues --    0.11709   0.12347   0.14742   0.15850   0.16069
 Alpha virt. eigenvalues --    0.18792   0.20517   0.21451   0.22668   0.24022

 Mulliken charges:
               1
     1  C   -0.172573
     2  C   -0.029971
     3  C   -0.025907
     4  C   -0.179094
     5  H    0.089943
     6  H    0.061366
     7  H    0.053634
     8  H    0.049392
     9  H    0.067801
    10  H    0.085408
 Sum of Mulliken charges =   0.00000

 Dipole moment (field-independent basis, Debye):
    X=              0.0106    Y=             -0.0405    Z=              0.1122  Tot=              0.1198
 Quadrupole moment (field-independent basis, Debye-Ang):
   XX=            -23.5110   YY=            -23.1200   ZZ=            -29.2122
   XY=              0.0376   XZ=             -0.1998   YZ=              0.0259

 1\1\GINC-NODE06\SP\RB2PLYPD3-FC\def2QZVP\C4H6\BOITTIER\26-Aug-2020\0\\
 #p B2PLYPD3/Def2QZVP\\butadiene\\0,1\C,0,-3.840273,0.221281,-0.003429\
 C,0,-2.729949,-0.492505,0.057218\C,0,-1.387536,0.056406,0.04586\C,0,-0
 .256452,-0.653029,0.015178\H,0,-4.810233,-0.240726,0.01183\H,0,-3.7675
 28,1.330452,-0.054541\H,0,-2.786276,-1.557441,0.090074\H,0,-1.319096,1
 .142652,-0.023927\H,0,-0.244361,-1.730848,-0.003119\H,0,0.688935,-0.14
 0361,-0.059062\\Version=ES64L-G09RevD.01\State=1-A\HF=-155.7003108\MP2
 =-155.9257047\RMSD=5.083e-09\PG=C01 [X(C4H6)]\\@

 Normal termination of Gaussian 09 at Wed Aug 26 18:33:51 2020.
