 Gaussian 09, Revision D.01,
 Gaussian 09:  ES64L-G09RevD.01 24-Apr-2013

 --------------------
 #p B2PLYPD3/Def2QZVP
 --------------------

 ---------
 butadiene
 ---------
 Symbolic Z-matrix:
 Charge =  0 Multiplicity = 1

                         Standard orientation:
 ---------------------------------------------------------------------
 Center     Atomic      Atomic             Coordinates (Angstroms)
 Number     Number       Type             X           Y           Z
 ---------------------------------------------------------------------
      1          6           0       -1.842372   -0.131022    0.002939
      2          6           0       -0.621121    0.425867   -0.053571
      3          6           0        0.598728   -0.381183   -0.044070
      4          6           0        1.851400    0.088158    0.050073
      5          1           0       -2.680110    0.497744    0.304804
      6          1           0       -1.979611   -1.175511    0.097885
      7          1           0       -0.489474    1.549782   -0.181665
      8          1           0        0.412651   -1.379918   -0.126669
      9          1           0        2.215581    1.112547    0.109232
     10          1           0        2.601155   -0.615567    0.064182
 ---------------------------------------------------------------------

 SCF Done:  E(RB2PLYPD3) =  -155.686087708     A.U. after   11 cycles
 E2(B2PLYPD3) =    -0.2260585185D+00 E(B2PLYPD3) =    -0.15591214622681D+03

 The electronic state is 1-A.
 Alpha  occ. eigenvalues --  -10.63267 -10.62080 -10.61416 -10.61138  -0.92886
 Alpha  occ. eigenvalues --   -0.84998  -0.70865  -0.64318  -0.54732  -0.53988
 Alpha  occ. eigenvalues --   -0.46935  -0.46152  -0.41238  -0.37428  -0.27593
 Alpha virt. eigenvalues --    0.01364   0.07001   0.07504   0.08090   0.09299
 Alpha virt. eigenvalues --    0.11522   0.12626   0.14990   0.15570   0.16095
 Alpha virt. eigenvalues --    0.18889   0.19975   0.21884   0.23162   0.23425

 Mulliken charges:
               1
     1  C   -0.169571
     2  C   -0.032315
     3  C   -0.047703
     4  C   -0.173441
     5  H    0.078182
     6  H    0.062484
     7  H    0.061201
     8  H    0.069144
     9  H    0.072738
    10  H    0.079282
 Sum of Mulliken charges =   0.00000

 Dipole moment (field-independent basis, Debye):
    X=              0.1117    Y=             -0.0394    Z=              0.1887  Tot=              0.2228
 Quadrupole moment (field-independent basis, Debye-Ang):
   XX=            -23.7776   YY=            -23.0595   ZZ=            -29.0848
   XY=              0.5407   XZ=             -0.6598   YZ=              0.0853

 1\1\GINC-NODE12\SP\RB2PLYPD3-FC\def2QZVP\C4H6\BOITTIER\26-Aug-2020\0\\
 #p B2PLYPD3/Def2QZVP\\butadiene\\0,1\C,0,-3.836752,0.254032,0.000705\C
 ,0,-2.739784,-0.516879,0.085142\C,0,-1.39155,0.049503,0.054674\C,0,-0.
 24752,-0.646742,-0.014377\H,0,-4.776531,-0.219361,-0.283882\H,0,-3.778
 155,1.301704,-0.132544\H,0,-2.818582,-1.640307,0.25433\H,0,-1.389382,1
 .067759,0.100174\H,0,-0.079413,-1.722307,-0.034367\H,0,0.619615,-0.094
 97,-0.048817\\Version=ES64L-G09RevD.01\State=1-A\HF=-155.6860877\MP2=-
 155.9121462\RMSD=4.532e-09\PG=C01 [X(C4H6)]\\@

 Normal termination of Gaussian 09 at Wed Aug 26 13:43:13 2020.
