 Gaussian 09, Revision D.01,
 Gaussian 09:  ES64L-G09RevD.01 24-Apr-2013

 --------------------
 #p B2PLYPD3/Def2QZVP
 --------------------

 ---------
 butadiene
 ---------
 Symbolic Z-matrix:
 Charge =  0 Multiplicity = 1

                         Standard orientation:
 ---------------------------------------------------------------------
 Center     Atomic      Atomic             Coordinates (Angstroms)
 Number     Number       Type             X           Y           Z
 ---------------------------------------------------------------------
      1          6           0        1.827624   -0.117739   -0.004369
      2          6           0        0.589376    0.421357   -0.023976
      3          6           0       -0.595438   -0.394440   -0.005117
      4          6           0       -1.832397    0.099942    0.006918
      5          1           0        2.696439    0.481777    0.053618
      6          1           0        1.994926   -1.169274    0.055061
      7          1           0        0.498830    1.505003    0.032242
      8          1           0       -0.421784   -1.468732   -0.017963
      9          1           0       -2.027782    1.157708    0.014711
     10          1           0       -2.675613   -0.561204    0.021594
 ---------------------------------------------------------------------

 SCF Done:  E(RB2PLYPD3) =  -155.699832466     A.U. after   11 cycles
 E2(B2PLYPD3) =    -0.2257552454D+00 E(B2PLYPD3) =    -0.15592558771123D+03

 The electronic state is 1-A.
 Alpha  occ. eigenvalues --  -10.62613 -10.62359 -10.61214 -10.61210  -0.93155
 Alpha  occ. eigenvalues --   -0.84802  -0.70555  -0.64254  -0.54755  -0.54183
 Alpha  occ. eigenvalues --   -0.46393  -0.45892  -0.41587  -0.38198  -0.27389
 Alpha virt. eigenvalues --    0.01585   0.07065   0.07407   0.08114   0.09518
 Alpha virt. eigenvalues --    0.11719   0.12508   0.14885   0.15834   0.16266
 Alpha virt. eigenvalues --    0.18735   0.20471   0.21860   0.23104   0.23745

 Mulliken charges:
               1
     1  C   -0.177762
     2  C   -0.029530
     3  C   -0.027753
     4  C   -0.178517
     5  H    0.082754
     6  H    0.063938
     7  H    0.056825
     8  H    0.055680
     9  H    0.069266
    10  H    0.085100
 Sum of Mulliken charges =   0.00000

 Dipole moment (field-independent basis, Debye):
    X=              0.0261    Y=              0.0026    Z=              0.1297  Tot=              0.1323
 Quadrupole moment (field-independent basis, Debye-Ang):
   XX=            -23.5484   YY=            -22.9989   ZZ=            -29.2354
   XY=             -0.2453   XZ=              0.2320   YZ=              0.0412

 1\1\GINC-NODE14\SP\RB2PLYPD3-FC\def2QZVP\C4H6\BOITTIER\26-Aug-2020\0\\
 #p B2PLYPD3/Def2QZVP\\butadiene\\0,1\C,0,-3.827782,0.238454,0.01951\C,
 0,-2.710221,-0.520044,0.017158\C,0,-1.395273,0.063503,0.010235\C,0,-0.
 270557,-0.649844,0.03809\H,0,-4.79185,-0.18849,0.096407\H,0,-3.798094,
 1.304142,0.045511\H,0,-2.820603,-1.599514,0.107758\H,0,-1.36805,1.1504
 61,-0.036726\H,0,-0.273406,-1.724732,0.079479\H,0,0.680125,-0.155369,0
 .03186\\Version=ES64L-G09RevD.01\State=1-A\HF=-155.6998325\MP2=-155.92
 55877\RMSD=5.362e-09\PG=C01 [X(C4H6)]\\@

 Normal termination of Gaussian 09 at Wed Aug 26 21:58:02 2020.
