 Gaussian 09, Revision D.01,
 Gaussian 09:  ES64L-G09RevD.01 24-Apr-2013

 --------------------
 #p B2PLYPD3/Def2QZVP
 --------------------

 ---------
 butadiene
 ---------
 Symbolic Z-matrix:
 Charge =  0 Multiplicity = 1

                         Standard orientation:
 ---------------------------------------------------------------------
 Center     Atomic      Atomic             Coordinates (Angstroms)
 Number     Number       Type             X           Y           Z
 ---------------------------------------------------------------------
      1          6           0       -1.848116   -0.134446    0.025407
      2          6           0       -0.601289    0.417404   -0.026904
      3          6           0        0.614026   -0.360501   -0.064374
      4          6           0        1.848067    0.074729    0.045280
      5          1           0       -2.742297    0.455108    0.121210
      6          1           0       -2.015026   -1.197618    0.007887
      7          1           0       -0.531162    1.555190   -0.074136
      8          1           0        0.499551   -1.432063   -0.022135
      9          1           0        2.001557    1.175491    0.008824
     10          1           0        2.711251   -0.539229    0.081902
 ---------------------------------------------------------------------

 SCF Done:  E(RB2PLYPD3) =  -155.694050922     A.U. after   11 cycles
 E2(B2PLYPD3) =    -0.2263097488D+00 E(B2PLYPD3) =    -0.15592036067127D+03

 The electronic state is 1-A.
 Alpha  occ. eigenvalues --  -10.63722 -10.62089 -10.61997 -10.61280  -0.93001
 Alpha  occ. eigenvalues --   -0.84921  -0.70486  -0.63497  -0.55191  -0.53619
 Alpha  occ. eigenvalues --   -0.47004  -0.44903  -0.40857  -0.38202  -0.27653
 Alpha virt. eigenvalues --    0.01406   0.07033   0.07360   0.07942   0.09720
 Alpha virt. eigenvalues --    0.11533   0.12502   0.14521   0.15679   0.16566
 Alpha virt. eigenvalues --    0.18875   0.19927   0.21684   0.22970   0.23593

 Mulliken charges:
               1
     1  C   -0.174624
     2  C   -0.036853
     3  C   -0.019235
     4  C   -0.167488
     5  H    0.086244
     6  H    0.067492
     7  H    0.049004
     8  H    0.050608
     9  H    0.053752
    10  H    0.091101
 Sum of Mulliken charges =   0.00000

 Dipole moment (field-independent basis, Debye):
    X=             -0.0280    Y=             -0.0702    Z=              0.0497  Tot=              0.0904
 Quadrupole moment (field-independent basis, Debye-Ang):
   XX=            -23.1366   YY=            -23.3272   ZZ=            -29.2983
   XY=             -0.0658   XZ=             -0.0738   YZ=             -0.0855

 1\1\GINC-NODE34\SP\RB2PLYPD3-FC\def2QZVP\C4H6\BOITTIER\26-Aug-2020\0\\
 #p B2PLYPD3/Def2QZVP\\butadiene\\0,1\C,0,-3.848535,0.243498,-0.013289\
 C,0,-2.719234,-0.518281,0.065617\C,0,-1.384956,0.03233,0.073265\C,0,-0
 .248338,-0.619346,-0.014623\H,0,-4.833636,-0.18141,-0.08636\H,0,-3.823
 966,1.319191,-0.041272\H,0,-2.851972,-1.647417,0.161202\H,0,-1.307593,
 1.104441,-0.014642\H,0,-0.292519,-1.727338,0.068845\H,0,0.709936,-0.17
 0523,-0.074973\\Version=ES64L-G09RevD.01\State=1-A\HF=-155.6940509\MP2
 =-155.9203607\RMSD=8.099e-09\PG=C01 [X(C4H6)]\\@

 Normal termination of Gaussian 09 at Wed Aug 26 11:06:17 2020.
