 Gaussian 09, Revision D.01,
 Gaussian 09:  ES64L-G09RevD.01 24-Apr-2013

 --------------------
 #p B2PLYPD3/Def2QZVP
 --------------------

 ---------
 butadiene
 ---------
 Symbolic Z-matrix:
 Charge =  0 Multiplicity = 1

                         Standard orientation:
 ---------------------------------------------------------------------
 Center     Atomic      Atomic             Coordinates (Angstroms)
 Number     Number       Type             X           Y           Z
 ---------------------------------------------------------------------
      1          6           0        1.826693   -0.127203   -0.017955
      2          6           0        0.601057    0.425440    0.027157
      3          6           0       -0.581955   -0.379007    0.027202
      4          6           0       -1.842862    0.081662   -0.032613
      5          1           0        2.706456    0.530338   -0.022614
      6          1           0        1.956562   -1.192454   -0.040320
      7          1           0        0.463366    1.487809    0.050157
      8          1           0       -0.359350   -1.441172   -0.010932
      9          1           0       -2.052944    1.173660   -0.075474
     10          1           0       -2.731690   -0.563530    0.076432
 ---------------------------------------------------------------------

 SCF Done:  E(RB2PLYPD3) =  -155.696892646     A.U. after   11 cycles
 E2(B2PLYPD3) =    -0.2265676713D+00 E(B2PLYPD3) =    -0.15592346031702D+03

 The electronic state is 1-A.
 Alpha  occ. eigenvalues --  -10.62472 -10.62329 -10.62175 -10.61874  -0.93298
 Alpha  occ. eigenvalues --   -0.84419  -0.70232  -0.64302  -0.54427  -0.53499
 Alpha  occ. eigenvalues --   -0.46612  -0.45602  -0.41227  -0.38212  -0.27354
 Alpha virt. eigenvalues --    0.01319   0.06975   0.07335   0.08065   0.09574
 Alpha virt. eigenvalues --    0.11738   0.12335   0.14770   0.15597   0.16144
 Alpha virt. eigenvalues --    0.18717   0.20140   0.21723   0.22950   0.23616

 Mulliken charges:
               1
     1  C   -0.180316
     2  C   -0.027010
     3  C   -0.026176
     4  C   -0.176919
     5  H    0.084567
     6  H    0.071177
     7  H    0.057515
     8  H    0.052336
     9  H    0.059412
    10  H    0.085414
 Sum of Mulliken charges =   0.00000

 Dipole moment (field-independent basis, Debye):
    X=              0.0706    Y=              0.0197    Z=              0.0201  Tot=              0.0760
 Quadrupole moment (field-independent basis, Debye-Ang):
   XX=            -23.6433   YY=            -23.1410   ZZ=            -29.3437
   XY=             -0.2723   XZ=             -0.2104   YZ=             -0.0319

 1\1\GINC-NODE22\SP\RB2PLYPD3-FC\def2QZVP\C4H6\BOITTIER\26-Aug-2020\0\\
 #p B2PLYPD3/Def2QZVP\\butadiene\\0,1\C,0,-3.822781,0.248852,-0.003401\
 C,0,-2.721199,-0.520395,0.063011\C,0,-1.409218,0.049616,0.041885\C,0,-
 0.256142,-0.639148,0.000668\H,0,-4.809494,-0.233429,0.009537\H,0,-3.75
 2323,1.318441,-0.059431\H,0,-2.783433,-1.588589,0.119611\H,0,-1.430492
 ,1.132928,-0.030118\H,0,-0.252926,-1.751963,-0.007395\H,0,0.737447,-0.
 167416,0.09248\\Version=ES64L-G09RevD.01\State=1-A\HF=-155.6968926\MP2
 =-155.9234603\RMSD=6.725e-09\PG=C01 [X(C4H6)]\\@

 Normal termination of Gaussian 09 at Wed Aug 26 09:01:57 2020.
