 Gaussian 09, Revision D.01,
 Gaussian 09:  ES64L-G09RevD.01 24-Apr-2013

 --------------------
 #p B2PLYPD3/Def2QZVP
 --------------------

 ---------
 butadiene
 ---------
 Symbolic Z-matrix:
 Charge =  0 Multiplicity = 1

                         Standard orientation:
 ---------------------------------------------------------------------
 Center     Atomic      Atomic             Coordinates (Angstroms)
 Number     Number       Type             X           Y           Z
 ---------------------------------------------------------------------
      1          6           0        1.831341   -0.126789    0.030959
      2          6           0        0.606383    0.428400   -0.026602
      3          6           0       -0.595381   -0.409384   -0.010446
      4          6           0       -1.842911    0.098252    0.004116
      5          1           0        2.711742    0.516764    0.000787
      6          1           0        1.946031   -1.185307    0.091206
      7          1           0        0.503180    1.522423   -0.145112
      8          1           0       -0.412868   -1.501160   -0.126222
      9          1           0       -1.994697    1.211596    0.174512
     10          1           0       -2.749980   -0.507184    0.016662
 ---------------------------------------------------------------------

 SCF Done:  E(RB2PLYPD3) =  -155.695032977     A.U. after   11 cycles
 E2(B2PLYPD3) =    -0.2269712029D+00 E(B2PLYPD3) =    -0.15592200417992D+03

 The electronic state is 1-A.
 Alpha  occ. eigenvalues --  -10.63226 -10.62992 -10.62319 -10.61599  -0.92612
 Alpha  occ. eigenvalues --   -0.84406  -0.69573  -0.63645  -0.54210  -0.53430
 Alpha  occ. eigenvalues --   -0.46323  -0.45267  -0.41144  -0.37757  -0.27546
 Alpha virt. eigenvalues --    0.01637   0.07066   0.07184   0.07886   0.09102
 Alpha virt. eigenvalues --    0.11649   0.12356   0.14529   0.15756   0.16006
 Alpha virt. eigenvalues --    0.18697   0.20222   0.21331   0.22998   0.23556

 Mulliken charges:
               1
     1  C   -0.179671
     2  C   -0.029697
     3  C   -0.035220
     4  C   -0.173253
     5  H    0.085398
     6  H    0.070415
     7  H    0.059725
     8  H    0.056289
     9  H    0.059998
    10  H    0.086016
 Sum of Mulliken charges =   0.00000

 Dipole moment (field-independent basis, Debye):
    X=              0.0475    Y=             -0.0179    Z=             -0.0104  Tot=              0.0518
 Quadrupole moment (field-independent basis, Debye-Ang):
   XX=            -23.7228   YY=            -23.0641   ZZ=            -29.4322
   XY=             -0.0909   XZ=             -0.2263   YZ=              0.0668

 1\1\GINC-NODE27\SP\RB2PLYPD3-FC\def2QZVP\C4H6\BOITTIER\26-Aug-2020\0\\
 #p B2PLYPD3/Def2QZVP\\butadiene\\0,1\C,0,-3.830717,0.239564,0.043315\C
 ,0,-2.726002,-0.528881,0.009124\C,0,-1.392884,0.078683,0.002774\C,0,-0
 .257265,-0.644698,0.039199\H,0,-4.812752,-0.235434,0.030619\H,0,-3.752
 62,1.302823,0.068294\H,0,-2.821904,-1.6269,-0.072969\H,0,-1.375824,1.1
 81043,-0.149548\H,0,-0.308337,-1.760918,0.246691\H,0,0.744098,-0.21256
 ,0.035641\\Version=ES64L-G09RevD.01\State=1-A\HF=-155.695033\MP2=-155.
 9220042\RMSD=7.158e-09\PG=C01 [X(C4H6)]\\@

 Normal termination of Gaussian 09 at Wed Aug 26 09:54:49 2020.
