 Gaussian 09, Revision D.01,
 Gaussian 09:  ES64L-G09RevD.01 24-Apr-2013

 --------------------
 #p B2PLYPD3/Def2QZVP
 --------------------

 ---------
 butadiene
 ---------
 Symbolic Z-matrix:
 Charge =  0 Multiplicity = 1

                         Standard orientation:
 ---------------------------------------------------------------------
 Center     Atomic      Atomic             Coordinates (Angstroms)
 Number     Number       Type             X           Y           Z
 ---------------------------------------------------------------------
      1          6           0       -1.874971    0.075171    0.011245
      2          6           0       -0.600319   -0.382652   -0.035342
      3          6           0        0.616769    0.453180    0.014041
      4          6           0        1.852124   -0.128932   -0.000168
      5          1           0       -2.740678   -0.496702   -0.081605
      6          1           0       -2.216448    1.102514    0.192980
      7          1           0       -0.368525   -1.495499   -0.075147
      8          1           0        0.602093    1.562626   -0.105171
      9          1           0        2.001006   -1.249084    0.224868
     10          1           0        2.760940    0.475544   -0.094586
 ---------------------------------------------------------------------

 SCF Done:  E(RB2PLYPD3) =  -155.682585984     A.U. after   11 cycles
 E2(B2PLYPD3) =    -0.2281100361D+00 E(B2PLYPD3) =    -0.15591069602017D+03

 The electronic state is 1-A.
 Alpha  occ. eigenvalues --  -10.64124 -10.63725 -10.62944 -10.61704  -0.91926
 Alpha  occ. eigenvalues --   -0.84146  -0.70214  -0.63187  -0.55017  -0.52402
 Alpha  occ. eigenvalues --   -0.46519  -0.44558  -0.40895  -0.37387  -0.27358
 Alpha virt. eigenvalues --    0.01061   0.06980   0.07204   0.07784   0.08893
 Alpha virt. eigenvalues --    0.11251   0.12404   0.14556   0.15759   0.16409
 Alpha virt. eigenvalues --    0.18923   0.19992   0.21797   0.22616   0.22752

 Mulliken charges:
               1
     1  C   -0.164991
     2  C   -0.036045
     3  C   -0.039490
     4  C   -0.171293
     5  H    0.082388
     6  H    0.060287
     7  H    0.057544
     8  H    0.066185
     9  H    0.062246
    10  H    0.083169
 Sum of Mulliken charges =   0.00000

 Dipole moment (field-independent basis, Debye):
    X=              0.0064    Y=              0.0599    Z=              0.0446  Tot=              0.0750
 Quadrupole moment (field-independent basis, Debye-Ang):
   XX=            -22.9992   YY=            -23.3823   ZZ=            -29.5349
   XY=             -0.3436   XZ=             -0.1129   YZ=             -0.1465

 1\1\GINC-NODE16\SP\RB2PLYPD3-FC\def2QZVP\C4H6\BOITTIER\26-Aug-2020\0\\
 #p B2PLYPD3/Def2QZVP\\butadiene\\0,1\C,0,-3.88184,0.199786,0.031433\C,
 0,-2.712331,-0.484378,0.00538\C,0,-1.362979,0.116764,0.020717\C,0,-0.2
 54544,-0.680982,0.032206\H,0,-4.837885,-0.207952,-0.038102\H,0,-4.0291
 11,1.278827,0.169445\H,0,-2.687532,-1.621512,0.012664\H,0,-1.175992,1.
 204349,-0.145092\H,0,-0.310815,-1.799164,0.304324\H,0,0.74857,-0.25686
 ,-0.086692\\Version=ES64L-G09RevD.01\State=1-A\HF=-155.682586\MP2=-155
 .910696\RMSD=8.854e-09\PG=C01 [X(C4H6)]\\@

 Normal termination of Gaussian 09 at Wed Aug 26 12:52:06 2020.
