 Gaussian 09, Revision D.01,
 Gaussian 09:  ES64L-G09RevD.01 24-Apr-2013

 --------------------
 #p B2PLYPD3/Def2QZVP
 --------------------

 ---------
 butadiene
 ---------
 Symbolic Z-matrix:
 Charge =  0 Multiplicity = 1

                         Standard orientation:
 ---------------------------------------------------------------------
 Center     Atomic      Atomic             Coordinates (Angstroms)
 Number     Number       Type             X           Y           Z
 ---------------------------------------------------------------------
      1          6           0       -1.817604   -0.105689    0.032178
      2          6           0       -0.568890    0.432577   -0.035774
      3          6           0        0.581831   -0.391090   -0.018733
      4          6           0        1.835365    0.080382    0.003516
      5          1           0       -2.751676    0.467452   -0.023011
      6          1           0       -2.044838   -1.269603    0.162353
      7          1           0       -0.516344    1.533406   -0.075393
      8          1           0        0.369729   -1.389903   -0.194971
      9          1           0        2.060209    1.120879    0.158025
     10          1           0        2.698701   -0.559310    0.085874
 ---------------------------------------------------------------------

 SCF Done:  E(RB2PLYPD3) =  -155.685156624     A.U. after   11 cycles
 E2(B2PLYPD3) =    -0.2272713071D+00 E(B2PLYPD3) =    -0.15591242793154D+03

 The electronic state is 1-A.
 Alpha  occ. eigenvalues --  -10.63214 -10.62952 -10.61959 -10.61432  -0.93511
 Alpha  occ. eigenvalues --   -0.84143  -0.70442  -0.64236  -0.54932  -0.53356
 Alpha  occ. eigenvalues --   -0.46595  -0.44516  -0.41319  -0.38287  -0.27183
 Alpha virt. eigenvalues --    0.01092   0.06982   0.07260   0.07995   0.09336
 Alpha virt. eigenvalues --    0.11521   0.12419   0.14546   0.15440   0.16644
 Alpha virt. eigenvalues --    0.18651   0.19774   0.22063   0.22768   0.23161

 Mulliken charges:
               1
     1  C   -0.171875
     2  C   -0.033199
     3  C   -0.030624
     4  C   -0.173801
     5  H    0.082050
     6  H    0.048954
     7  H    0.060767
     8  H    0.074555
     9  H    0.064556
    10  H    0.078618
 Sum of Mulliken charges =   0.00000

 Dipole moment (field-independent basis, Debye):
    X=             -0.0453    Y=              0.0471    Z=              0.0601  Tot=              0.0888
 Quadrupole moment (field-independent basis, Debye-Ang):
   XX=            -23.4255   YY=            -23.2972   ZZ=            -29.3034
   XY=              0.2590   XZ=              0.3097   YZ=              0.0712

 1\1\GINC-NODE33\SP\RB2PLYPD3-FC\def2QZVP\C4H6\BOITTIER\26-Aug-2020\0\\
 #p B2PLYPD3/Def2QZVP\\butadiene\\0,1\C,0,-3.819365,0.236402,-0.010729\
 C,0,-2.695862,-0.528149,0.071963\C,0,-1.409283,0.059971,0.030648\C,0,-
 0.268851,-0.642492,0.021256\H,0,-4.845261,-0.14617,0.061406\H,0,-3.821
 198,1.418167,-0.174144\H,0,-2.854019,-1.617219,0.143144\H,0,-1.42591,1
 .085452,0.178252\H,0,-0.247537,-1.710696,-0.103438\H,0,0.700139,-0.181
 883,-0.079909\\Version=ES64L-G09RevD.01\State=1-A\HF=-155.6851566\MP2=
 -155.9124279\RMSD=8.627e-09\PG=C01 [X(C4H6)]\\@

 Normal termination of Gaussian 09 at Wed Aug 26 16:10:28 2020.
