 Gaussian 09, Revision D.01,
 Gaussian 09:  ES64L-G09RevD.01 24-Apr-2013

 --------------------
 #p B2PLYPD3/Def2QZVP
 --------------------

 ---------
 butadiene
 ---------
 Symbolic Z-matrix:
 Charge =  0 Multiplicity = 1

                         Standard orientation:
 ---------------------------------------------------------------------
 Center     Atomic      Atomic             Coordinates (Angstroms)
 Number     Number       Type             X           Y           Z
 ---------------------------------------------------------------------
      1          6           0       -1.833851   -0.119675   -0.030793
      2          6           0       -0.605253    0.415812    0.022551
      3          6           0        0.604510   -0.392563    0.013291
      4          6           0        1.833918    0.103612   -0.019999
      5          1           0       -2.748259    0.484037   -0.024733
      6          1           0       -1.913798   -1.197329    0.007308
      7          1           0       -0.485645    1.485324    0.112145
      8          1           0        0.447543   -1.442619    0.055397
      9          1           0        2.007323    1.173868   -0.077650
     10          1           0        2.696886   -0.546392    0.017232
 ---------------------------------------------------------------------

 SCF Done:  E(RB2PLYPD3) =  -155.700172141     A.U. after   11 cycles
 E2(B2PLYPD3) =    -0.2255993756D+00 E(B2PLYPD3) =    -0.15592577151681D+03

 The electronic state is 1-A.
 Alpha  occ. eigenvalues --  -10.62481 -10.62120 -10.61714 -10.61364  -0.93122
 Alpha  occ. eigenvalues --   -0.84918  -0.69934  -0.64421  -0.54471  -0.54005
 Alpha  occ. eigenvalues --   -0.46780  -0.45644  -0.41334  -0.38019  -0.27704
 Alpha virt. eigenvalues --    0.01823   0.07030   0.07450   0.08080   0.09542
 Alpha virt. eigenvalues --    0.11716   0.12490   0.14637   0.15804   0.16152
 Alpha virt. eigenvalues --    0.18724   0.20435   0.21531   0.22885   0.24025

 Mulliken charges:
               1
     1  C   -0.176798
     2  C   -0.031976
     3  C   -0.029086
     4  C   -0.177293
     5  H    0.086977
     6  H    0.063246
     7  H    0.056411
     8  H    0.056232
     9  H    0.066841
    10  H    0.085446
 Sum of Mulliken charges =   0.00000

 Dipole moment (field-independent basis, Debye):
    X=             -0.0001    Y=              0.0036    Z=              0.1071  Tot=              0.1071
 Quadrupole moment (field-independent basis, Debye-Ang):
   XX=            -23.5607   YY=            -23.1074   ZZ=            -29.2353
   XY=              0.0336   XZ=             -0.0736   YZ=             -0.0692

 1\1\GINC-NODE02\SP\RB2PLYPD3-FC\def2QZVP\C4H6\BOITTIER\26-Aug-2020\0\\
 #p B2PLYPD3/Def2QZVP\\butadiene\\0,1\C,0,-3.834614,0.232405,0.044873\C
 ,0,-2.721896,-0.51578,0.011374\C,0,-1.386936,0.062843,-0.001353\C,0,-0
 .266122,-0.644141,0.050521\H,0,-4.842343,-0.19774,0.055204\H,0,-3.7204
 59,1.305251,-0.026898\H,0,-2.795958,-1.591682,-0.044638\H,0,-1.353509,
 1.122215,-0.076469\H,0,-0.286946,-1.725837,0.141845\H,0,0.699154,-0.16
 0609,-0.004651\\Version=ES64L-G09RevD.01\State=1-A\HF=-155.7001721\MP2
 =-155.9257715\RMSD=5.139e-09\PG=C01 [X(C4H6)]\\@

 Normal termination of Gaussian 09 at Wed Aug 26 21:38:02 2020.
