 Gaussian 09, Revision D.01,
 Gaussian 09:  ES64L-G09RevD.01 24-Apr-2013

 --------------------
 #p B2PLYPD3/Def2QZVP
 --------------------

 ---------
 butadiene
 ---------
 Symbolic Z-matrix:
 Charge =  0 Multiplicity = 1

                         Standard orientation:
 ---------------------------------------------------------------------
 Center     Atomic      Atomic             Coordinates (Angstroms)
 Number     Number       Type             X           Y           Z
 ---------------------------------------------------------------------
      1          6           0       -1.843665    0.102127    0.021317
      2          6           0       -0.607324   -0.401604   -0.028847
      3          6           0        0.606228    0.413039   -0.023290
      4          6           0        1.838719   -0.116737    0.017391
      5          1           0       -2.711262   -0.529190    0.094058
      6          1           0       -1.983504    1.170210   -0.024526
      7          1           0       -0.420924   -1.450672   -0.055162
      8          1           0        0.450403    1.497008   -0.017484
      9          1           0        1.977221   -1.169810    0.017959
     10          1           0        2.724323    0.501502    0.065729
 ---------------------------------------------------------------------

 SCF Done:  E(RB2PLYPD3) =  -155.700361089     A.U. after   11 cycles
 E2(B2PLYPD3) =    -0.2256874453D+00 E(B2PLYPD3) =    -0.15592604853440D+03

 The electronic state is 1-A.
 Alpha  occ. eigenvalues --  -10.62747 -10.62345 -10.61432 -10.61431  -0.92906
 Alpha  occ. eigenvalues --   -0.84840  -0.70269  -0.64363  -0.54665  -0.53865
 Alpha  occ. eigenvalues --   -0.46865  -0.46039  -0.41198  -0.37925  -0.27622
 Alpha virt. eigenvalues --    0.01722   0.07025   0.07428   0.08173   0.09450
 Alpha virt. eigenvalues --    0.11720   0.12522   0.14713   0.15854   0.16073
 Alpha virt. eigenvalues --    0.18767   0.20524   0.21641   0.23277   0.23729

 Mulliken charges:
               1
     1  C   -0.179025
     2  C   -0.030598
     3  C   -0.028179
     4  C   -0.179719
     5  H    0.088582
     6  H    0.066828
     7  H    0.056223
     8  H    0.052260
     9  H    0.067072
    10  H    0.086556
 Sum of Mulliken charges =   0.00000

 Dipole moment (field-independent basis, Debye):
    X=              0.0141    Y=             -0.0221    Z=              0.0382  Tot=              0.0464
 Quadrupole moment (field-independent basis, Debye-Ang):
   XX=            -23.4834   YY=            -23.1097   ZZ=            -29.2624
   XY=             -0.2164   XZ=              0.0131   YZ=             -0.0340

 1\1\GINC-NODE32\SP\RB2PLYPD3-FC\def2QZVP\C4H6\BOITTIER\26-Aug-2020\0\\
 #p B2PLYPD3/Def2QZVP\\butadiene\\0,1\C,0,-3.845861,0.220801,0.040585\C
 ,0,-2.721554,-0.500112,0.008642\C,0,-1.380385,0.080702,-0.008727\C,0,-
 0.264255,-0.662296,0.050934\H,0,-4.813283,-0.240133,0.131202\H,0,-3.78
 9865,1.294589,-0.038795\H,0,-2.728577,-1.565892,0.0154\H,0,-1.33704,1.
 174606,-0.03701\H,0,-0.319009,-1.722492,0.084591\H,0,0.718948,-0.21372
 9,0.081781\\Version=ES64L-G09RevD.01\State=1-A\HF=-155.7003611\MP2=-15
 5.9260485\RMSD=3.938e-09\PG=C01 [X(C4H6)]\\@

 Normal termination of Gaussian 09 at Wed Aug 26 20:10:51 2020.
