 Gaussian 09, Revision D.01,
 Gaussian 09:  ES64L-G09RevD.01 24-Apr-2013

 --------------------
 #p B2PLYPD3/Def2QZVP
 --------------------

 ---------
 butadiene
 ---------
 Symbolic Z-matrix:
 Charge =  0 Multiplicity = 1

                         Standard orientation:
 ---------------------------------------------------------------------
 Center     Atomic      Atomic             Coordinates (Angstroms)
 Number     Number       Type             X           Y           Z
 ---------------------------------------------------------------------
      1          6           0       -1.839882    0.106750    0.010167
      2          6           0       -0.596171   -0.398386   -0.012059
      3          6           0        0.602464    0.419072   -0.019912
      4          6           0        1.830449   -0.115627    0.023941
      5          1           0       -2.691597   -0.543864   -0.036325
      6          1           0       -2.040857    1.150605    0.093599
      7          1           0       -0.451722   -1.479225   -0.028754
      8          1           0        0.482745    1.520918   -0.046840
      9          1           0        1.950215   -1.198837    0.041732
     10          1           0        2.770055    0.479549   -0.036233
 ---------------------------------------------------------------------

 SCF Done:  E(RB2PLYPD3) =  -155.698981605     A.U. after   11 cycles
 E2(B2PLYPD3) =    -0.2262537366D+00 E(B2PLYPD3) =    -0.15592523534106D+03

 The electronic state is 1-A.
 Alpha  occ. eigenvalues --  -10.62885 -10.62721 -10.62010 -10.61314  -0.92907
 Alpha  occ. eigenvalues --   -0.84647  -0.69995  -0.63960  -0.54346  -0.53874
 Alpha  occ. eigenvalues --   -0.46418  -0.45485  -0.41262  -0.38064  -0.27517
 Alpha virt. eigenvalues --    0.01618   0.07008   0.07333   0.07987   0.09442
 Alpha virt. eigenvalues --    0.11652   0.12465   0.14657   0.15953   0.16074
 Alpha virt. eigenvalues --    0.18735   0.20537   0.21602   0.22748   0.23745

 Mulliken charges:
               1
     1  C   -0.179401
     2  C   -0.030144
     3  C   -0.030297
     4  C   -0.170278
     5  H    0.084304
     6  H    0.069815
     7  H    0.055745
     8  H    0.055178
     9  H    0.061801
    10  H    0.083278
 Sum of Mulliken charges =   0.00000

 Dipole moment (field-independent basis, Debye):
    X=              0.0025    Y=              0.0006    Z=             -0.0296  Tot=              0.0297
 Quadrupole moment (field-independent basis, Debye-Ang):
   XX=            -23.5055   YY=            -23.0889   ZZ=            -29.3529
   XY=             -0.2022   XZ=             -0.1324   YZ=              0.0503

 1\1\GINC-NODE04\SP\RB2PLYPD3-FC\def2QZVP\C4H6\BOITTIER\26-Aug-2020\0\\
 #p B2PLYPD3/Def2QZVP\\butadiene\\0,1\C,0,-3.84226,0.221674,0.030447\C,
 0,-2.710449,-0.500417,0.022653\C,0,-1.383845,0.086341,-0.006704\C,0,-0
 .272556,-0.6602,0.052351\H,0,-4.797741,-0.265231,0.001148\H,0,-3.85088
 ,1.286518,0.085394\H,0,-2.763818,-1.589612,0.03539\H,0,-1.302545,1.190
 549,-0.063603\H,0,-0.350481,-1.74634,0.099611\H,0,0.758882,-0.246549,-
 0.023421\\Version=ES64L-G09RevD.01\State=1-A\HF=-155.6989816\MP2=-155.
 9252353\RMSD=5.056e-09\PG=C01 [X(C4H6)]\\@

 Normal termination of Gaussian 09 at Wed Aug 26 09:10:05 2020.
