 Gaussian 09, Revision D.01,
 Gaussian 09:  ES64L-G09RevD.01 24-Apr-2013

 --------------------
 #p B2PLYPD3/Def2QZVP
 --------------------

 ---------
 butadiene
 ---------
 Symbolic Z-matrix:
 Charge =  0 Multiplicity = 1

                         Standard orientation:
 ---------------------------------------------------------------------
 Center     Atomic      Atomic             Coordinates (Angstroms)
 Number     Number       Type             X           Y           Z
 ---------------------------------------------------------------------
      1          6           0        1.826968   -0.125691   -0.018904
      2          6           0        0.608921    0.413788    0.003765
      3          6           0       -0.595352   -0.376474    0.029271
      4          6           0       -1.834164    0.094095   -0.011169
      5          1           0        2.697013    0.494047   -0.014940
      6          1           0        1.984189   -1.192362   -0.048425
      7          1           0        0.497926    1.487437    0.108497
      8          1           0       -0.479512   -1.436287    0.064488
      9          1           0       -2.006497    1.151574   -0.082191
     10          1           0       -2.731361   -0.538712   -0.045204
 ---------------------------------------------------------------------

 SCF Done:  E(RB2PLYPD3) =  -155.700390340     A.U. after   11 cycles
 E2(B2PLYPD3) =    -0.2252613220D+00 E(B2PLYPD3) =    -0.15592565166175D+03

 The electronic state is 1-A.
 Alpha  occ. eigenvalues --  -10.62415 -10.61951 -10.61342 -10.61314  -0.93339
 Alpha  occ. eigenvalues --   -0.85109  -0.70285  -0.64351  -0.54739  -0.54223
 Alpha  occ. eigenvalues --   -0.46835  -0.45495  -0.41245  -0.38273  -0.27735
 Alpha virt. eigenvalues --    0.01799   0.07034   0.07509   0.08040   0.09726
 Alpha virt. eigenvalues --    0.11690   0.12512   0.14767   0.15727   0.16302
 Alpha virt. eigenvalues --    0.18795   0.20379   0.21802   0.22718   0.23828

 Mulliken charges:
               1
     1  C   -0.176060
     2  C   -0.035061
     3  C   -0.024804
     4  C   -0.174490
     5  H    0.084913
     6  H    0.068385
     7  H    0.058264
     8  H    0.054796
     9  H    0.060444
    10  H    0.083614
 Sum of Mulliken charges =   0.00000

 Dipole moment (field-independent basis, Debye):
    X=              0.0507    Y=             -0.0075    Z=              0.0017  Tot=              0.0513
 Quadrupole moment (field-independent basis, Debye-Ang):
   XX=            -23.3949   YY=            -23.1598   ZZ=            -29.1440
   XY=             -0.0871   XZ=              0.2093   YZ=              0.0561

 1\1\GINC-NODE28\SP\RB2PLYPD3-FC\def2QZVP\C4H6\BOITTIER\26-Aug-2020\0\\
 #p B2PLYPD3/Def2QZVP\\butadiene\\0,1\C,0,-3.825878,0.236453,0.001342\C
 ,0,-2.724391,-0.511982,0.043322\C,0,-1.397646,0.049428,0.040863\C,0,-0
 .263754,-0.637201,0.017326\H,0,-4.793027,-0.216339,0.027231\H,0,-3.789
 176,1.312316,-0.066099\H,0,-2.807348,-1.583767,0.186169\H,0,-1.321063,
 1.113379,0.038368\H,0,-0.284569,-1.710261,-0.016037\H,0,0.732264,-0.17
 7492,-0.039075\\Version=ES64L-G09RevD.01\State=1-A\HF=-155.7003903\MP2
 =-155.9256517\RMSD=5.399e-09\PG=C01 [X(C4H6)]\\@

 Normal termination of Gaussian 09 at Wed Aug 26 21:42:19 2020.
