 Gaussian 09, Revision D.01,
 Gaussian 09:  ES64L-G09RevD.01 24-Apr-2013

 --------------------
 #p B2PLYPD3/Def2QZVP
 --------------------

 ---------
 butadiene
 ---------
 Symbolic Z-matrix:
 Charge =  0 Multiplicity = 1

                         Standard orientation:
 ---------------------------------------------------------------------
 Center     Atomic      Atomic             Coordinates (Angstroms)
 Number     Number       Type             X           Y           Z
 ---------------------------------------------------------------------
      1          6           0       -1.832047    0.088082    0.017029
      2          6           0       -0.587647   -0.387724   -0.032939
      3          6           0        0.613982    0.434687   -0.033609
      4          6           0        1.817331   -0.137768    0.029188
      5          1           0       -2.716531   -0.535112    0.101900
      6          1           0       -2.040257    1.156660    0.040915
      7          1           0       -0.470695   -1.467117   -0.016720
      8          1           0        0.461119    1.540533   -0.087991
      9          1           0        1.993085   -1.185191   -0.060227
     10          1           0        2.703566    0.506561    0.144113
 ---------------------------------------------------------------------

 SCF Done:  E(RB2PLYPD3) =  -155.697310593     A.U. after   11 cycles
 E2(B2PLYPD3) =    -0.2259878411D+00 E(B2PLYPD3) =    -0.15592329843435D+03

 The electronic state is 1-A.
 Alpha  occ. eigenvalues --  -10.63066 -10.62398 -10.61644 -10.61359  -0.92981
 Alpha  occ. eigenvalues --   -0.84804  -0.69875  -0.63958  -0.54409  -0.53916
 Alpha  occ. eigenvalues --   -0.46808  -0.45139  -0.41075  -0.38011  -0.27612
 Alpha virt. eigenvalues --    0.01863   0.07011   0.07289   0.08007   0.09368
 Alpha virt. eigenvalues --    0.11667   0.12428   0.14701   0.15796   0.16225
 Alpha virt. eigenvalues --    0.18713   0.20368   0.21788   0.22806   0.23822

 Mulliken charges:
               1
     1  C   -0.175545
     2  C   -0.025281
     3  C   -0.036443
     4  C   -0.174055
     5  H    0.082383
     6  H    0.057532
     7  H    0.054944
     8  H    0.060313
     9  H    0.077368
    10  H    0.078784
 Sum of Mulliken charges =   0.00000

 Dipole moment (field-independent basis, Debye):
    X=              0.0504    Y=             -0.0187    Z=              0.0560  Tot=              0.0776
 Quadrupole moment (field-independent basis, Debye-Ang):
   XX=            -23.6462   YY=            -23.0228   ZZ=            -29.2725
   XY=             -0.3151   XZ=             -0.1393   YZ=              0.0502

 1\1\GINC-NODE22\SP\RB2PLYPD3-FC\def2QZVP\C4H6\BOITTIER\26-Aug-2020\0\\
 #p B2PLYPD3/Def2QZVP\\butadiene\\0,1\C,0,-3.839048,0.206111,0.040347\C
 ,0,-2.702189,-0.489412,0.005444\C,0,-1.371056,0.100283,-0.019434\C,0,-
 0.291578,-0.679403,0.061275\H,0,-4.821681,-0.242967,0.143538\H,0,-3.84
 934,1.294964,0.031822\H,0,-2.783399,-1.571098,0.054335\H,0,-1.320537,1
 .213364,-0.107288\H,0,-0.309679,-1.743513,0.003645\H,0,0.697613,-0.203
 916,0.157151\\Version=ES64L-G09RevD.01\State=1-A\HF=-155.6973106\MP2=-
 155.9232984\RMSD=6.040e-09\PG=C01 [X(C4H6)]\\@

 Normal termination of Gaussian 09 at Wed Aug 26 08:51:20 2020.
