 Gaussian 09, Revision D.01,
 Gaussian 09:  ES64L-G09RevD.01 24-Apr-2013

 --------------------
 #p B2PLYPD3/Def2QZVP
 --------------------

 ---------
 butadiene
 ---------
 Symbolic Z-matrix:
 Charge =  0 Multiplicity = 1

                         Standard orientation:
 ---------------------------------------------------------------------
 Center     Atomic      Atomic             Coordinates (Angstroms)
 Number     Number       Type             X           Y           Z
 ---------------------------------------------------------------------
      1          6           0        1.815764    0.117564    0.048020
      2          6           0        0.604511   -0.417441   -0.051579
      3          6           0       -0.587269    0.371029   -0.040193
      4          6           0       -1.828783   -0.091884    0.033123
      5          1           0        2.727232   -0.476167    0.068024
      6          1           0        1.936453    1.199133   -0.006519
      7          1           0        0.463653   -1.465847   -0.103473
      8          1           0       -0.483536    1.469133   -0.016410
      9          1           0       -2.033059   -1.140187    0.124179
     10          1           0       -2.636081    0.538325   -0.002029
 ---------------------------------------------------------------------

 SCF Done:  E(RB2PLYPD3) =  -155.697128805     A.U. after   11 cycles
 E2(B2PLYPD3) =    -0.2251375159D+00 E(B2PLYPD3) =    -0.15592226632071D+03

 The electronic state is 1-A.
 Alpha  occ. eigenvalues --  -10.62151 -10.62001 -10.61603 -10.60458  -0.93584
 Alpha  occ. eigenvalues --   -0.85256  -0.70682  -0.64243  -0.55178  -0.54258
 Alpha  occ. eigenvalues --   -0.47221  -0.45295  -0.41364  -0.38420  -0.27629
 Alpha virt. eigenvalues --    0.01728   0.07060   0.07488   0.08116   0.09815
 Alpha virt. eigenvalues --    0.11730   0.12583   0.14811   0.15790   0.16373
 Alpha virt. eigenvalues --    0.18798   0.20217   0.22018   0.22453   0.24232

 Mulliken charges:
               1
     1  C   -0.167958
     2  C   -0.037633
     3  C   -0.014059
     4  C   -0.183854
     5  H    0.082910
     6  H    0.065795
     7  H    0.060249
     8  H    0.045094
     9  H    0.060278
    10  H    0.089178
 Sum of Mulliken charges =   0.00000

 Dipole moment (field-independent basis, Debye):
    X=              0.0291    Y=             -0.0239    Z=             -0.0059  Tot=              0.0381
 Quadrupole moment (field-independent basis, Debye-Ang):
   XX=            -23.4105   YY=            -23.1655   ZZ=            -29.0682
   XY=              0.0676   XZ=             -0.1012   YZ=             -0.0910

 1\1\GINC-NODE28\SP\RB2PLYPD3-FC\def2QZVP\C4H6\BOITTIER\26-Aug-2020\0\\
 #p B2PLYPD3/Def2QZVP\\butadiene\\0,1\C,0,-3.814869,0.233187,-0.028555\
 C,0,-2.7214,-0.511296,0.087015\C,0,-1.405617,0.045273,0.05384\C,0,-0.2
 70017,-0.638771,-0.005475\H,0,-4.819608,-0.184157,-0.032147\H,0,-3.735
 525,1.319686,-0.004997\H,0,-2.774359,-1.565894,0.168912\H,0,-1.306943,
 1.142713,-0.001354\H,0,-0.261271,-1.708896,-0.066434\H,0,0.639049,-0.1
 66101,0.012155\\Version=ES64L-G09RevD.01\State=1-A\HF=-155.6971288\MP2
 =-155.9222663\RMSD=6.229e-09\PG=C01 [X(C4H6)]\\@

 Normal termination of Gaussian 09 at Wed Aug 26 10:33:56 2020.
