 Gaussian 09, Revision D.01,
 Gaussian 09:  ES64L-G09RevD.01 24-Apr-2013

 --------------------
 #p B2PLYPD3/Def2QZVP
 --------------------

 ---------
 butadiene
 ---------
 Symbolic Z-matrix:
 Charge =  0 Multiplicity = 1

                         Standard orientation:
 ---------------------------------------------------------------------
 Center     Atomic      Atomic             Coordinates (Angstroms)
 Number     Number       Type             X           Y           Z
 ---------------------------------------------------------------------
      1          6           0       -1.841967   -0.128913   -0.014674
      2          6           0       -0.614581    0.424069   -0.009567
      3          6           0        0.595991   -0.380536    0.030994
      4          6           0        1.847383    0.094766   -0.028547
      5          1           0       -2.710122    0.504924    0.016630
      6          1           0       -1.939136   -1.208827   -0.051361
      7          1           0       -0.462019    1.463915    0.120858
      8          1           0        0.445001   -1.443041    0.062538
      9          1           0        1.969753    1.175543   -0.038854
     10          1           0        2.775564   -0.548827    0.020954
 ---------------------------------------------------------------------

 SCF Done:  E(RB2PLYPD3) =  -155.696575572     A.U. after   11 cycles
 E2(B2PLYPD3) =    -0.2262892646D+00 E(B2PLYPD3) =    -0.15592286483652D+03

 The electronic state is 1-A.
 Alpha  occ. eigenvalues --  -10.62476 -10.62339 -10.62071 -10.61813  -0.92995
 Alpha  occ. eigenvalues --   -0.84645  -0.69940  -0.64471  -0.54341  -0.53646
 Alpha  occ. eigenvalues --   -0.46716  -0.45685  -0.41251  -0.37909  -0.27591
 Alpha virt. eigenvalues --    0.01545   0.06992   0.07453   0.08043   0.09435
 Alpha virt. eigenvalues --    0.11679   0.12445   0.14565   0.15526   0.16222
 Alpha virt. eigenvalues --    0.18624   0.20057   0.21719   0.22988   0.23887

 Mulliken charges:
               1
     1  C   -0.180647
     2  C   -0.035914
     3  C   -0.026267
     4  C   -0.176016
     5  H    0.089102
     6  H    0.071475
     7  H    0.060749
     8  H    0.051703
     9  H    0.059673
    10  H    0.086143
 Sum of Mulliken charges =   0.00000

 Dipole moment (field-independent basis, Debye):
    X=             -0.0627    Y=              0.0077    Z=              0.1349  Tot=              0.1490
 Quadrupole moment (field-independent basis, Debye-Ang):
   XX=            -23.5800   YY=            -23.1553   ZZ=            -29.3336
   XY=              0.0010   XZ=             -0.0180   YZ=              0.1137

 1\1\GINC-NODE32\SP\RB2PLYPD3-FC\def2QZVP\C4H6\BOITTIER\26-Aug-2020\0\\
 #p B2PLYPD3/Def2QZVP\\butadiene\\0,1\C,0,-3.839579,0.241288,0.030741\C
 ,0,-2.730567,-0.521812,0.038622\C,0,-1.395936,0.052923,-0.015762\C,0,-
 0.249322,-0.636768,0.055261\H,0,-4.806953,-0.227967,0.010484\H,0,-3.74
 2436,1.32172,0.045947\H,0,-2.766232,-1.574559,-0.071001\H,0,-1.354982,
 1.124487,-0.068521\H,0,-0.321736,-1.721619,0.087099\H,0,0.778705,-0.17
 0219,-0.005361\\Version=ES64L-G09RevD.01\State=1-A\HF=-155.6965756\MP2
 =-155.9228648\RMSD=7.208e-09\PG=C01 [X(C4H6)]\\@

 Normal termination of Gaussian 09 at Wed Aug 26 22:21:56 2020.
