 Gaussian 09, Revision D.01,
 Gaussian 09:  ES64L-G09RevD.01 24-Apr-2013

 --------------------
 #p B2PLYPD3/Def2QZVP
 --------------------

 ---------
 butadiene
 ---------
 Symbolic Z-matrix:
 Charge =  0 Multiplicity = 1

                         Standard orientation:
 ---------------------------------------------------------------------
 Center     Atomic      Atomic             Coordinates (Angstroms)
 Number     Number       Type             X           Y           Z
 ---------------------------------------------------------------------
      1          6           0        1.803764   -0.095386   -0.055300
      2          6           0        0.562787    0.370796    0.048477
      3          6           0       -0.604638   -0.402648   -0.034928
      4          6           0       -1.799809    0.107157   -0.021377
      5          1           0        2.692346    0.526681    0.082132
      6          1           0        2.085100   -1.161874   -0.043698
      7          1           0        0.509533    1.468634    0.123206
      8          1           0       -0.429528   -1.404432    0.244056
      9          1           0       -1.867122    1.161203   -0.095037
     10          1           0       -2.762950   -0.469732    0.068107
 ---------------------------------------------------------------------

 SCF Done:  E(RB2PLYPD3) =  -155.686144531     A.U. after   11 cycles
 E2(B2PLYPD3) =    -0.2256513211D+00 E(B2PLYPD3) =    -0.15591179585231D+03

 The electronic state is 1-A.
 Alpha  occ. eigenvalues --  -10.62121 -10.61513 -10.61425 -10.61170  -0.94450
 Alpha  occ. eigenvalues --   -0.85274  -0.70394  -0.64301  -0.55018  -0.54084
 Alpha  occ. eigenvalues --   -0.47137  -0.44578  -0.41071  -0.38389  -0.27928
 Alpha virt. eigenvalues --    0.01716   0.07091   0.07461   0.07872   0.09703
 Alpha virt. eigenvalues --    0.11639   0.12576   0.14786   0.15030   0.16734
 Alpha virt. eigenvalues --    0.18564   0.19443   0.21647   0.22983   0.24253

 Mulliken charges:
               1
     1  C   -0.162678
     2  C   -0.035202
     3  C   -0.017701
     4  C   -0.170867
     5  H    0.072586
     6  H    0.052407
     7  H    0.047085
     8  H    0.066813
     9  H    0.064196
    10  H    0.083361
 Sum of Mulliken charges =   0.00000

 Dipole moment (field-independent basis, Debye):
    X=             -0.0809    Y=              0.0207    Z=              0.3487  Tot=              0.3586
 Quadrupole moment (field-independent basis, Debye-Ang):
   XX=            -23.2796   YY=            -23.5658   ZZ=            -28.9113
   XY=             -0.1773   XZ=              0.0290   YZ=             -0.2275

 1\1\GINC-NODE30\SP\RB2PLYPD3-FC\def2QZVP\C4H6\BOITTIER\26-Aug-2020\0\\
 #p B2PLYPD3/Def2QZVP\\butadiene\\0,1\C,0,-3.812292,0.20914,-0.025371\C
 ,0,-2.678443,-0.476613,0.085297\C,0,-1.38851,0.067288,-0.005798\C,0,-0
 .307816,-0.653949,0.015108\H,0,-4.800197,-0.236769,0.1183\H,0,-3.89215
 1,1.309278,-0.026581\H,0,-2.828447,-1.564495,0.172934\H,0,-1.375623,1.
 087383,0.261237\H,0,-0.436079,-1.703124,-0.04613\H,0,0.74527,-0.263527
 ,0.098953\\Version=ES64L-G09RevD.01\State=1-A\HF=-155.6861445\MP2=-155
 .9117959\RMSD=6.042e-09\PG=C01 [X(C4H6)]\\@

 Normal termination of Gaussian 09 at Wed Aug 26 12:05:54 2020.
