 Gaussian 09, Revision D.01,
 Gaussian 09:  ES64L-G09RevD.01 24-Apr-2013

 --------------------
 #p B2PLYPD3/Def2QZVP
 --------------------

 ---------
 butadiene
 ---------
 Symbolic Z-matrix:
 Charge =  0 Multiplicity = 1

                         Standard orientation:
 ---------------------------------------------------------------------
 Center     Atomic      Atomic             Coordinates (Angstroms)
 Number     Number       Type             X           Y           Z
 ---------------------------------------------------------------------
      1          6           0       -1.839332    0.120018    0.014939
      2          6           0       -0.609572   -0.425189   -0.005425
      3          6           0        0.603680    0.391975   -0.019208
      4          6           0        1.837543   -0.099216    0.001680
      5          1           0       -2.748294   -0.503335   -0.009564
      6          1           0       -1.957159    1.201213    0.056309
      7          1           0       -0.437209   -1.493665   -0.081120
      8          1           0        0.453006    1.490092   -0.040456
      9          1           0        2.043203   -1.158166    0.104880
     10          1           0        2.692541    0.538336    0.018036
 ---------------------------------------------------------------------

 SCF Done:  E(RB2PLYPD3) =  -155.699495370     A.U. after   11 cycles
 E2(B2PLYPD3) =    -0.2260070019D+00 E(B2PLYPD3) =    -0.15592550237209D+03

 The electronic state is 1-A.
 Alpha  occ. eigenvalues --  -10.62819 -10.62679 -10.62055 -10.61202  -0.92815
 Alpha  occ. eigenvalues --   -0.84778  -0.69991  -0.63892  -0.54529  -0.53639
 Alpha  occ. eigenvalues --   -0.46808  -0.45542  -0.40900  -0.38010  -0.27713
 Alpha virt. eigenvalues --    0.01765   0.07019   0.07315   0.08063   0.09413
 Alpha virt. eigenvalues --    0.11679   0.12421   0.14692   0.15754   0.16101
 Alpha virt. eigenvalues --    0.18758   0.20459   0.21608   0.22833   0.23784

 Mulliken charges:
               1
     1  C   -0.174419
     2  C   -0.037410
     3  C   -0.023162
     4  C   -0.176623
     5  H    0.086162
     6  H    0.068566
     7  H    0.059528
     8  H    0.049347
     9  H    0.063075
    10  H    0.084936
 Sum of Mulliken charges =   0.00000

 Dipole moment (field-independent basis, Debye):
    X=              0.0033    Y=             -0.0084    Z=              0.0341  Tot=              0.0353
 Quadrupole moment (field-independent basis, Debye-Ang):
   XX=            -23.5138   YY=            -23.1082   ZZ=            -29.3236
   XY=             -0.2404   XZ=              0.2290   YZ=              0.0245

 1\1\GINC-NODE22\SP\RB2PLYPD3-FC\def2QZVP\C4H6\BOITTIER\26-Aug-2020\0\\
 #p B2PLYPD3/Def2QZVP\\butadiene\\0,1\C,0,-3.837881,0.238009,0.030292\C
 ,0,-2.727463,-0.52156,0.02886\C,0,-1.386114,0.061319,-0.002147\C,0,-0.
 261811,-0.644793,0.036241\H,0,-4.844876,-0.21056,0.019001\H,0,-3.75755
 4,1.323355,0.042574\H,0,-2.751893,-1.605211,-0.017873\H,0,-1.335096,1.
 167584,-0.053029\H,0,-0.251549,-1.720339,0.168208\H,0,0.694682,-0.1726
 94,0.038815\\Version=ES64L-G09RevD.01\State=1-A\HF=-155.6994954\MP2=-1
 55.9255024\RMSD=6.149e-09\PG=C01 [X(C4H6)]\\@

 Normal termination of Gaussian 09 at Wed Aug 26 20:53:15 2020.
