 Gaussian 09, Revision D.01,
 Gaussian 09:  ES64L-G09RevD.01 24-Apr-2013

 --------------------
 #p B2PLYPD3/Def2QZVP
 --------------------

 ---------
 butadiene
 ---------
 Symbolic Z-matrix:
 Charge =  0 Multiplicity = 1

                         Standard orientation:
 ---------------------------------------------------------------------
 Center     Atomic      Atomic             Coordinates (Angstroms)
 Number     Number       Type             X           Y           Z
 ---------------------------------------------------------------------
      1          6           0        1.857319    0.088768    0.013520
      2          6           0        0.617492   -0.365766    0.002350
      3          6           0       -0.624039    0.422042   -0.038500
      4          6           0       -1.856377   -0.127842    0.032853
      5          1           0        2.663963   -0.559844   -0.052932
      6          1           0        2.062640    1.135552    0.094953
      7          1           0        0.476241   -1.408856   -0.075751
      8          1           0       -0.469256    1.464138   -0.030558
      9          1           0       -1.947252   -1.231202    0.046440
     10          1           0       -2.752710    0.496993   -0.043493
 ---------------------------------------------------------------------

 SCF Done:  E(RB2PLYPD3) =  -155.696156480     A.U. after   11 cycles
 E2(B2PLYPD3) =    -0.2253941283D+00 E(B2PLYPD3) =    -0.15592155060873D+03

 The electronic state is 1-A.
 Alpha  occ. eigenvalues --  -10.62611 -10.62346 -10.61911 -10.60643  -0.92844
 Alpha  occ. eigenvalues --   -0.85115  -0.70367  -0.64567  -0.54779  -0.54013
 Alpha  occ. eigenvalues --   -0.47208  -0.45937  -0.41000  -0.37823  -0.27856
 Alpha virt. eigenvalues --    0.01646   0.06988   0.07565   0.08212   0.09629
 Alpha virt. eigenvalues --    0.11693   0.12422   0.14720   0.15703   0.16175
 Alpha virt. eigenvalues --    0.18849   0.20214   0.21731   0.22610   0.24221

 Mulliken charges:
               1
     1  C   -0.183253
     2  C   -0.017241
     3  C   -0.049648
     4  C   -0.170219
     5  H    0.088772
     6  H    0.063145
     7  H    0.052282
     8  H    0.060767
     9  H    0.066718
    10  H    0.088677
 Sum of Mulliken charges =   0.00000

 Dipole moment (field-independent basis, Debye):
    X=              0.0099    Y=              0.0159    Z=             -0.0789  Tot=              0.0811
 Quadrupole moment (field-independent basis, Debye-Ang):
   XX=            -23.3947   YY=            -23.1509   ZZ=            -29.2001
   XY=              0.0636   XZ=              0.0336   YZ=              0.1318

 1\1\GINC-NODE02\SP\RB2PLYPD3-FC\def2QZVP\C4H6\BOITTIER\26-Aug-2020\0\\
 #p B2PLYPD3/Def2QZVP\\butadiene\\0,1\C,0,-3.86535,0.20069,0.00488\C,0,
 -2.726038,-0.466302,0.036312\C,0,-1.364072,0.089174,0.050603\C,0,-0.24
 9428,-0.673345,0.003143\H,0,-4.774163,-0.291206,0.093674\H,0,-3.881653
 ,1.263496,-0.116451\H,0,-2.772141,-1.51421,0.154012\H,0,-1.331167,1.14
 1142,0.003015\H,0,-0.356204,-1.775003,0.031363\H,0,0.744019,-0.21542,0
 .058169\\Version=ES64L-G09RevD.01\State=1-A\HF=-155.6961565\MP2=-155.9
 215506\RMSD=8.695e-09\PG=C01 [X(C4H6)]\\@

 Normal termination of Gaussian 09 at Wed Aug 26 09:31:38 2020.
