 Gaussian 09, Revision D.01,
 Gaussian 09:  ES64L-G09RevD.01 24-Apr-2013

 --------------------
 #p B2PLYPD3/Def2QZVP
 --------------------

 ---------
 butadiene
 ---------
 Symbolic Z-matrix:
 Charge =  0 Multiplicity = 1

                         Standard orientation:
 ---------------------------------------------------------------------
 Center     Atomic      Atomic             Coordinates (Angstroms)
 Number     Number       Type             X           Y           Z
 ---------------------------------------------------------------------
      1          6           0        1.801960   -0.146891    0.081898
      2          6           0        0.580856    0.453264   -0.077326
      3          6           0       -0.595672   -0.378580   -0.030590
      4          6           0       -1.810127    0.092927    0.042651
      5          1           0        2.683810    0.495766   -0.129658
      6          1           0        1.948731   -1.245659    0.183846
      7          1           0        0.510675    1.571807   -0.092729
      8          1           0       -0.316978   -1.387784   -0.227394
      9          1           0       -2.039691    1.130626    0.234741
     10          1           0       -2.648652   -0.689077   -0.068603
 ---------------------------------------------------------------------

 SCF Done:  E(RB2PLYPD3) =  -155.682637720     A.U. after   12 cycles
 E2(B2PLYPD3) =    -0.2273136773D+00 E(B2PLYPD3) =    -0.15590995139748D+03

 The electronic state is 1-A.
 Alpha  occ. eigenvalues --  -10.63097 -10.62493 -10.61752 -10.61575  -0.93402
 Alpha  occ. eigenvalues --   -0.84379  -0.69363  -0.63949  -0.53997  -0.53225
 Alpha  occ. eigenvalues --   -0.46219  -0.45570  -0.40589  -0.37826  -0.27516
 Alpha virt. eigenvalues --    0.01509   0.06985   0.07175   0.07809   0.09333
 Alpha virt. eigenvalues --    0.11712   0.12132   0.14849   0.15029   0.16136
 Alpha virt. eigenvalues --    0.18556   0.19561   0.21112   0.22686   0.24062

 Mulliken charges:
               1
     1  C   -0.177180
     2  C   -0.044047
     3  C   -0.015059
     4  C   -0.185195
     5  H    0.076928
     6  H    0.065853
     7  H    0.058701
     8  H    0.065237
     9  H    0.080383
    10  H    0.074379
 Sum of Mulliken charges =   0.00000

 Dipole moment (field-independent basis, Debye):
    X=              0.0202    Y=              0.0236    Z=             -0.1380  Tot=              0.1415
 Quadrupole moment (field-independent basis, Debye-Ang):
   XX=            -24.6027   YY=            -22.8332   ZZ=            -29.2550
   XY=             -0.4983   XZ=             -0.2847   YZ=              0.1894

 1\1\GINC-NODE02\SP\RB2PLYPD3-FC\def2QZVP\C4H6\BOITTIER\26-Aug-2020\0\\
 #p B2PLYPD3/Def2QZVP\\butadiene\\0,1\C,0,-3.797263,0.268812,0.08979\C,
 0,-2.709349,-0.552912,-0.043806\C,0,-1.398535,0.046665,-0.018504\C,0,-
 0.29292,-0.639825,0.076009\H,0,-4.783556,-0.205228,-0.104979\H,0,-3.73
 6906,1.378459,0.155108\H,0,-2.848527,-1.664879,-0.022354\H,0,-1.484844
 ,1.083047,-0.249495\H,0,-0.260191,-1.695207,0.302979\H,0,0.676318,-0.0
 31532,-0.056615\\Version=ES64L-G09RevD.01\State=1-A\HF=-155.6826377\MP
 2=-155.9099514\RMSD=4.261e-09\PG=C01 [X(C4H6)]\\@

 Normal termination of Gaussian 09 at Wed Aug 26 15:28:19 2020.
