 Gaussian 09, Revision D.01,
 Gaussian 09:  ES64L-G09RevD.01 24-Apr-2013

 --------------------
 #p B2PLYPD3/Def2QZVP
 --------------------

 ---------
 butadiene
 ---------
 Symbolic Z-matrix:
 Charge =  0 Multiplicity = 1

                         Standard orientation:
 ---------------------------------------------------------------------
 Center     Atomic      Atomic             Coordinates (Angstroms)
 Number     Number       Type             X           Y           Z
 ---------------------------------------------------------------------
      1          6           0       -1.863328    0.080416    0.035301
      2          6           0       -0.615747   -0.368352   -0.033937
      3          6           0        0.607393    0.428177   -0.031401
      4          6           0        1.861901   -0.126077    0.019623
      5          1           0       -2.726769   -0.567145    0.112165
      6          1           0       -2.019917    1.154739   -0.053859
      7          1           0       -0.432981   -1.420120   -0.098549
      8          1           0        0.465589    1.465641   -0.023553
      9          1           0        2.038149   -1.204149    0.022199
     10          1           0        2.734616    0.486052    0.104079
 ---------------------------------------------------------------------

 SCF Done:  E(RB2PLYPD3) =  -155.696080337     A.U. after   11 cycles
 E2(B2PLYPD3) =    -0.2262044081D+00 E(B2PLYPD3) =    -0.15592228474480D+03

 The electronic state is 1-A.
 Alpha  occ. eigenvalues --  -10.62920 -10.62281 -10.62207 -10.61516  -0.92735
 Alpha  occ. eigenvalues --   -0.84597  -0.70603  -0.64540  -0.54757  -0.53580
 Alpha  occ. eigenvalues --   -0.47245  -0.45784  -0.41316  -0.37626  -0.27469
 Alpha virt. eigenvalues --    0.01258   0.06966   0.07507   0.08212   0.09489
 Alpha virt. eigenvalues --    0.11621   0.12465   0.14655   0.15819   0.16168
 Alpha virt. eigenvalues --    0.18878   0.20519   0.21509   0.23098   0.23577

 Mulliken charges:
               1
     1  C   -0.180677
     2  C   -0.018748
     3  C   -0.048476
     4  C   -0.175388
     5  H    0.091036
     6  H    0.061444
     7  H    0.053447
     8  H    0.062229
     9  H    0.068863
    10  H    0.086270
 Sum of Mulliken charges =   0.00000

 Dipole moment (field-independent basis, Debye):
    X=              0.0448    Y=             -0.0079    Z=              0.0145  Tot=              0.0478
 Quadrupole moment (field-independent basis, Debye-Ang):
   XX=            -23.2784   YY=            -23.2300   ZZ=            -29.3146
   XY=             -0.1725   XZ=              0.1777   YZ=             -0.0339

 1\1\GINC-NODE22\SP\RB2PLYPD3-FC\def2QZVP\C4H6\BOITTIER\26-Aug-2020\0\\
 #p B2PLYPD3/Def2QZVP\\butadiene\\0,1\C,0,-3.869296,0.201673,0.052177\C
 ,0,-2.723898,-0.467826,0.002374\C,0,-1.376665,0.093493,-0.018072\C,0,-
 0.243224,-0.676849,0.055923\H,0,-4.835564,-0.275712,0.148114\H,0,-3.82
 8866,1.282923,-0.073939\H,0,-2.734941,-1.536879,-0.025872\H,0,-1.32809
 4,1.139135,-0.045935\H,0,-0.265249,-1.76829,0.095698\H,0,0.726209,-0.2
 30484,0.122446\\Version=ES64L-G09RevD.01\State=1-A\HF=-155.6960803\MP2
 =-155.9222847\RMSD=6.746e-09\PG=C01 [X(C4H6)]\\@

 Normal termination of Gaussian 09 at Wed Aug 26 22:18:26 2020.
