 Gaussian 09, Revision D.01,
 Gaussian 09:  ES64L-G09RevD.01 24-Apr-2013

 --------------------
 #p B2PLYPD3/Def2QZVP
 --------------------

 ---------
 butadiene
 ---------
 Symbolic Z-matrix:
 Charge =  0 Multiplicity = 1

                         Standard orientation:
 ---------------------------------------------------------------------
 Center     Atomic      Atomic             Coordinates (Angstroms)
 Number     Number       Type             X           Y           Z
 ---------------------------------------------------------------------
      1          6           0       -1.845498   -0.116988    0.086377
      2          6           0       -0.601813    0.356293   -0.104376
      3          6           0        0.626883   -0.404059   -0.081089
      4          6           0        1.850190    0.137435    0.055179
      5          1           0       -2.594417    0.566989    0.183851
      6          1           0       -2.109902   -1.083103   -0.033492
      7          1           0       -0.548085    1.508945   -0.156409
      8          1           0        0.514267   -1.462132   -0.000555
      9          1           0        1.885731    1.196764    0.163917
     10          1           0        2.673831   -0.563549    0.106139
 ---------------------------------------------------------------------

 SCF Done:  E(RB2PLYPD3) =  -155.682953982     A.U. after   11 cycles
 E2(B2PLYPD3) =    -0.2261632712D+00 E(B2PLYPD3) =    -0.15590911725281D+03

 The electronic state is 1-A.
 Alpha  occ. eigenvalues --  -10.63193 -10.62345 -10.61585 -10.60081  -0.92980
 Alpha  occ. eigenvalues --   -0.85404  -0.70988  -0.63861  -0.55516  -0.54012
 Alpha  occ. eigenvalues --   -0.46904  -0.45943  -0.41421  -0.37760  -0.27412
 Alpha virt. eigenvalues --    0.01263   0.06994   0.07480   0.08030   0.09544
 Alpha virt. eigenvalues --    0.11781   0.12399   0.14840   0.15518   0.16441
 Alpha virt. eigenvalues --    0.18742   0.19954   0.21236   0.23388   0.24545

 Mulliken charges:
               1
     1  C   -0.177746
     2  C   -0.027233
     3  C   -0.032212
     4  C   -0.178032
     5  H    0.079977
     6  H    0.074077
     7  H    0.034680
     8  H    0.056833
     9  H    0.076479
    10  H    0.093176
 Sum of Mulliken charges =   0.00000

 Dipole moment (field-independent basis, Debye):
    X=             -0.0580    Y=             -0.0859    Z=              0.1171  Tot=              0.1564
 Quadrupole moment (field-independent basis, Debye-Ang):
   XX=            -23.7515   YY=            -23.0295   ZZ=            -29.1372
   XY=             -0.1400   XZ=              0.2810   YZ=              0.1445

 1\1\GINC-NODE36\SP\RB2PLYPD3-FC\def2QZVP\C4H6\BOITTIER\26-Aug-2020\0\\
 #p B2PLYPD3/Def2QZVP\\butadiene\\0,1\C,0,-3.853896,0.216604,-0.067073\
 C,0,-2.710497,-0.46166,0.132255\C,0,-1.368539,0.073089,0.092708\C,0,-0
 .258443,-0.675253,-0.033527\H,0,-4.71062,-0.328671,-0.150163\H,0,-3.94
 5999,1.216135,0.033478\H,0,-2.857531,-1.604867,0.207494\H,0,-1.296043,
 1.13284,-0.009073\H,0,-0.407864,-1.726588,-0.120896\H,0,0.674191,-0.12
 9143,-0.09924\\Version=ES64L-G09RevD.01\State=1-A\HF=-155.682954\MP2=-
 155.9091173\RMSD=6.961e-09\PG=C01 [X(C4H6)]\\@

 Normal termination of Gaussian 09 at Wed Aug 26 11:38:28 2020.
