 Gaussian 09, Revision D.01,
 Gaussian 09:  ES64L-G09RevD.01 24-Apr-2013

 --------------------
 #p B2PLYPD3/Def2QZVP
 --------------------

 ---------
 butadiene
 ---------
 Symbolic Z-matrix:
 Charge =  0 Multiplicity = 1

                         Standard orientation:
 ---------------------------------------------------------------------
 Center     Atomic      Atomic             Coordinates (Angstroms)
 Number     Number       Type             X           Y           Z
 ---------------------------------------------------------------------
      1          6           0        1.843266    0.098439   -0.010069
      2          6           0        0.601521   -0.382687   -0.003818
      3          6           0       -0.603857    0.400659    0.019343
      4          6           0       -1.836324   -0.119591   -0.007070
      5          1           0        2.711836   -0.522794    0.007412
      6          1           0        2.034534    1.153680    0.009706
      7          1           0        0.444770   -1.460735    0.022579
      8          1           0       -0.515460    1.510448   -0.007425
      9          1           0       -1.987790   -1.197020    0.003130
     10          1           0       -2.715534    0.535498   -0.025716
 ---------------------------------------------------------------------

 SCF Done:  E(RB2PLYPD3) =  -155.700014873     A.U. after   11 cycles
 E2(B2PLYPD3) =    -0.2258647922D+00 E(B2PLYPD3) =    -0.15592587966498D+03

 The electronic state is 1-A.
 Alpha  occ. eigenvalues --  -10.62710 -10.62457 -10.61821 -10.61248  -0.93146
 Alpha  occ. eigenvalues --   -0.84947  -0.70389  -0.63725  -0.54690  -0.53999
 Alpha  occ. eigenvalues --   -0.46647  -0.45449  -0.41024  -0.38336  -0.27644
 Alpha virt. eigenvalues --    0.01583   0.07002   0.07371   0.07977   0.09786
 Alpha virt. eigenvalues --    0.11661   0.12432   0.14741   0.15819   0.16178
 Alpha virt. eigenvalues --    0.18779   0.20499   0.21682   0.22661   0.23733

 Mulliken charges:
               1
     1  C   -0.174394
     2  C   -0.027307
     3  C   -0.024283
     4  C   -0.177087
     5  H    0.086779
     6  H    0.064433
     7  H    0.050758
     8  H    0.048584
     9  H    0.066007
    10  H    0.086509
 Sum of Mulliken charges =   0.00000

 Dipole moment (field-independent basis, Debye):
    X=              0.0017    Y=              0.0040    Z=              0.0210  Tot=              0.0215
 Quadrupole moment (field-independent basis, Debye-Ang):
   XX=            -23.3696   YY=            -23.1796   ZZ=            -29.2762
   XY=              0.1039   XZ=              0.1513   YZ=             -0.0634

 1\1\GINC-NODE35\SP\RB2PLYPD3-FC\def2QZVP\C4H6\BOITTIER\26-Aug-2020\0\\
 #p B2PLYPD3/Def2QZVP\\butadiene\\0,1\C,0,-3.847079,0.214189,0.026944\C
 ,0,-2.712229,-0.482576,0.036247\C,0,-1.38558,0.070196,-0.003102\C,0,-0
 .266843,-0.662551,0.039807\H,0,-4.813311,-0.240811,0.022559\H,0,-3.845
 316,1.285787,-0.019773\H,0,-2.75213,-1.571549,0.03728\H,0,-1.272728,1.
 178088,-0.004365\H,0,-0.311803,-1.749557,0.057002\H,0,0.715952,-0.1761
 45,0.04454\\Version=ES64L-G09RevD.01\State=1-A\HF=-155.7000149\MP2=-15
 5.9258797\RMSD=3.547e-09\PG=C01 [X(C4H6)]\\@

 Normal termination of Gaussian 09 at Wed Aug 26 19:19:15 2020.
