 Gaussian 09, Revision D.01,
 Gaussian 09:  ES64L-G09RevD.01 24-Apr-2013

 --------------------
 #p B2PLYPD3/Def2QZVP
 --------------------

 ---------
 butadiene
 ---------
 Symbolic Z-matrix:
 Charge =  0 Multiplicity = 1

                         Standard orientation:
 ---------------------------------------------------------------------
 Center     Atomic      Atomic             Coordinates (Angstroms)
 Number     Number       Type             X           Y           Z
 ---------------------------------------------------------------------
      1          6           0       -1.882109   -0.087909   -0.009192
      2          6           0       -0.601156    0.361913   -0.004292
      3          6           0        0.634765   -0.433822   -0.002524
      4          6           0        1.872811    0.117081    0.021406
      5          1           0       -2.680848    0.595896    0.067797
      6          1           0       -2.089328   -1.135931   -0.149196
      7          1           0       -0.486522    1.427808    0.068012
      8          1           0        0.401391   -1.431971    0.195333
      9          1           0        1.922909    1.259847   -0.083089
     10          1           0        2.786532   -0.459227   -0.131244
 ---------------------------------------------------------------------

 SCF Done:  E(RB2PLYPD3) =  -155.687224550     A.U. after   11 cycles
 E2(B2PLYPD3) =    -0.2271508626D+00 E(B2PLYPD3) =    -0.15591437541259D+03

 The electronic state is 1-A.
 Alpha  occ. eigenvalues --  -10.63052 -10.62883 -10.62673 -10.61554  -0.92518
 Alpha  occ. eigenvalues --   -0.84527  -0.70504  -0.64323  -0.54622  -0.53359
 Alpha  occ. eigenvalues --   -0.47260  -0.45356  -0.41213  -0.37324  -0.27553
 Alpha virt. eigenvalues --    0.00920   0.06973   0.07475   0.08174   0.09107
 Alpha virt. eigenvalues --    0.11672   0.12454   0.14467   0.15107   0.16377
 Alpha virt. eigenvalues --    0.18672   0.19665   0.21717   0.22470   0.24108

 Mulliken charges:
               1
     1  C   -0.193027
     2  C   -0.019375
     3  C   -0.049869
     4  C   -0.163534
     5  H    0.092111
     6  H    0.066777
     7  H    0.048401
     8  H    0.069680
     9  H    0.058002
    10  H    0.090834
 Sum of Mulliken charges =   0.00000

 Dipole moment (field-independent basis, Debye):
    X=             -0.0004    Y=             -0.0306    Z=             -0.0440  Tot=              0.0536
 Quadrupole moment (field-independent basis, Debye-Ang):
   XX=            -23.4231   YY=            -23.3816   ZZ=            -29.3479
   XY=              0.0144   XZ=             -0.4204   YZ=              0.0551

 1\1\GINC-NODE11\SP\RB2PLYPD3-FC\def2QZVP\C4H6\BOITTIER\26-Aug-2020\0\\
 #p B2PLYPD3/Def2QZVP\\butadiene\\0,1\C,0,-3.891902,0.20533,0.021953\C,
 0,-2.712431,-0.466834,0.037707\C,0,-1.353811,0.093882,0.016522\C,0,-0.
 234702,-0.670591,0.01628\H,0,-4.800426,-0.326278,-0.037022\H,0,-3.9076
 18,1.277495,0.127342\H,0,-2.79094,-1.537779,0.000102\H,0,-1.40452,1.11
 0769,-0.214306\H,0,-0.390326,-1.799827,0.157525\H,0,0.767725,-0.262853
 ,0.154878\\Version=ES64L-G09RevD.01\State=1-A\HF=-155.6872245\MP2=-155
 .9143754\RMSD=4.191e-09\PG=C01 [X(C4H6)]\\@

 Normal termination of Gaussian 09 at Wed Aug 26 12:24:26 2020.
