 Gaussian 09, Revision D.01,
 Gaussian 09:  ES64L-G09RevD.01 24-Apr-2013

 --------------------
 #p B2PLYPD3/Def2QZVP
 --------------------

 ---------
 butadiene
 ---------
 Symbolic Z-matrix:
 Charge =  0 Multiplicity = 1

                         Standard orientation:
 ---------------------------------------------------------------------
 Center     Atomic      Atomic             Coordinates (Angstroms)
 Number     Number       Type             X           Y           Z
 ---------------------------------------------------------------------
      1          6           0       -1.862283    0.085559   -0.048212
      2          6           0       -0.612760   -0.379343    0.074131
      3          6           0        0.622875    0.411859    0.029274
      4          6           0        1.848616   -0.121859   -0.029112
      5          1           0       -2.719410   -0.554143   -0.058454
      6          1           0       -2.048850    1.169200   -0.013905
      7          1           0       -0.397001   -1.430491   -0.012341
      8          1           0        0.466939    1.517910    0.034986
      9          1           0        2.015448   -1.196205   -0.039761
     10          1           0        2.704184    0.516431   -0.067008
 ---------------------------------------------------------------------

 SCF Done:  E(RB2PLYPD3) =  -155.697281368     A.U. after   11 cycles
 E2(B2PLYPD3) =    -0.2261384221D+00 E(B2PLYPD3) =    -0.15592341979016D+03

 The electronic state is 1-A.
 Alpha  occ. eigenvalues --  -10.63066 -10.62580 -10.61798 -10.61669  -0.92673
 Alpha  occ. eigenvalues --   -0.84890  -0.70412  -0.63651  -0.54837  -0.53422
 Alpha  occ. eigenvalues --   -0.47196  -0.45696  -0.40473  -0.37926  -0.27839
 Alpha virt. eigenvalues --    0.01543   0.07026   0.07338   0.08142   0.09486
 Alpha virt. eigenvalues --    0.11650   0.12378   0.14699   0.15553   0.16200
 Alpha virt. eigenvalues --    0.18920   0.19895   0.21758   0.23165   0.23600

 Mulliken charges:
               1
     1  C   -0.173235
     2  C   -0.030195
     3  C   -0.028328
     4  C   -0.178357
     5  H    0.089295
     6  H    0.062439
     7  H    0.054003
     8  H    0.047117
     9  H    0.067714
    10  H    0.089546
 Sum of Mulliken charges =   0.00000

 Dipole moment (field-independent basis, Debye):
    X=              0.0291    Y=             -0.0134    Z=             -0.0702  Tot=              0.0772
 Quadrupole moment (field-independent basis, Debye-Ang):
   XX=            -23.2881   YY=            -23.2598   ZZ=            -29.3315
   XY=             -0.2735   XZ=             -0.0289   YZ=              0.1136

 1\1\GINC-NODE32\SP\RB2PLYPD3-FC\def2QZVP\C4H6\BOITTIER\26-Aug-2020\0\\
 #p B2PLYPD3/Def2QZVP\\butadiene\\0,1\C,0,-3.867656,0.207062,-0.030321\
 C,0,-2.723132,-0.474881,0.101687\C,0,-1.364432,0.077856,0.044911\C,0,-
 0.256115,-0.670528,-0.002632\H,0,-4.826727,-0.266408,-0.030728\H,0,-3.
 85425,1.306991,-0.014898\H,0,-2.702023,-1.549059,0.033588\H,0,-1.31688
 5,1.193766,0.0314\H,0,-0.287198,-1.757328,0.005413\H,0,0.701079,-0.198
 989,-0.050334\\Version=ES64L-G09RevD.01\State=1-A\HF=-155.6972814\MP2=
 -155.9234198\RMSD=3.712e-09\PG=C01 [X(C4H6)]\\@

 Normal termination of Gaussian 09 at Wed Aug 26 10:30:57 2020.
