 Gaussian 09, Revision D.01,
 Gaussian 09:  ES64L-G09RevD.01 24-Apr-2013

 --------------------
 #p B2PLYPD3/Def2QZVP
 --------------------

 ---------
 butadiene
 ---------
 Symbolic Z-matrix:
 Charge =  0 Multiplicity = 1

                         Standard orientation:
 ---------------------------------------------------------------------
 Center     Atomic      Atomic             Coordinates (Angstroms)
 Number     Number       Type             X           Y           Z
 ---------------------------------------------------------------------
      1          6           0       -1.826617    0.104972    0.030299
      2          6           0       -0.596590   -0.393587   -0.028014
      3          6           0        0.598499    0.410885   -0.009732
      4          6           0        1.827086   -0.114328    0.014506
      5          1           0       -2.673118   -0.546046   -0.045657
      6          1           0       -2.001509    1.194477    0.054629
      7          1           0       -0.508789   -1.494492   -0.044927
      8          1           0        0.462551    1.494142   -0.067059
      9          1           0        1.973517   -1.185604    0.082449
     10          1           0        2.733087    0.489873   -0.021787
 ---------------------------------------------------------------------

 SCF Done:  E(RB2PLYPD3) =  -155.699724510     A.U. after   11 cycles
 E2(B2PLYPD3) =    -0.2258720323D+00 E(B2PLYPD3) =    -0.15592559654190D+03

 The electronic state is 1-A.
 Alpha  occ. eigenvalues --  -10.62602 -10.62415 -10.61630 -10.61379  -0.93205
 Alpha  occ. eigenvalues --   -0.84919  -0.70017  -0.63747  -0.54622  -0.53924
 Alpha  occ. eigenvalues --   -0.46521  -0.45190  -0.41251  -0.38302  -0.27645
 Alpha virt. eigenvalues --    0.01764   0.07050   0.07299   0.07981   0.09648
 Alpha virt. eigenvalues --    0.11686   0.12410   0.14680   0.15812   0.16230
 Alpha virt. eigenvalues --    0.18739   0.20318   0.21660   0.22563   0.23961

 Mulliken charges:
               1
     1  C   -0.175162
     2  C   -0.023804
     3  C   -0.031781
     4  C   -0.173377
     5  H    0.085830
     6  H    0.061649
     7  H    0.050305
     8  H    0.056104
     9  H    0.065787
    10  H    0.084449
 Sum of Mulliken charges =   0.00000

 Dipole moment (field-independent basis, Debye):
    X=              0.0187    Y=             -0.0145    Z=             -0.0634  Tot=              0.0677
 Quadrupole moment (field-independent basis, Debye-Ang):
   XX=            -23.5888   YY=            -23.0675   ZZ=            -29.2661
   XY=             -0.0630   XZ=              0.1095   YZ=             -0.0578

 1\1\GINC-NODE25\SP\RB2PLYPD3-FC\def2QZVP\C4H6\BOITTIER\26-Aug-2020\0\\
 #p B2PLYPD3/Def2QZVP\\butadiene\\0,1\C,0,-3.830009,0.218548,0.045172\C
 ,0,-2.710528,-0.495768,0.007187\C,0,-1.389685,0.079637,0.001632\C,0,-0
 .27616,-0.657834,0.047047\H,0,-4.780467,-0.270959,-0.011121\H,0,-3.805
 057,1.321911,0.032189\H,0,-2.823171,-1.594347,0.027723\H,0,-1.327833,1
 .167065,-0.09264\H,0,-0.325501,-1.735022,0.151554\H,0,0.723982,-0.2288
 85,-0.007096\\Version=ES64L-G09RevD.01\State=1-A\HF=-155.6997245\MP2=-
 155.9255965\RMSD=4.896e-09\PG=C01 [X(C4H6)]\\@

 Normal termination of Gaussian 09 at Wed Aug 26 20:24:13 2020.
