 Gaussian 09, Revision D.01,
 Gaussian 09:  ES64L-G09RevD.01 24-Apr-2013

 --------------------
 #p B2PLYPD3/Def2QZVP
 --------------------

 ---------
 butadiene
 ---------
 Symbolic Z-matrix:
 Charge =  0 Multiplicity = 1

                         Standard orientation:
 ---------------------------------------------------------------------
 Center     Atomic      Atomic             Coordinates (Angstroms)
 Number     Number       Type             X           Y           Z
 ---------------------------------------------------------------------
      1          6           0        1.830539   -0.125514    0.014095
      2          6           0        0.594015    0.428396   -0.040175
      3          6           0       -0.589829   -0.386997   -0.019548
      4          6           0       -1.837647    0.081655    0.022639
      5          1           0        2.668149    0.555896   -0.013244
      6          1           0        1.961875   -1.218592    0.176618
      7          1           0        0.449053    1.506888   -0.030448
      8          1           0       -0.363534   -1.469771   -0.091300
      9          1           0       -2.007453    1.173856    0.142358
     10          1           0       -2.690555   -0.533513   -0.046051
 ---------------------------------------------------------------------

 SCF Done:  E(RB2PLYPD3) =  -155.695122519     A.U. after   11 cycles
 E2(B2PLYPD3) =    -0.2267172826D+00 E(B2PLYPD3) =    -0.15592183980153D+03

 The electronic state is 1-A.
 Alpha  occ. eigenvalues --  -10.62677 -10.62504 -10.62176 -10.61482  -0.93095
 Alpha  occ. eigenvalues --   -0.84529  -0.70241  -0.63669  -0.54709  -0.53384
 Alpha  occ. eigenvalues --   -0.46483  -0.45596  -0.41243  -0.38074  -0.27347
 Alpha virt. eigenvalues --    0.01395   0.07064   0.07153   0.08093   0.09460
 Alpha virt. eigenvalues --    0.11753   0.12244   0.14782   0.15692   0.16055
 Alpha virt. eigenvalues --    0.18691   0.20385   0.21238   0.22849   0.23797

 Mulliken charges:
               1
     1  C   -0.180775
     2  C   -0.033241
     3  C   -0.018354
     4  C   -0.181331
     5  H    0.087325
     6  H    0.072213
     7  H    0.055279
     8  H    0.047303
     9  H    0.059719
    10  H    0.091862
 Sum of Mulliken charges =   0.00000

 Dipole moment (field-independent basis, Debye):
    X=              0.0072    Y=              0.0310    Z=              0.0941  Tot=              0.0993
 Quadrupole moment (field-independent basis, Debye-Ang):
   XX=            -23.8301   YY=            -23.0581   ZZ=            -29.3318
   XY=             -0.1624   XZ=              0.2244   YZ=              0.0370

 1\1\GINC-NODE09\SP\RB2PLYPD3-FC\def2QZVP\C4H6\BOITTIER\26-Aug-2020\0\\
 #p B2PLYPD3/Def2QZVP\\butadiene\\0,1\C,0,-3.826932,0.250551,0.036093\C
 ,0,-2.716051,-0.526207,-0.000544\C,0,-1.400557,0.053656,-0.00421\C,0,-
 0.262143,-0.638593,0.052965\H,0,-4.777288,-0.262707,0.029142\H,0,-3.75
 0771,1.353298,0.165052\H,0,-2.775206,-1.61199,0.042228\H,0,-1.420821,1
 .156985,-0.109153\H,0,-0.298886,-1.739168,0.20611\H,0,0.69036,-0.19613
 3,-0.034035\\Version=ES64L-G09RevD.01\State=1-A\HF=-155.6951225\MP2=-1
 55.9218398\RMSD=7.358e-09\PG=C01 [X(C4H6)]\\@

 Normal termination of Gaussian 09 at Wed Aug 26 09:47:12 2020.
