 Gaussian 09, Revision D.01,
 Gaussian 09:  ES64L-G09RevD.01 24-Apr-2013

 --------------------
 #p B2PLYPD3/Def2QZVP
 --------------------

 ---------
 butadiene
 ---------
 Symbolic Z-matrix:
 Charge =  0 Multiplicity = 1

                         Standard orientation:
 ---------------------------------------------------------------------
 Center     Atomic      Atomic             Coordinates (Angstroms)
 Number     Number       Type             X           Y           Z
 ---------------------------------------------------------------------
      1          6           0       -1.823517    0.095958    0.025925
      2          6           0       -0.601852   -0.394194   -0.028637
      3          6           0        0.596002    0.425959   -0.060348
      4          6           0        1.827996   -0.119807    0.007852
      5          1           0       -2.702376   -0.519409    0.068637
      6          1           0       -2.029131    1.138981    0.012273
      7          1           0       -0.491557   -1.450426   -0.011904
      8          1           0        0.492110    1.487703    0.067219
      9          1           0        2.045652   -1.198986    0.067808
     10          1           0        2.693528    0.494645    0.127217
 ---------------------------------------------------------------------

 SCF Done:  E(RB2PLYPD3) =  -155.697645570     A.U. after   11 cycles
 E2(B2PLYPD3) =    -0.2253977889D+00 E(B2PLYPD3) =    -0.15592304335938D+03

 The electronic state is 1-A.
 Alpha  occ. eigenvalues --  -10.62697 -10.61925 -10.61775 -10.60749  -0.93147
 Alpha  occ. eigenvalues --   -0.84953  -0.70261  -0.64611  -0.54876  -0.54134
 Alpha  occ. eigenvalues --   -0.46741  -0.45404  -0.41339  -0.38156  -0.27632
 Alpha virt. eigenvalues --    0.01804   0.07066   0.07477   0.08123   0.09407
 Alpha virt. eigenvalues --    0.11651   0.12570   0.14811   0.15704   0.16501
 Alpha virt. eigenvalues --    0.18867   0.20124   0.22056   0.23190   0.23689

 Mulliken charges:
               1
     1  C   -0.171589
     2  C   -0.026477
     3  C   -0.043192
     4  C   -0.170610
     5  H    0.079386
     6  H    0.061800
     7  H    0.060991
     8  H    0.065942
     9  H    0.065079
    10  H    0.078670
 Sum of Mulliken charges =   0.00000

 Dipole moment (field-independent basis, Debye):
    X=              0.0073    Y=             -0.0020    Z=              0.2391  Tot=              0.2392
 Quadrupole moment (field-independent basis, Debye-Ang):
   XX=            -23.4164   YY=            -23.0712   ZZ=            -29.1505
   XY=             -0.2856   XZ=              0.3763   YZ=              0.0836

 1\1\GINC-NODE09\SP\RB2PLYPD3-FC\def2QZVP\C4H6\BOITTIER\26-Aug-2020\0\\
 #p B2PLYPD3/Def2QZVP\\butadiene\\0,1\C,0,-3.827506,0.21284,0.046036\C,
 0,-2.716072,-0.493625,0.009825\C,0,-1.388438,0.092632,-0.037121\C,0,-0
 .27702,-0.667191,0.050858\H,0,-4.804075,-0.230179,0.100267\H,0,-3.8389
 21,1.275162,0.004772\H,0,-2.800784,-1.551424,0.054053\H,0,-1.296424,1.
 158426,0.062792\H,0,-0.260378,-1.766045,0.139391\H,0,0.686278,-0.21842
 4,0.158609\\Version=ES64L-G09RevD.01\State=1-A\HF=-155.6976456\MP2=-15
 5.9230434\RMSD=5.938e-09\PG=C01 [X(C4H6)]\\@

 Normal termination of Gaussian 09 at Wed Aug 26 09:19:15 2020.
