 Gaussian 09, Revision D.01,
 Gaussian 09:  ES64L-G09RevD.01 24-Apr-2013

 --------------------
 #p B2PLYPD3/Def2QZVP
 --------------------

 ---------
 butadiene
 ---------
 Symbolic Z-matrix:
 Charge =  0 Multiplicity = 1

                         Standard orientation:
 ---------------------------------------------------------------------
 Center     Atomic      Atomic             Coordinates (Angstroms)
 Number     Number       Type             X           Y           Z
 ---------------------------------------------------------------------
      1          6           0       -1.846238   -0.108325    0.003331
      2          6           0       -0.599217    0.403436   -0.009904
      3          6           0        0.604866   -0.426896   -0.014819
      4          6           0        1.833632    0.114547    0.012447
      5          1           0       -2.667194    0.563339    0.031890
      6          1           0       -2.025892   -1.159599    0.075737
      7          1           0       -0.439729    1.455084   -0.064982
      8          1           0        0.482734   -1.490842   -0.061358
      9          1           0        1.949233    1.215856    0.051489
     10          1           0        2.742589   -0.480410    0.020894
 ---------------------------------------------------------------------

 SCF Done:  E(RB2PLYPD3) =  -155.699370084     A.U. after   11 cycles
 E2(B2PLYPD3) =    -0.2259902958D+00 E(B2PLYPD3) =    -0.15592536037945D+03

 The electronic state is 1-A.
 Alpha  occ. eigenvalues --  -10.62561 -10.62501 -10.61922 -10.61246  -0.92791
 Alpha  occ. eigenvalues --   -0.84642  -0.70039  -0.64519  -0.54413  -0.54001
 Alpha  occ. eigenvalues --   -0.46498  -0.45892  -0.41532  -0.37835  -0.27482
 Alpha virt. eigenvalues --    0.01680   0.07034   0.07427   0.08146   0.09285
 Alpha virt. eigenvalues --    0.11720   0.12442   0.14679   0.15906   0.16064
 Alpha virt. eigenvalues --    0.18712   0.20511   0.21498   0.23069   0.23950

 Mulliken charges:
               1
     1  C   -0.182227
     2  C   -0.033644
     3  C   -0.034942
     4  C   -0.173516
     5  H    0.085588
     6  H    0.071680
     7  H    0.060515
     8  H    0.060192
     9  H    0.060612
    10  H    0.085743
 Sum of Mulliken charges =   0.00000

 Dipole moment (field-independent basis, Debye):
    X=              0.0276    Y=             -0.0148    Z=              0.0374  Tot=              0.0488
 Quadrupole moment (field-independent basis, Debye-Ang):
   XX=            -23.6780   YY=            -22.9472   ZZ=            -29.3272
   XY=              0.1341   XZ=             -0.0962   YZ=             -0.0281

 1\1\GINC-NODE13\SP\RB2PLYPD3-FC\def2QZVP\C4H6\BOITTIER\26-Aug-2020\0\\
 #p B2PLYPD3/Def2QZVP\\butadiene\\0,1\C,0,-3.847758,0.224217,0.012782\C
 ,0,-2.714138,-0.504507,0.044441\C,0,-1.379474,0.093566,0.027967\C,0,-0
 .269299,-0.662224,0.019972\H,0,-4.776947,-0.28804,0.001939\H,0,-3.8340
 61,1.288032,-0.091166\H,0,-2.747783,-1.565546,0.131026\H,0,-1.306581,1
 .162927,0.042688\H,0,-0.355367,-1.766907,0.013833\H,0,0.732424,-0.2424
 16,-0.003673\\Version=ES64L-G09RevD.01\State=1-A\HF=-155.6993701\MP2=-
 155.9253604\RMSD=5.525e-09\PG=C01 [X(C4H6)]\\@

 Normal termination of Gaussian 09 at Wed Aug 26 18:30:20 2020.
