 Gaussian 09, Revision D.01,
 Gaussian 09:  ES64L-G09RevD.01 24-Apr-2013

 --------------------
 #p B2PLYPD3/Def2QZVP
 --------------------

 ---------
 butadiene
 ---------
 Symbolic Z-matrix:
 Charge =  0 Multiplicity = 1

                         Standard orientation:
 ---------------------------------------------------------------------
 Center     Atomic      Atomic             Coordinates (Angstroms)
 Number     Number       Type             X           Y           Z
 ---------------------------------------------------------------------
      1          6           0       -1.847926    0.108662   -0.018080
      2          6           0       -0.608368   -0.390666   -0.002094
      3          6           0        0.604597    0.408869    0.000541
      4          6           0        1.842711   -0.119544   -0.004152
      5          1           0       -2.663462   -0.580132    0.079185
      6          1           0       -2.066329    1.159156   -0.025267
      7          1           0       -0.447392   -1.465635    0.031113
      8          1           0        0.499309    1.496783    0.071389
      9          1           0        2.001331   -1.166107   -0.014042
     10          1           0        2.730463    0.512012    0.000335
 ---------------------------------------------------------------------

 SCF Done:  E(RB2PLYPD3) =  -155.699913606     A.U. after   11 cycles
 E2(B2PLYPD3) =    -0.2258503110D+00 E(B2PLYPD3) =    -0.15592576391699D+03

 The electronic state is 1-A.
 Alpha  occ. eigenvalues --  -10.62724 -10.62571 -10.61513 -10.61333  -0.92853
 Alpha  occ. eigenvalues --   -0.84859  -0.70375  -0.64089  -0.54384  -0.54201
 Alpha  occ. eigenvalues --   -0.46476  -0.46067  -0.41204  -0.37972  -0.27570
 Alpha virt. eigenvalues --    0.01565   0.07002   0.07447   0.08041   0.09576
 Alpha virt. eigenvalues --    0.11695   0.12389   0.14867   0.15798   0.16141
 Alpha virt. eigenvalues --    0.18814   0.20313   0.21809   0.22860   0.23815

 Mulliken charges:
               1
     1  C   -0.177215
     2  C   -0.032185
     3  C   -0.029015
     4  C   -0.178858
     5  H    0.084302
     6  H    0.072019
     7  H    0.054512
     8  H    0.054729
     9  H    0.067409
    10  H    0.084302
 Sum of Mulliken charges =   0.00000

 Dipole moment (field-independent basis, Debye):
    X=              0.0226    Y=             -0.0058    Z=              0.1262  Tot=              0.1283
 Quadrupole moment (field-independent basis, Debye-Ang):
   XX=            -23.5566   YY=            -23.0165   ZZ=            -29.2884
   XY=             -0.2665   XZ=             -0.1940   YZ=             -0.0235

 1\1\GINC-NODE39\SP\RB2PLYPD3-FC\def2QZVP\C4H6\BOITTIER\26-Aug-2020\0\\
 #p B2PLYPD3/Def2QZVP\\butadiene\\0,1\C,0,-3.849287,0.224008,0.005902\C
 ,0,-2.720043,-0.490089,0.03692\C,0,-1.382775,0.077232,0.016708\C,0,-0.
 260298,-0.665794,0.027904\H,0,-4.775188,-0.303265,0.122896\H,0,-3.8746
 88,1.296019,-0.032\H,0,-2.755413,-1.575054,0.101522\H,0,-1.289788,1.16
 787,0.055761\H,0,-0.293073,-1.723645,0.048598\H,0,0.726808,-0.204899,0
 .014316\\Version=ES64L-G09RevD.01\State=1-A\HF=-155.6999136\MP2=-155.9
 257639\RMSD=3.824e-09\PG=C01 [X(C4H6)]\\@

 Normal termination of Gaussian 09 at Wed Aug 26 11:00:04 2020.
