 Gaussian 09, Revision D.01,
 Gaussian 09:  ES64L-G09RevD.01 24-Apr-2013

 --------------------
 #p B2PLYPD3/Def2QZVP
 --------------------

 ---------
 butadiene
 ---------
 Symbolic Z-matrix:
 Charge =  0 Multiplicity = 1

                         Standard orientation:
 ---------------------------------------------------------------------
 Center     Atomic      Atomic             Coordinates (Angstroms)
 Number     Number       Type             X           Y           Z
 ---------------------------------------------------------------------
      1          6           0       -1.863832   -0.124060    0.008635
      2          6           0       -0.615767    0.373253   -0.023668
      3          6           0        0.611296   -0.415789   -0.031434
      4          6           0        1.857004    0.121325    0.036415
      5          1           0       -2.543976    0.696052    0.125225
      6          1           0       -2.111392   -1.129747    0.091272
      7          1           0       -0.493965    1.537148   -0.069942
      8          1           0        0.414256   -1.466125   -0.164438
      9          1           0        2.051883    1.184397   -0.069244
     10          1           0        2.750992   -0.550102    0.147440
 ---------------------------------------------------------------------

 SCF Done:  E(RB2PLYPD3) =  -155.683778751     A.U. after   11 cycles
 E2(B2PLYPD3) =    -0.2273487828D+00 E(B2PLYPD3) =    -0.15591112753431D+03

 The electronic state is 1-A.
 Alpha  occ. eigenvalues --  -10.63407 -10.62987 -10.62600 -10.61067  -0.92537
 Alpha  occ. eigenvalues --   -0.84728  -0.70324  -0.63343  -0.54637  -0.53470
 Alpha  occ. eigenvalues --   -0.46709  -0.45451  -0.40892  -0.37311  -0.27461
 Alpha virt. eigenvalues --    0.01210   0.06829   0.07294   0.07891   0.09319
 Alpha virt. eigenvalues --    0.11619   0.12188   0.14913   0.15390   0.15935
 Alpha virt. eigenvalues --    0.18637   0.20492   0.21171   0.22358   0.24404

 Mulliken charges:
               1
     1  C   -0.185567
     2  C   -0.010979
     3  C   -0.045522
     4  C   -0.175761
     5  H    0.082461
     6  H    0.078669
     7  H    0.034497
     8  H    0.063302
     9  H    0.077084
    10  H    0.081816
 Sum of Mulliken charges =   0.00000

 Dipole moment (field-independent basis, Debye):
    X=              0.0545    Y=             -0.0457    Z=              0.0263  Tot=              0.0758
 Quadrupole moment (field-independent basis, Debye-Ang):
   XX=            -24.1021   YY=            -22.8974   ZZ=            -29.4142
   XY=              0.4714   XZ=             -0.3197   YZ=             -0.0793

 1\1\GINC-NODE01\SP\RB2PLYPD3-FC\def2QZVP\C4H6\BOITTIER\26-Aug-2020\0\\
 #p B2PLYPD3/Def2QZVP\\butadiene\\0,1\C,0,-3.862513,0.23876,0.004281\C,
 0,-2.724892,-0.474758,0.056637\C,0,-1.375377,0.079333,0.045599\C,0,-0.
 247416,-0.675929,-0.000961\H,0,-4.6799,-0.448049,-0.090295\H,0,-3.9242
 73,1.269647,-0.109644\H,0,-2.815475,-1.639544,0.138474\H,0,-1.379064,1
 .151533,0.146074\H,0,-0.24781,-1.753006,0.137492\H,0,0.753076,-0.18085
 9,-0.128543\\Version=ES64L-G09RevD.01\State=1-A\HF=-155.6837788\MP2=-1
 55.9111275\RMSD=8.000e-09\PG=C01 [X(C4H6)]\\@

 Normal termination of Gaussian 09 at Wed Aug 26 15:45:44 2020.
