 Gaussian 09, Revision D.01,
 Gaussian 09:  ES64L-G09RevD.01 24-Apr-2013

 --------------------
 #p B2PLYPD3/Def2QZVP
 --------------------

 ---------
 butadiene
 ---------
 Symbolic Z-matrix:
 Charge =  0 Multiplicity = 1

                         Standard orientation:
 ---------------------------------------------------------------------
 Center     Atomic      Atomic             Coordinates (Angstroms)
 Number     Number       Type             X           Y           Z
 ---------------------------------------------------------------------
      1          6           0        1.865794    0.065885    0.095453
      2          6           0        0.617239   -0.327354   -0.090738
      3          6           0       -0.600014    0.416455   -0.072392
      4          6           0       -1.821011   -0.145233    0.036642
      5          1           0        2.618601   -0.597982    0.001344
      6          1           0        2.063244    1.156304   -0.030487
      7          1           0        0.389829   -1.442346    0.046442
      8          1           0       -0.669726    1.571714   -0.032157
      9          1           0       -2.035313   -1.224627   -0.031856
     10          1           0       -2.738680    0.478424    0.232920
 ---------------------------------------------------------------------

 SCF Done:  E(RB2PLYPD3) =  -155.676935175     A.U. after   11 cycles
 E2(B2PLYPD3) =    -0.2275316922D+00 E(B2PLYPD3) =    -0.15590446686721D+03

 The electronic state is 1-A.
 Alpha  occ. eigenvalues --  -10.63546 -10.63008 -10.62736 -10.60934  -0.93243
 Alpha  occ. eigenvalues --   -0.85234  -0.70699  -0.62480  -0.55275  -0.53324
 Alpha  occ. eigenvalues --   -0.46958  -0.44251  -0.40031  -0.38542  -0.27819
 Alpha virt. eigenvalues --    0.00988   0.07025   0.07104   0.07805   0.09569
 Alpha virt. eigenvalues --    0.11470   0.12416   0.14592   0.15251   0.16655
 Alpha virt. eigenvalues --    0.18870   0.18938   0.21559   0.23276   0.23696

 Mulliken charges:
               1
     1  C   -0.166913
     2  C   -0.021105
     3  C   -0.025756
     4  C   -0.166807
     5  H    0.091427
     6  H    0.060416
     7  H    0.041566
     8  H    0.044155
     9  H    0.065767
    10  H    0.077250
 Sum of Mulliken charges =   0.00000

 Dipole moment (field-independent basis, Debye):
    X=             -0.1769    Y=             -0.0416    Z=              0.0224  Tot=              0.1831
 Quadrupole moment (field-independent basis, Debye-Ang):
   XX=            -23.4329   YY=            -23.4684   ZZ=            -29.2844
   XY=             -0.0507   XZ=             -0.6628   YZ=              0.0110

 1\1\GINC-NODE11\SP\RB2PLYPD3-FC\def2QZVP\C4H6\BOITTIER\26-Aug-2020\0\\
 #p B2PLYPD3/Def2QZVP\\butadiene\\0,1\C,0,-3.870345,0.179557,-0.068671\
 C,0,-2.710662,-0.427211,0.118838\C,0,-1.380544,0.087528,0.085283\C,0,-
 0.279774,-0.684139,-0.019834\H,0,-4.728751,-0.33822,0.037821\H,0,-3.86
 969,1.28934,0.041978\H,0,-2.68628,-1.566663,-0.002796\H,0,-1.106469,1.
 211222,0.027879\H,0,-0.260698,-1.783396,0.063712\H,0,0.733072,-0.23670
 3,-0.228478\\Version=ES64L-G09RevD.01\State=1-A\HF=-155.6769352\MP2=-1
 55.9044669\RMSD=9.405e-09\PG=C01 [X(C4H6)]\\@

 Normal termination of Gaussian 09 at Wed Aug 26 14:20:06 2020.
