 Gaussian 09, Revision D.01,
 Gaussian 09:  ES64L-G09RevD.01 24-Apr-2013

 --------------------
 #p B2PLYPD3/Def2QZVP
 --------------------

 ---------
 butadiene
 ---------
 Symbolic Z-matrix:
 Charge =  0 Multiplicity = 1

                         Standard orientation:
 ---------------------------------------------------------------------
 Center     Atomic      Atomic             Coordinates (Angstroms)
 Number     Number       Type             X           Y           Z
 ---------------------------------------------------------------------
      1          6           0        1.808788    0.135112    0.069532
      2          6           0        0.614147   -0.440661   -0.072365
      3          6           0       -0.596512    0.367412   -0.042646
      4          6           0       -1.808265   -0.107551    0.028517
      5          1           0        2.679137   -0.489682    0.124848
      6          1           0        1.788313    1.311909    0.134931
      7          1           0        0.538765   -1.547767   -0.316336
      8          1           0       -0.440716    1.491735   -0.232955
      9          1           0       -2.115640   -1.120149    0.365528
     10          1           0       -2.558804    0.628082    0.025750
 ---------------------------------------------------------------------

 SCF Done:  E(RB2PLYPD3) =  -155.678853885     A.U. after   12 cycles
 E2(B2PLYPD3) =    -0.2267750706D+00 E(B2PLYPD3) =    -0.15590562895573D+03

 The electronic state is 1-A.
 Alpha  occ. eigenvalues --  -10.62809 -10.62690 -10.62337 -10.60699  -0.93193
 Alpha  occ. eigenvalues --   -0.85297  -0.69355  -0.62254  -0.54766  -0.53136
 Alpha  occ. eigenvalues --   -0.46349  -0.44618  -0.40728  -0.37688  -0.28071
 Alpha virt. eigenvalues --    0.02126   0.06677   0.07290   0.07737   0.09254
 Alpha virt. eigenvalues --    0.11459   0.12314   0.14678   0.15234   0.15955
 Alpha virt. eigenvalues --    0.18346   0.20043   0.21054   0.22007   0.24248

 Mulliken charges:
               1
     1  C   -0.173502
     2  C   -0.043170
     3  C   -0.020275
     4  C   -0.176425
     5  H    0.094708
     6  H    0.059993
     7  H    0.062926
     8  H    0.046362
     9  H    0.075111
    10  H    0.074272
 Sum of Mulliken charges =   0.00000

 Dipole moment (field-independent basis, Debye):
    X=              0.0279    Y=             -0.0556    Z=              0.0477  Tot=              0.0784
 Quadrupole moment (field-independent basis, Debye-Ang):
   XX=            -24.3189   YY=            -23.0598   ZZ=            -29.0843
   XY=             -0.1802   XZ=             -0.3545   YZ=             -0.2131

 1\1\GINC-NODE09\SP\RB2PLYPD3-FC\def2QZVP\C4H6\BOITTIER\26-Aug-2020\0\\
 #p B2PLYPD3/Def2QZVP\\butadiene\\0,1\C,0,-3.80502,0.243295,-0.044523\C
 ,0,-2.731343,-0.532521,0.110861\C,0,-1.396116,0.045066,0.054996\C,0,-0
 .289214,-0.640574,-0.005523\H,0,-4.773333,-0.217207,-0.079753\H,0,-3.5
 7525,1.395216,-0.143675\H,0,-2.853007,-1.628072,0.386277\H,0,-1.347217
 ,1.183976,0.213386\H,0,-0.170134,-1.700759,-0.314132\H,0,0.580612,-0.0
 51109,-0.0257\\Version=ES64L-G09RevD.01\State=1-A\HF=-155.6788539\MP2=
 -155.905629\RMSD=3.112e-09\PG=C01 [X(C4H6)]\\@

 Normal termination of Gaussian 09 at Wed Aug 26 13:25:43 2020.
