 Gaussian 09, Revision D.01,
 Gaussian 09:  ES64L-G09RevD.01 24-Apr-2013

 --------------------
 #p B2PLYPD3/Def2QZVP
 --------------------

 ---------
 butadiene
 ---------
 Symbolic Z-matrix:
 Charge =  0 Multiplicity = 1

                         Standard orientation:
 ---------------------------------------------------------------------
 Center     Atomic      Atomic             Coordinates (Angstroms)
 Number     Number       Type             X           Y           Z
 ---------------------------------------------------------------------
      1          6           0        1.855682    0.095020    0.024502
      2          6           0        0.603387   -0.386418   -0.045199
      3          6           0       -0.621759    0.415006   -0.024458
      4          6           0       -1.860259   -0.123107    0.050545
      5          1           0        2.698642   -0.566052   -0.033850
      6          1           0        2.070741    1.187027    0.155932
      7          1           0        0.495082   -1.435523   -0.053550
      8          1           0       -0.440519    1.490716   -0.082261
      9          1           0       -1.974354   -1.206435    0.097601
     10          1           0       -2.711896    0.527258   -0.116218
 ---------------------------------------------------------------------

 SCF Done:  E(RB2PLYPD3) =  -155.695796599     A.U. after   11 cycles
 E2(B2PLYPD3) =    -0.2265145437D+00 E(B2PLYPD3) =    -0.15592231114265D+03

 The electronic state is 1-A.
 Alpha  occ. eigenvalues --  -10.63024 -10.62330 -10.62022 -10.61960  -0.92609
 Alpha  occ. eigenvalues --   -0.84638  -0.70083  -0.64077  -0.54247  -0.53724
 Alpha  occ. eigenvalues --   -0.46630  -0.45806  -0.41226  -0.37610  -0.27563
 Alpha virt. eigenvalues --    0.01314   0.06979   0.07410   0.08069   0.09464
 Alpha virt. eigenvalues --    0.11695   0.12268   0.14697   0.15732   0.15999
 Alpha virt. eigenvalues --    0.18942   0.20411   0.21083   0.22425   0.24061

 Mulliken charges:
               1
     1  C   -0.177021
     2  C   -0.031608
     3  C   -0.037758
     4  C   -0.175647
     5  H    0.087118
     6  H    0.061424
     7  H    0.056474
     8  H    0.057800
     9  H    0.070186
    10  H    0.089030
 Sum of Mulliken charges =   0.00000

 Dipole moment (field-independent basis, Debye):
    X=              0.0363    Y=             -0.0353    Z=             -0.0773  Tot=              0.0924
 Quadrupole moment (field-independent basis, Debye-Ang):
   XX=            -23.6926   YY=            -23.0670   ZZ=            -29.3647
   XY=              0.1146   XZ=              0.4214   YZ=             -0.0446

 1\1\GINC-NODE36\SP\RB2PLYPD3-FC\def2QZVP\C4H6\BOITTIER\26-Aug-2020\0\\
 #p B2PLYPD3/Def2QZVP\\butadiene\\0,1\C,0,-3.863245,0.211696,-0.010408\
 C,0,-2.717905,-0.484925,0.077898\C,0,-1.36866,0.082545,0.043131\C,0,-0
 .247006,-0.671074,-0.011853\H,0,-4.811321,-0.285443,0.06036\H,0,-3.878
 473,1.320802,-0.170581\H,0,-2.799922,-1.535846,0.113399\H,0,-1.353641,
 1.174443,0.072714\H,0,-0.329451,-1.758122,-0.030844\H,0,0.707571,-0.18
 0201,0.142735\\Version=ES64L-G09RevD.01\State=1-A\HF=-155.6957966\MP2=
 -155.9223111\RMSD=7.387e-09\PG=C01 [X(C4H6)]\\@

 Normal termination of Gaussian 09 at Wed Aug 26 09:23:44 2020.
