 Gaussian 09, Revision D.01,
 Gaussian 09:  ES64L-G09RevD.01 24-Apr-2013

 --------------------
 #p B2PLYPD3/Def2QZVP
 --------------------

 ---------
 butadiene
 ---------
 Symbolic Z-matrix:
 Charge =  0 Multiplicity = 1

                         Standard orientation:
 ---------------------------------------------------------------------
 Center     Atomic      Atomic             Coordinates (Angstroms)
 Number     Number       Type             X           Y           Z
 ---------------------------------------------------------------------
      1          6           0       -1.814467    0.112095    0.022239
      2          6           0       -0.585911   -0.421705   -0.020562
      3          6           0        0.593704    0.400203    0.018079
      4          6           0        1.848896   -0.100796   -0.017978
      5          1           0       -2.697255   -0.494467    0.026309
      6          1           0       -2.072282    1.161012    0.087083
      7          1           0       -0.549405   -1.509762   -0.249532
      8          1           0        0.403622    1.520822   -0.122336
      9          1           0        2.041876   -1.166242    0.312514
     10          1           0        2.620113    0.549851   -0.064707
 ---------------------------------------------------------------------

 SCF Done:  E(RB2PLYPD3) =  -155.683307320     A.U. after   11 cycles
 E2(B2PLYPD3) =    -0.2270847068D+00 E(B2PLYPD3) =    -0.15591039202719D+03

 The electronic state is 1-A.
 Alpha  occ. eigenvalues --  -10.63365 -10.62834 -10.61457 -10.61352  -0.92947
 Alpha  occ. eigenvalues --   -0.84741  -0.70653  -0.63189  -0.55148  -0.53308
 Alpha  occ. eigenvalues --   -0.46530  -0.44865  -0.41449  -0.37766  -0.27350
 Alpha virt. eigenvalues --    0.01221   0.07144   0.07261   0.07780   0.09009
 Alpha virt. eigenvalues --    0.11510   0.12511   0.14710   0.15748   0.16275
 Alpha virt. eigenvalues --    0.18595   0.19718   0.22146   0.23006   0.23322

 Mulliken charges:
               1
     1  C   -0.172181
     2  C   -0.029202
     3  C   -0.037478
     4  C   -0.181304
     5  H    0.076398
     6  H    0.062389
     7  H    0.067945
     8  H    0.053744
     9  H    0.073045
    10  H    0.086644
 Sum of Mulliken charges =   0.00000

 Dipole moment (field-independent basis, Debye):
    X=             -0.1432    Y=              0.0656    Z=              0.0047  Tot=              0.1576
 Quadrupole moment (field-independent basis, Debye-Ang):
   XX=            -23.6125   YY=            -23.2082   ZZ=            -29.1746
   XY=             -0.2078   XZ=              0.2766   YZ=             -0.1950

 1\1\GINC-NODE19\SP\RB2PLYPD3-FC\def2QZVP\C4H6\BOITTIER\26-Aug-2020\0\\
 #p B2PLYPD3/Def2QZVP\\butadiene\\0,1\C,0,-3.818405,0.235485,0.031916\C
 ,0,-2.710901,-0.519037,0.015892\C,0,-1.398735,0.06966,0.029048\C,0,-0.
 258936,-0.65736,0.018643\H,0,-4.798732,-0.195431,0.054706\H,0,-3.87615
 ,1.315774,0.055197\H,0,-2.878228,-1.602869,-0.171026\H,0,-1.377008,1.1
 99803,-0.155177\H,0,-0.267135,-1.72654,0.390704\H,0,0.619897,-0.164032
 ,-0.049035\\Version=ES64L-G09RevD.01\State=1-A\HF=-155.6833073\MP2=-15
 5.910392\RMSD=5.665e-09\PG=C01 [X(C4H6)]\\@

 Normal termination of Gaussian 09 at Wed Aug 26 16:01:17 2020.
