 Gaussian 09, Revision D.01,
 Gaussian 09:  ES64L-G09RevD.01 24-Apr-2013

 --------------------
 #p B2PLYPD3/Def2QZVP
 --------------------

 ---------
 butadiene
 ---------
 Symbolic Z-matrix:
 Charge =  0 Multiplicity = 1

                         Standard orientation:
 ---------------------------------------------------------------------
 Center     Atomic      Atomic             Coordinates (Angstroms)
 Number     Number       Type             X           Y           Z
 ---------------------------------------------------------------------
      1          6           0       -1.830831    0.080062    0.073583
      2          6           0       -0.574053   -0.389076   -0.098900
      3          6           0        0.591306    0.465459   -0.032431
      4          6           0        1.818013   -0.146462    0.058290
      5          1           0       -2.665714   -0.594228    0.188900
      6          1           0       -2.062151    1.094949   -0.086986
      7          1           0       -0.286911   -1.390456   -0.111650
      8          1           0        0.524551    1.580871   -0.101398
      9          1           0        1.883250   -1.247004   -0.019860
     10          1           0        2.580366    0.495964    0.127742
 ---------------------------------------------------------------------

 SCF Done:  E(RB2PLYPD3) =  -155.680358874     A.U. after   11 cycles
 E2(B2PLYPD3) =    -0.2272502198D+00 E(B2PLYPD3) =    -0.15590760909334D+03

 The electronic state is 1-A.
 Alpha  occ. eigenvalues --  -10.63123 -10.62275 -10.61303 -10.61244  -0.93043
 Alpha  occ. eigenvalues --   -0.84404  -0.70797  -0.64389  -0.55103  -0.53461
 Alpha  occ. eigenvalues --   -0.47142  -0.45491  -0.42194  -0.37487  -0.26833
 Alpha virt. eigenvalues --    0.01270   0.07114   0.07244   0.08232   0.08845
 Alpha virt. eigenvalues --    0.11807   0.12428   0.14760   0.15784   0.16181
 Alpha virt. eigenvalues --    0.18717   0.20153   0.21178   0.23955   0.24171

 Mulliken charges:
               1
     1  C   -0.179631
     2  C   -0.036983
     3  C   -0.026582
     4  C   -0.194830
     5  H    0.076791
     6  H    0.077241
     7  H    0.065083
     8  H    0.054501
     9  H    0.073221
    10  H    0.091188
 Sum of Mulliken charges =   0.00000

 Dipole moment (field-independent basis, Debye):
    X=              0.0405    Y=              0.0455    Z=             -0.1082  Tot=              0.1242
 Quadrupole moment (field-independent basis, Debye-Ang):
   XX=            -24.1981   YY=            -22.7578   ZZ=            -29.2983
   XY=             -0.2413   XZ=             -0.0820   YZ=             -0.1559

 1\1\GINC-NODE04\SP\RB2PLYPD3-FC\def2QZVP\C4H6\BOITTIER\26-Aug-2020\0\\
 #p B2PLYPD3/Def2QZVP\\butadiene\\0,1\C,0,-3.83533,0.212313,0.092115\C,
 0,-2.691087,-0.493427,-0.056116\C,0,-1.384925,0.127834,-0.029946\C,0,-
 0.295011,-0.699692,0.091608\H,0,-4.781475,-0.285877,0.239121\H,0,-3.87
 2306,1.243765,-0.117708\H,0,-2.598156,-1.530459,-0.020005\H,0,-1.24058
 5,1.231186,-0.152978\H,0,-0.439233,-1.795206,0.066973\H,0,0.575401,-0.
 210226,0.130623\\Version=ES64L-G09RevD.01\State=1-A\HF=-155.6803589\MP
 2=-155.9076091\RMSD=7.827e-09\PG=C01 [X(C4H6)]\\@

 Normal termination of Gaussian 09 at Wed Aug 26 14:13:28 2020.
