 Gaussian 09, Revision D.01,
 Gaussian 09:  ES64L-G09RevD.01 24-Apr-2013

 --------------------
 #p B2PLYPD3/Def2QZVP
 --------------------

 ---------
 butadiene
 ---------
 Symbolic Z-matrix:
 Charge =  0 Multiplicity = 1

                         Standard orientation:
 ---------------------------------------------------------------------
 Center     Atomic      Atomic             Coordinates (Angstroms)
 Number     Number       Type             X           Y           Z
 ---------------------------------------------------------------------
      1          6           0       -1.826477    0.107863   -0.018839
      2          6           0       -0.582467   -0.416288    0.009482
      3          6           0        0.595928    0.403918    0.041518
      4          6           0        1.827607   -0.103286   -0.032025
      5          1           0       -2.731625   -0.518891   -0.000587
      6          1           0       -2.023162    1.191301   -0.156643
      7          1           0       -0.499860   -1.486601    0.157535
      8          1           0        0.419929    1.474421    0.125570
      9          1           0        2.083053   -1.171102   -0.128078
     10          1           0        2.664128    0.557622    0.001386
 ---------------------------------------------------------------------

 SCF Done:  E(RB2PLYPD3) =  -155.696854141     A.U. after   11 cycles
 E2(B2PLYPD3) =    -0.2263891423D+00 E(B2PLYPD3) =    -0.15592324328316D+03

 The electronic state is 1-A.
 Alpha  occ. eigenvalues --  -10.62554 -10.62491 -10.62097 -10.61534  -0.93128
 Alpha  occ. eigenvalues --   -0.84492  -0.70123  -0.63990  -0.54552  -0.53714
 Alpha  occ. eigenvalues --   -0.46470  -0.45158  -0.41281  -0.38080  -0.27425
 Alpha virt. eigenvalues --    0.01552   0.07077   0.07331   0.07941   0.09412
 Alpha virt. eigenvalues --    0.11564   0.12340   0.14839   0.15699   0.16230
 Alpha virt. eigenvalues --    0.18766   0.20153   0.21802   0.22621   0.23491

 Mulliken charges:
               1
     1  C   -0.178247
     2  C   -0.030381
     3  C   -0.037219
     4  C   -0.172762
     5  H    0.079231
     6  H    0.061564
     7  H    0.064851
     8  H    0.061509
     9  H    0.070240
    10  H    0.081215
 Sum of Mulliken charges =   0.00000

 Dipole moment (field-independent basis, Debye):
    X=              0.0210    Y=             -0.0072    Z=              0.0293  Tot=              0.0368
 Quadrupole moment (field-independent basis, Debye-Ang):
   XX=            -23.5883   YY=            -23.0703   ZZ=            -29.2833
   XY=             -0.3367   XZ=             -0.0045   YZ=             -0.0876

 1\1\GINC-NODE32\SP\RB2PLYPD3-FC\def2QZVP\C4H6\BOITTIER\26-Aug-2020\0\\
 #p B2PLYPD3/Def2QZVP\\butadiene\\0,1\C,0,-3.828131,0.231675,-0.000965\
 C,0,-2.703508,-0.513853,0.049126\C,0,-1.392738,0.072867,0.0536\C,0,-0.
 277556,-0.657425,0.001249\H,0,-4.834147,-0.214236,0.03831\H,0,-3.82006
 5,1.32705,-0.178732\H,0,-2.821156,-1.5747,0.236415\H,0,-1.365703,1.159
 747,0.098057\H,0,-0.226093,-1.756917,-0.055132\H,0,0.667649,-0.163309,
 0.012209\\Version=ES64L-G09RevD.01\State=1-A\HF=-155.6968541\MP2=-155.
 9232433\RMSD=4.339e-09\PG=C01 [X(C4H6)]\\@

 Normal termination of Gaussian 09 at Wed Aug 26 08:44:21 2020.
