 Gaussian 09, Revision D.01,
 Gaussian 09:  ES64L-G09RevD.01 24-Apr-2013

 --------------------
 #p B2PLYPD3/Def2QZVP
 --------------------

 ---------
 butadiene
 ---------
 Symbolic Z-matrix:
 Charge =  0 Multiplicity = 1

                         Standard orientation:
 ---------------------------------------------------------------------
 Center     Atomic      Atomic             Coordinates (Angstroms)
 Number     Number       Type             X           Y           Z
 ---------------------------------------------------------------------
      1          6           0        1.832656    0.067692    0.040526
      2          6           0        0.574660   -0.356947   -0.045635
      3          6           0       -0.617462    0.454212   -0.067477
      4          6           0       -1.803903   -0.163801    0.072766
      5          1           0        2.716164   -0.604161   -0.160401
      6          1           0        2.136042    1.119055    0.332246
      7          1           0        0.443633   -1.436418   -0.035960
      8          1           0       -0.494800    1.619525   -0.189929
      9          1           0       -2.010412   -1.181582    0.058379
     10          1           0       -2.706334    0.476648   -0.005411
 ---------------------------------------------------------------------

 SCF Done:  E(RB2PLYPD3) =  -155.679835781     A.U. after   12 cycles
 E2(B2PLYPD3) =    -0.2273509693D+00 E(B2PLYPD3) =    -0.15590718675069D+03

 The electronic state is 1-A.
 Alpha  occ. eigenvalues --  -10.63903 -10.62351 -10.62171 -10.61743  -0.93042
 Alpha  occ. eigenvalues --   -0.84558  -0.69872  -0.63294  -0.54156  -0.53646
 Alpha  occ. eigenvalues --   -0.46633  -0.44500  -0.40842  -0.37676  -0.27349
 Alpha virt. eigenvalues --    0.01276   0.06928   0.07143   0.07696   0.09238
 Alpha virt. eigenvalues --    0.11515   0.12370   0.14712   0.15671   0.16230
 Alpha virt. eigenvalues --    0.18586   0.19922   0.21496   0.22362   0.23691

 Mulliken charges:
               1
     1  C   -0.183821
     2  C   -0.022410
     3  C   -0.039350
     4  C   -0.166287
     5  H    0.078719
     6  H    0.062109
     7  H    0.059712
     8  H    0.061687
     9  H    0.079993
    10  H    0.069647
 Sum of Mulliken charges =   0.00000

 Dipole moment (field-independent basis, Debye):
    X=             -0.1263    Y=             -0.0687    Z=             -0.0670  Tot=              0.1586
 Quadrupole moment (field-independent basis, Debye-Ang):
   XX=            -23.8459   YY=            -23.1390   ZZ=            -29.2760
   XY=              0.4898   XZ=              0.1989   YZ=              0.1819

 1\1\GINC-NODE09\SP\RB2PLYPD3-FC\def2QZVP\C4H6\BOITTIER\26-Aug-2020\0\\
 #p B2PLYPD3/Def2QZVP\\butadiene\\0,1\C,0,-3.843459,0.186742,-0.025757\
 C,0,-2.684547,-0.458596,0.077959\C,0,-1.364006,0.120836,0.084268\C,0,-
 0.310842,-0.707543,-0.033567\H,0,-4.835108,-0.30629,0.188477\H,0,-3.94
 9091,1.267618,-0.346783\H,0,-2.753482,-1.543668,0.097579\H,0,-1.271131
 ,1.29178,0.175149\H,0,-0.294274,-1.745164,0.008849\H,0,0.693634,-0.241
 302,0.032129\\Version=ES64L-G09RevD.01\State=1-A\HF=-155.6798358\MP2=-
 155.9071868\RMSD=5.731e-09\PG=C01 [X(C4H6)]\\@

 Normal termination of Gaussian 09 at Wed Aug 26 13:28:50 2020.
