 Gaussian 09, Revision D.01,
 Gaussian 09:  ES64L-G09RevD.01 24-Apr-2013

 --------------------
 #p B2PLYPD3/Def2QZVP
 --------------------

 ---------
 butadiene
 ---------
 Symbolic Z-matrix:
 Charge =  0 Multiplicity = 1

                         Standard orientation:
 ---------------------------------------------------------------------
 Center     Atomic      Atomic             Coordinates (Angstroms)
 Number     Number       Type             X           Y           Z
 ---------------------------------------------------------------------
      1          6           0        1.851834   -0.088879   -0.034682
      2          6           0        0.605497    0.362153    0.021043
      3          6           0       -0.616616   -0.418912    0.028205
      4          6           0       -1.852934    0.119659   -0.009064
      5          1           0        2.737052    0.512528    0.029164
      6          1           0        2.051680   -1.138497   -0.120578
      7          1           0        0.507955    1.472226    0.124418
      8          1           0       -0.522983   -1.463193    0.148815
      9          1           0       -1.945511    1.237111   -0.120028
     10          1           0       -2.754876   -0.464304   -0.094797
 ---------------------------------------------------------------------

 SCF Done:  E(RB2PLYPD3) =  -155.695674370     A.U. after   11 cycles
 E2(B2PLYPD3) =    -0.2260757479D+00 E(B2PLYPD3) =    -0.15592175011828D+03

 The electronic state is 1-A.
 Alpha  occ. eigenvalues --  -10.62783 -10.62662 -10.62310 -10.61186  -0.92917
 Alpha  occ. eigenvalues --   -0.84956  -0.70338  -0.63948  -0.55061  -0.53661
 Alpha  occ. eigenvalues --   -0.47192  -0.44862  -0.41005  -0.37938  -0.27773
 Alpha virt. eigenvalues --    0.01449   0.07016   0.07496   0.07945   0.09632
 Alpha virt. eigenvalues --    0.11536   0.12569   0.14500   0.15691   0.16408
 Alpha virt. eigenvalues --    0.18963   0.20063   0.21717   0.22423   0.23538

 Mulliken charges:
               1
     1  C   -0.173563
     2  C   -0.020231
     3  C   -0.045996
     4  C   -0.166235
     5  H    0.087354
     6  H    0.057853
     7  H    0.047221
     8  H    0.064767
     9  H    0.059664
    10  H    0.089164
 Sum of Mulliken charges =   0.00000

 Dipole moment (field-independent basis, Debye):
    X=              0.0042    Y=             -0.0780    Z=             -0.0020  Tot=              0.0781
 Quadrupole moment (field-independent basis, Debye-Ang):
   XX=            -23.0999   YY=            -23.4091   ZZ=            -29.2381
   XY=              0.0839   XZ=              0.3636   YZ=              0.0231

 1\1\GINC-NODE23\SP\RB2PLYPD3-FC\def2QZVP\C4H6\BOITTIER\26-Aug-2020\0\\
 #p B2PLYPD3/Def2QZVP\\butadiene\\0,1\C,0,-3.861602,0.196106,-0.010317\
 C,0,-2.714107,-0.46623,0.056444\C,0,-1.373332,0.086735,0.041365\C,0,-0
 .251672,-0.662425,0.017542\H,0,-4.838671,-0.237682,0.070578\H,0,-3.873
 597,1.261873,-0.124381\H,0,-2.813378,-1.572958,0.189709\H,0,-1.280551,
 1.133964,0.133779\H,0,-0.358348,-1.781208,-0.063249\H,0,0.738656,-0.24
 9333,-0.084775\\Version=ES64L-G09RevD.01\State=1-A\HF=-155.6956744\MP2
 =-155.9217501\RMSD=7.545e-09\PG=C01 [X(C4H6)]\\@

 Normal termination of Gaussian 09 at Wed Aug 26 09:38:02 2020.
