 Gaussian 09, Revision D.01,
 Gaussian 09:  ES64L-G09RevD.01 24-Apr-2013

 --------------------
 #p B2PLYPD3/Def2QZVP
 --------------------

 ---------
 butadiene
 ---------
 Symbolic Z-matrix:
 Charge =  0 Multiplicity = 1

                         Standard orientation:
 ---------------------------------------------------------------------
 Center     Atomic      Atomic             Coordinates (Angstroms)
 Number     Number       Type             X           Y           Z
 ---------------------------------------------------------------------
      1          6           0       -1.852654    0.122960    0.059977
      2          6           0       -0.626489   -0.446388   -0.028533
      3          6           0        0.592386    0.371587   -0.102200
      4          6           0        1.860404   -0.094562    0.038852
      5          1           0       -2.759345   -0.495708   -0.075637
      6          1           0       -2.047419    1.255462    0.246425
      7          1           0       -0.458981   -1.458538   -0.192594
      8          1           0        0.529597    1.486012   -0.124080
      9          1           0        2.207338   -1.119740    0.300594
     10          1           0        2.686923    0.610928    0.036711
 ---------------------------------------------------------------------

 SCF Done:  E(RB2PLYPD3) =  -155.683834113     A.U. after   11 cycles
 E2(B2PLYPD3) =    -0.2277041775D+00 E(B2PLYPD3) =    -0.15591153829023D+03

 The electronic state is 1-A.
 Alpha  occ. eigenvalues --  -10.63336 -10.63194 -10.62871 -10.62164  -0.92265
 Alpha  occ. eigenvalues --   -0.84112  -0.69866  -0.63826  -0.54304  -0.52877
 Alpha  occ. eigenvalues --   -0.46783  -0.44745  -0.40745  -0.37360  -0.27417
 Alpha virt. eigenvalues --    0.01094   0.06883   0.07307   0.07929   0.09107
 Alpha virt. eigenvalues --    0.11214   0.12202   0.14735   0.15480   0.16355
 Alpha virt. eigenvalues --    0.19010   0.19956   0.21055   0.22033   0.23528

 Mulliken charges:
               1
     1  C   -0.166444
     2  C   -0.055387
     3  C   -0.032815
     4  C   -0.173176
     5  H    0.080816
     6  H    0.069743
     7  H    0.081892
     8  H    0.056584
     9  H    0.063728
    10  H    0.075059
 Sum of Mulliken charges =   0.00000

 Dipole moment (field-independent basis, Debye):
    X=             -0.0252    Y=             -0.0051    Z=              0.0933  Tot=              0.0968
 Quadrupole moment (field-independent basis, Debye-Ang):
   XX=            -23.5255   YY=            -23.1937   ZZ=            -29.4193
   XY=             -0.3663   XZ=              0.6305   YZ=              0.2023

 1\1\GINC-NODE40\SP\RB2PLYPD3-FC\def2QZVP\C4H6\BOITTIER\26-Aug-2020\0\\
 #p B2PLYPD3/Def2QZVP\\butadiene\\0,1\C,0,-3.847397,0.247805,0.073519\C
 ,0,-2.744874,-0.535998,-0.001096\C,0,-1.39719,0.045789,-0.074845\C,0,-
 0.235823,-0.641609,0.079328\H,0,-4.850861,-0.197109,-0.061918\H,0,-3.8
 33753,1.398837,0.247286\H,0,-2.76353,-1.563488,-0.153868\H,0,-1.256078
 ,1.152736,-0.10833\H,0,-0.082433,-1.709822,0.353655\H,0,0.705254,-0.09
 8273,0.075614\\Version=ES64L-G09RevD.01\State=1-A\HF=-155.6838341\MP2=
 -155.9115383\RMSD=7.413e-09\PG=C01 [X(C4H6)]\\@

 Normal termination of Gaussian 09 at Wed Aug 26 14:32:09 2020.
