 Gaussian 09, Revision D.01,
 Gaussian 09:  ES64L-G09RevD.01 24-Apr-2013

 --------------------
 #p B2PLYPD3/Def2QZVP
 --------------------

 ---------
 butadiene
 ---------
 Symbolic Z-matrix:
 Charge =  0 Multiplicity = 1

                         Standard orientation:
 ---------------------------------------------------------------------
 Center     Atomic      Atomic             Coordinates (Angstroms)
 Number     Number       Type             X           Y           Z
 ---------------------------------------------------------------------
      1          6           0        1.854184   -0.092207    0.005209
      2          6           0        0.615559    0.390408   -0.023011
      3          6           0       -0.624677   -0.437241    0.010083
      4          6           0       -1.852373    0.131354   -0.011535
      5          1           0        2.730587    0.507496   -0.032569
      6          1           0        2.039342   -1.149064    0.107414
      7          1           0        0.458782    1.491215   -0.040540
      8          1           0       -0.458462   -1.490110   -0.033970
      9          1           0       -2.010135    1.218152    0.173371
     10          1           0       -2.716271   -0.531578   -0.058180
 ---------------------------------------------------------------------

 SCF Done:  E(RB2PLYPD3) =  -155.695527553     A.U. after   11 cycles
 E2(B2PLYPD3) =    -0.2262598969D+00 E(B2PLYPD3) =    -0.15592178744957D+03

 The electronic state is 1-A.
 Alpha  occ. eigenvalues --  -10.63090 -10.62926 -10.62348 -10.61135  -0.92304
 Alpha  occ. eigenvalues --   -0.84747  -0.69841  -0.63958  -0.54512  -0.53412
 Alpha  occ. eigenvalues --   -0.47092  -0.45512  -0.40726  -0.37541  -0.27779
 Alpha virt. eigenvalues --    0.01711   0.07000   0.07320   0.08121   0.09147
 Alpha virt. eigenvalues --    0.11644   0.12343   0.14641   0.15808   0.16104
 Alpha virt. eigenvalues --    0.18861   0.20351   0.21391   0.23095   0.23574

 Mulliken charges:
               1
     1  C   -0.174912
     2  C   -0.023140
     3  C   -0.051030
     4  C   -0.171623
     5  H    0.087325
     6  H    0.059011
     7  H    0.050461
     8  H    0.065431
     9  H    0.075247
    10  H    0.083229
 Sum of Mulliken charges =   0.00000

 Dipole moment (field-independent basis, Debye):
    X=              0.0112    Y=             -0.0448    Z=              0.1085  Tot=              0.1180
 Quadrupole moment (field-independent basis, Debye-Ang):
   XX=            -23.5041   YY=            -23.0853   ZZ=            -29.3629
   XY=             -0.2530   XZ=             -0.0482   YZ=              0.1344

 1\1\GINC-NODE30\SP\RB2PLYPD3-FC\def2QZVP\C4H6\BOITTIER\26-Aug-2020\0\\
 #p B2PLYPD3/Def2QZVP\\butadiene\\0,1\C,0,-3.861136,0.207329,0.02383\C,
 0,-2.729018,-0.489925,0.01657\C,0,-1.360549,0.102989,0.021921\C,0,-0.2
 54544,-0.676595,0.024425\H,0,-4.830873,-0.226782,0.006218\H,0,-3.85371
 5,1.283305,0.086261\H,0,-2.771867,-1.600898,0.04032\H,0,-1.335828,1.16
 6245,-0.061611\H,0,-0.293055,-1.766487,0.249952\H,0,0.713847,-0.181203
 ,-0.044706\\Version=ES64L-G09RevD.01\State=1-A\HF=-155.6955276\MP2=-15
 5.9217874\RMSD=7.586e-09\PG=C01 [X(C4H6)]\\@

 Normal termination of Gaussian 09 at Wed Aug 26 08:40:01 2020.
