 Gaussian 09, Revision D.01,
 Gaussian 09:  ES64L-G09RevD.01 24-Apr-2013

 --------------------
 #p B2PLYPD3/Def2QZVP
 --------------------

 ---------
 butadiene
 ---------
 Symbolic Z-matrix:
 Charge =  0 Multiplicity = 1

                         Standard orientation:
 ---------------------------------------------------------------------
 Center     Atomic      Atomic             Coordinates (Angstroms)
 Number     Number       Type             X           Y           Z
 ---------------------------------------------------------------------
      1          6           0       -1.837204    0.060721   -0.048451
      2          6           0       -0.555089   -0.381923    0.082724
      3          6           0        0.564329    0.411362    0.132947
      4          6           0        1.799153   -0.105415   -0.100969
      5          1           0       -2.675030   -0.552599   -0.176545
      6          1           0       -2.092874    1.150269   -0.101019
      7          1           0       -0.256485   -1.413759    0.034119
      8          1           0        0.462512    1.587685   -0.052604
      9          1           0        2.015423   -1.170547   -0.009258
     10          1           0        2.719321    0.490484   -0.092198
 ---------------------------------------------------------------------

 SCF Done:  E(RB2PLYPD3) =  -155.674921680     A.U. after   11 cycles
 E2(B2PLYPD3) =    -0.2287515762D+00 E(B2PLYPD3) =    -0.15590367325601D+03

 The electronic state is 1-A.
 Alpha  occ. eigenvalues --  -10.63407 -10.62471 -10.62344 -10.62100  -0.94095
 Alpha  occ. eigenvalues --   -0.83962  -0.71560  -0.63217  -0.55505  -0.52884
 Alpha  occ. eigenvalues --   -0.46331  -0.44681  -0.40981  -0.38868  -0.26833
 Alpha virt. eigenvalues --    0.00278   0.06944   0.07167   0.07932   0.09303
 Alpha virt. eigenvalues --    0.11623   0.12575   0.14849   0.15242   0.16394
 Alpha virt. eigenvalues --    0.18858   0.19310   0.22525   0.22998   0.23392

 Mulliken charges:
               1
     1  C   -0.176654
     2  C   -0.028208
     3  C   -0.013304
     4  C   -0.164698
     5  H    0.088692
     6  H    0.061318
     7  H    0.052900
     8  H    0.047184
     9  H    0.055782
    10  H    0.076986
 Sum of Mulliken charges =   0.00000

 Dipole moment (field-independent basis, Debye):
    X=              0.0962    Y=             -0.0756    Z=             -0.2016  Tot=              0.2358
 Quadrupole moment (field-independent basis, Debye-Ang):
   XX=            -23.2213   YY=            -23.5948   ZZ=            -29.3444
   XY=             -0.5211   XZ=              0.4186   YZ=             -0.1917

 1\1\GINC-NODE38\SP\RB2PLYPD3-FC\def2QZVP\C4H6\BOITTIER\26-Aug-2020\0\\
 #p B2PLYPD3/Def2QZVP\\butadiene\\0,1\C,0,-3.837118,0.208958,-0.045096\
 C,0,-2.668439,-0.474181,0.111328\C,0,-1.413518,0.082073,0.13733\C,0,-0
 .306556,-0.678756,-0.068432\H,0,-4.780412,-0.230144,-0.154222\H,0,-3.8
 71059,1.324622,-0.141987\H,0,-2.581116,-1.545885,0.105127\H,0,-1.27964
 9,1.246842,-0.094888\H,0,-0.306304,-1.761123,0.066367\H,0,0.713765,-0.
 277822,-0.077339\\Version=ES64L-G09RevD.01\State=1-A\HF=-155.6749217\M
 P2=-155.9036733\RMSD=6.540e-09\PG=C01 [X(C4H6)]\\@

 Normal termination of Gaussian 09 at Wed Aug 26 12:35:13 2020.
