 Gaussian 09, Revision D.01,
 Gaussian 09:  ES64L-G09RevD.01 24-Apr-2013

 --------------------
 #p B2PLYPD3/Def2QZVP
 --------------------

 ---------
 butadiene
 ---------
 Symbolic Z-matrix:
 Charge =  0 Multiplicity = 1

                         Standard orientation:
 ---------------------------------------------------------------------
 Center     Atomic      Atomic             Coordinates (Angstroms)
 Number     Number       Type             X           Y           Z
 ---------------------------------------------------------------------
      1          6           0       -1.852869   -0.086344    0.035875
      2          6           0       -0.608785    0.355683   -0.025710
      3          6           0        0.633735   -0.404039   -0.067612
      4          6           0        1.876282    0.114987    0.066722
      5          1           0       -2.693413    0.538801   -0.027898
      6          1           0       -2.039575   -1.209677    0.183240
      7          1           0       -0.549891    1.496060   -0.178263
      8          1           0        0.399946   -1.474501   -0.098373
      9          1           0        1.849646    1.262599    0.144710
     10          1           0        2.743110   -0.495006   -0.079065
 ---------------------------------------------------------------------

 SCF Done:  E(RB2PLYPD3) =  -155.682809394     A.U. after   12 cycles
 E2(B2PLYPD3) =    -0.2273758223D+00 E(B2PLYPD3) =    -0.15591018521660D+03

 The electronic state is 1-A.
 Alpha  occ. eigenvalues --  -10.63242 -10.62966 -10.62799 -10.61830  -0.92779
 Alpha  occ. eigenvalues --   -0.85013  -0.70278  -0.62505  -0.55257  -0.52754
 Alpha  occ. eigenvalues --   -0.47528  -0.44519  -0.39863  -0.37926  -0.28015
 Alpha virt. eigenvalues --    0.01241   0.06989   0.07143   0.07852   0.09768
 Alpha virt. eigenvalues --    0.11572   0.12197   0.14258   0.15536   0.16016
 Alpha virt. eigenvalues --    0.18847   0.19646   0.21211   0.21656   0.24344

 Mulliken charges:
               1
     1  C   -0.178951
     2  C   -0.004841
     3  C   -0.042870
     4  C   -0.166252
     5  H    0.096995
     6  H    0.048907
     7  H    0.029445
     8  H    0.049310
     9  H    0.065710
    10  H    0.102547
 Sum of Mulliken charges =   0.00000

 Dipole moment (field-independent basis, Debye):
    X=             -0.0543    Y=             -0.0411    Z=             -0.1144  Tot=              0.1331
 Quadrupole moment (field-independent basis, Debye-Ang):
   XX=            -23.4182   YY=            -23.5557   ZZ=            -29.3941
   XY=             -0.3675   XZ=             -0.1855   YZ=             -0.0829

 1\1\GINC-NODE32\SP\RB2PLYPD3-FC\def2QZVP\C4H6\BOITTIER\26-Aug-2020\0\\
 #p B2PLYPD3/Def2QZVP\\butadiene\\0,1\C,0,-3.867351,0.192461,-0.018882\
 C,0,-2.719903,-0.458229,0.064132\C,0,-1.363253,0.072807,0.081192\C,0,-
 0.231459,-0.660911,-0.028607\H,0,-4.804311,-0.272624,0.06591\H,0,-3.85
 4588,1.3246,-0.210064\H,0,-2.861469,-1.584516,0.260697\H,0,-1.405541,1
 .168059,0.06987\H,0,-0.459242,-1.788197,-0.062438\H,0,0.729398,-0.2072
 66,0.096682\\Version=ES64L-G09RevD.01\State=1-A\HF=-155.6828094\MP2=-1
 55.9101852\RMSD=2.721e-09\PG=C01 [X(C4H6)]\\@

 Normal termination of Gaussian 09 at Wed Aug 26 12:17:34 2020.
