 Gaussian 09, Revision D.01,
 Gaussian 09:  ES64L-G09RevD.01 24-Apr-2013

 --------------------
 #p B2PLYPD3/Def2QZVP
 --------------------

 ---------
 butadiene
 ---------
 Symbolic Z-matrix:
 Charge =  0 Multiplicity = 1

                         Standard orientation:
 ---------------------------------------------------------------------
 Center     Atomic      Atomic             Coordinates (Angstroms)
 Number     Number       Type             X           Y           Z
 ---------------------------------------------------------------------
      1          6           0        1.840489    0.121428   -0.001925
      2          6           0        0.606617   -0.415353   -0.005637
      3          6           0       -0.590715    0.373056   -0.005246
      4          6           0       -1.845081   -0.100879    0.020927
      5          1           0        2.726546   -0.526749    0.096545
      6          1           0        1.900186    1.183200   -0.043101
      7          1           0        0.451833   -1.471680   -0.040055
      8          1           0       -0.392824    1.457472   -0.018080
      9          1           0       -2.132224   -1.103585   -0.063155
     10          1           0       -2.621382    0.591832    0.019132
 ---------------------------------------------------------------------

 SCF Done:  E(RB2PLYPD3) =  -155.695103772     A.U. after   11 cycles
 E2(B2PLYPD3) =    -0.2259035544D+00 E(B2PLYPD3) =    -0.15592100732621D+03

 The electronic state is 1-A.
 Alpha  occ. eigenvalues --  -10.62576 -10.62140 -10.61764 -10.60772  -0.93246
 Alpha  occ. eigenvalues --   -0.84918  -0.70922  -0.64323  -0.54940  -0.53963
 Alpha  occ. eigenvalues --   -0.46681  -0.46354  -0.41361  -0.38084  -0.27389
 Alpha virt. eigenvalues --    0.01344   0.06992   0.07490   0.08132   0.09692
 Alpha virt. eigenvalues --    0.11770   0.12431   0.15077   0.15737   0.16000
 Alpha virt. eigenvalues --    0.18687   0.20434   0.21845   0.22821   0.24166

 Mulliken charges:
               1
     1  C   -0.182485
     2  C   -0.025453
     3  C   -0.024182
     4  C   -0.183029
     5  H    0.091000
     6  H    0.068620
     7  H    0.055804
     8  H    0.044961
     9  H    0.071887
    10  H    0.082876
 Sum of Mulliken charges =   0.00000

 Dipole moment (field-independent basis, Debye):
    X=             -0.0162    Y=             -0.0505    Z=             -0.0585  Tot=              0.0789
 Quadrupole moment (field-independent basis, Debye-Ang):
   XX=            -23.5753   YY=            -23.0939   ZZ=            -29.2059
   XY=              0.2688   XZ=              0.3109   YZ=             -0.0072

 1\1\GINC-NODE01\SP\RB2PLYPD3-FC\def2QZVP\C4H6\BOITTIER\26-Aug-2020\0\\
 #p B2PLYPD3/Def2QZVP\\butadiene\\0,1\C,0,-3.836819,0.24547,0.015929\C,
 0,-2.723033,-0.509128,0.041443\C,0,-1.400891,0.044723,0.021933\C,0,-0.
 255421,-0.65284,0.015731\H,0,-4.827315,-0.231052,-0.066353\H,0,-3.6997
 13,1.300815,0.024165\H,0,-2.765568,-1.574302,0.109005\H,0,-1.395477,1.
 146902,0.000551\H,0,-0.157909,-1.688189,0.131851\H,0,0.635269,-0.11534
 1,-0.000456\\Version=ES64L-G09RevD.01\State=1-A\HF=-155.6951038\MP2=-1
 55.9210073\RMSD=4.763e-09\PG=C01 [X(C4H6)]\\@

 Normal termination of Gaussian 09 at Wed Aug 26 08:54:04 2020.
