 Gaussian 09, Revision D.01,
 Gaussian 09:  ES64L-G09RevD.01 24-Apr-2013

 --------------------
 #p B2PLYPD3/Def2QZVP
 --------------------

 ---------
 butadiene
 ---------
 Symbolic Z-matrix:
 Charge =  0 Multiplicity = 1

                         Standard orientation:
 ---------------------------------------------------------------------
 Center     Atomic      Atomic             Coordinates (Angstroms)
 Number     Number       Type             X           Y           Z
 ---------------------------------------------------------------------
      1          6           0        1.864869    0.078283    0.048256
      2          6           0        0.632613   -0.367824   -0.128493
      3          6           0       -0.619459    0.428113   -0.061589
      4          6           0       -1.848082   -0.140318    0.021190
      5          1           0        2.787543   -0.586318    0.237069
      6          1           0        1.914067    1.188329    0.098364
      7          1           0        0.400520   -1.371785    0.029960
      8          1           0       -0.474088    1.545266   -0.004557
      9          1           0       -2.016393   -1.210508    0.133849
     10          1           0       -2.791296    0.445492    0.229124
 ---------------------------------------------------------------------

 SCF Done:  E(RB2PLYPD3) =  -155.680488522     A.U. after   11 cycles
 E2(B2PLYPD3) =    -0.2275193830D+00 E(B2PLYPD3) =    -0.15590800790523D+03

 The electronic state is 1-A.
 Alpha  occ. eigenvalues --  -10.63964 -10.62708 -10.62673 -10.62107  -0.92655
 Alpha  occ. eigenvalues --   -0.84591  -0.69464  -0.63935  -0.54303  -0.52491
 Alpha  occ. eigenvalues --   -0.47318  -0.44651  -0.40155  -0.37747  -0.28015
 Alpha virt. eigenvalues --    0.01448   0.06831   0.07252   0.07888   0.09094
 Alpha virt. eigenvalues --    0.11609   0.12396   0.14208   0.15384   0.16206
 Alpha virt. eigenvalues --    0.18906   0.19745   0.21274   0.22918   0.23766

 Mulliken charges:
               1
     1  C   -0.167845
     2  C   -0.017472
     3  C   -0.044691
     4  C   -0.165115
     5  H    0.092456
     6  H    0.057532
     7  H    0.058832
     8  H    0.047388
     9  H    0.062727
    10  H    0.076187
 Sum of Mulliken charges =   0.00000

 Dipole moment (field-independent basis, Debye):
    X=             -0.0014    Y=             -0.0729    Z=              0.5300  Tot=              0.5350
 Quadrupole moment (field-independent basis, Debye-Ang):
   XX=            -23.5107   YY=            -23.5300   ZZ=            -29.3555
   XY=              0.1040   XZ=              0.0041   YZ=             -0.1762

 1\1\GINC-NODE08\SP\RB2PLYPD3-FC\def2QZVP\C4H6\BOITTIER\26-Aug-2020\0\\
 #p B2PLYPD3/Def2QZVP\\butadiene\\0,1\C,0,-3.871031,0.189133,-0.039693\
 C,0,-2.736083,-0.464896,0.141536\C,0,-1.36382,0.098522,0.069905\C,0,-0
 .254003,-0.677236,-0.00748\H,0,-4.896059,-0.304689,-0.224436\H,0,-3.72
 4746,1.290189,-0.098099\H,0,-2.683776,-1.495161,-0.009228\H,0,-1.31097
 1,1.223393,0.004432\H,0,-0.276091,-1.761169,-0.11202\H,0,0.777276,-0.2
 67553,-0.218868\\Version=ES64L-G09RevD.01\State=1-A\HF=-155.6804885\MP
 2=-155.9080079\RMSD=7.464e-09\PG=C01 [X(C4H6)]\\@

 Normal termination of Gaussian 09 at Wed Aug 26 15:33:01 2020.
