 Gaussian 09, Revision D.01,
 Gaussian 09:  ES64L-G09RevD.01 24-Apr-2013

 --------------------
 #p B2PLYPD3/Def2QZVP
 --------------------

 ---------
 butadiene
 ---------
 Symbolic Z-matrix:
 Charge =  0 Multiplicity = 1

                         Standard orientation:
 ---------------------------------------------------------------------
 Center     Atomic      Atomic             Coordinates (Angstroms)
 Number     Number       Type             X           Y           Z
 ---------------------------------------------------------------------
      1          6           0        1.805754   -0.121121   -0.030049
      2          6           0        0.588615    0.404863   -0.013179
      3          6           0       -0.562609   -0.349126    0.043730
      4          6           0       -1.823371    0.079482   -0.064481
      5          1           0        2.709762    0.504261    0.010886
      6          1           0        1.913385   -1.254931   -0.059445
      7          1           0        0.527174    1.565533    0.212946
      8          1           0       -0.367847   -1.425403    0.166265
      9          1           0       -2.085495    1.062993   -0.009597
     10          1           0       -2.747312   -0.537041    0.062818
 ---------------------------------------------------------------------

 SCF Done:  E(RB2PLYPD3) =  -155.677738971     A.U. after   11 cycles
 E2(B2PLYPD3) =    -0.2271857429D+00 E(B2PLYPD3) =    -0.15590492471435D+03

 The electronic state is 1-A.
 Alpha  occ. eigenvalues --  -10.62784 -10.62426 -10.62300 -10.61190  -0.94283
 Alpha  occ. eigenvalues --   -0.84865  -0.71112  -0.62993  -0.55321  -0.53362
 Alpha  occ. eigenvalues --   -0.46888  -0.44280  -0.41263  -0.38162  -0.27541
 Alpha virt. eigenvalues --    0.01061   0.06844   0.07057   0.07734   0.09950
 Alpha virt. eigenvalues --    0.11580   0.12557   0.14713   0.15314   0.16474
 Alpha virt. eigenvalues --    0.18727   0.19535   0.21905   0.22774   0.23450

 Mulliken charges:
               1
     1  C   -0.175635
     2  C   -0.009886
     3  C   -0.029515
     4  C   -0.160586
     5  H    0.090156
     6  H    0.058835
     7  H    0.044712
     8  H    0.048144
     9  H    0.064463
    10  H    0.069313
 Sum of Mulliken charges =   0.00000

 Dipole moment (field-independent basis, Debye):
    X=              0.0928    Y=              0.0406    Z=              0.3565  Tot=              0.3706
 Quadrupole moment (field-independent basis, Debye-Ang):
   XX=            -23.2615   YY=            -23.6133   ZZ=            -29.1601
   XY=             -0.2325   XZ=             -0.1652   YZ=              0.1277

 1\1\GINC-NODE25\SP\RB2PLYPD3-FC\def2QZVP\C4H6\BOITTIER\26-Aug-2020\0\\
 #p B2PLYPD3/Def2QZVP\\butadiene\\0,1\C,0,-3.802393,0.239437,-0.008639\
 C,0,-2.704104,-0.502173,0.03771\C,0,-1.432514,0.026548,0.061559\C,0,-0
 .274007,-0.633661,-0.021622\H,0,-4.806603,-0.204287,0.059776\H,0,-3.69
 7648,1.370719,-0.093515\H,0,-2.858064,-1.641706,0.32024\H,0,-1.423177,
 1.124918,0.130953\H,0,-0.198874,-1.644925,0.081894\H,0,0.749134,-0.194
 193,0.078492\\Version=ES64L-G09RevD.01\State=1-A\HF=-155.677739\MP2=-1
 55.9049247\RMSD=8.700e-09\PG=C01 [X(C4H6)]\\@

 Normal termination of Gaussian 09 at Wed Aug 26 13:41:01 2020.
