 Gaussian 09, Revision D.01,
 Gaussian 09:  ES64L-G09RevD.01 24-Apr-2013

 --------------------
 #p B2PLYPD3/Def2QZVP
 --------------------

 ---------
 butadiene
 ---------
 Symbolic Z-matrix:
 Charge =  0 Multiplicity = 1

                         Standard orientation:
 ---------------------------------------------------------------------
 Center     Atomic      Atomic             Coordinates (Angstroms)
 Number     Number       Type             X           Y           Z
 ---------------------------------------------------------------------
      1          6           0        1.833224    0.116569    0.012037
      2          6           0        0.605833   -0.404957   -0.009302
      3          6           0       -0.599654    0.381376   -0.014852
      4          6           0       -1.837488   -0.098637   -0.003379
      5          1           0        2.674082   -0.545479   -0.041526
      6          1           0        1.999367    1.213303    0.076486
      7          1           0        0.472996   -1.460316   -0.022966
      8          1           0       -0.467543    1.470220   -0.031093
      9          1           0       -1.981811   -1.181135    0.094580
     10          1           0       -2.708587    0.537302    0.017498
 ---------------------------------------------------------------------

 SCF Done:  E(RB2PLYPD3) =  -155.699520058     A.U. after   11 cycles
 E2(B2PLYPD3) =    -0.2256512778D+00 E(B2PLYPD3) =    -0.15592517133609D+03

 The electronic state is 1-A.
 Alpha  occ. eigenvalues --  -10.62266 -10.62153 -10.61742 -10.61445  -0.93296
 Alpha  occ. eigenvalues --   -0.85034  -0.70178  -0.63951  -0.54676  -0.53905
 Alpha  occ. eigenvalues --   -0.46813  -0.45400  -0.41111  -0.38329  -0.27707
 Alpha virt. eigenvalues --    0.01709   0.07013   0.07366   0.08059   0.09788
 Alpha virt. eigenvalues --    0.11734   0.12325   0.14737   0.15878   0.16064
 Alpha virt. eigenvalues --    0.18720   0.20465   0.21384   0.22737   0.23974

 Mulliken charges:
               1
     1  C   -0.175989
     2  C   -0.034809
     3  C   -0.018668
     4  C   -0.177376
     5  H    0.087355
     6  H    0.068867
     7  H    0.055698
     8  H    0.046786
     9  H    0.059375
    10  H    0.088761
 Sum of Mulliken charges =   0.00000

 Dipole moment (field-independent basis, Debye):
    X=              0.0271    Y=             -0.0126    Z=              0.0740  Tot=              0.0798
 Quadrupole moment (field-independent basis, Debye-Ang):
   XX=            -23.6232   YY=            -23.0972   ZZ=            -29.2232
   XY=             -0.0130   XZ=             -0.2196   YZ=              0.0186

 1\1\GINC-NODE38\SP\RB2PLYPD3-FC\def2QZVP\C4H6\BOITTIER\26-Aug-2020\0\\
 #p B2PLYPD3/Def2QZVP\\butadiene\\0,1\C,0,-3.833556,0.231383,0.007569\C
 ,0,-2.720643,-0.50277,0.044694\C,0,-1.3928,0.052261,0.026707\C,0,-0.26
 2283,-0.643943,0.029787\H,0,-4.779993,-0.265701,0.080938\H,0,-3.798931
 ,1.33768,-0.089845\H,0,-2.780812,-1.56387,0.090098\H,0,-1.3257,1.14703
 2,0.010187\H,0,-0.316662,-1.737103,-0.035564\H,0,0.709348,-0.17703,-0.
 010123\\Version=ES64L-G09RevD.01\State=1-A\HF=-155.6995201\MP2=-155.92
 51713\RMSD=5.265e-09\PG=C01 [X(C4H6)]\\@

 Normal termination of Gaussian 09 at Wed Aug 26 13:49:39 2020.
