 Gaussian 09, Revision D.01,
 Gaussian 09:  ES64L-G09RevD.01 24-Apr-2013

 --------------------
 #p B2PLYPD3/Def2QZVP
 --------------------

 ---------
 butadiene
 ---------
 Symbolic Z-matrix:
 Charge =  0 Multiplicity = 1

                         Standard orientation:
 ---------------------------------------------------------------------
 Center     Atomic      Atomic             Coordinates (Angstroms)
 Number     Number       Type             X           Y           Z
 ---------------------------------------------------------------------
      1          6           0        1.865318    0.087896   -0.034682
      2          6           0        0.623492   -0.357254    0.049958
      3          6           0       -0.605584    0.395669    0.119394
      4          6           0       -1.851843   -0.118986   -0.069721
      5          1           0        2.663367   -0.579592   -0.078806
      6          1           0        2.068111    1.149161   -0.140959
      7          1           0        0.443153   -1.351701   -0.006672
      8          1           0       -0.606003    1.520794   -0.041111
      9          1           0       -1.928097   -1.174438   -0.006276
     10          1           0       -2.828829    0.391820   -0.115869
 ---------------------------------------------------------------------

 SCF Done:  E(RB2PLYPD3) =  -155.683008795     A.U. after   11 cycles
 E2(B2PLYPD3) =    -0.2263588143D+00 E(B2PLYPD3) =    -0.15590936760925D+03

 The electronic state is 1-A.
 Alpha  occ. eigenvalues --  -10.63339 -10.62158 -10.61744 -10.61085  -0.93234
 Alpha  occ. eigenvalues --   -0.85135  -0.71008  -0.64319  -0.55347  -0.53867
 Alpha  occ. eigenvalues --   -0.47494  -0.45242  -0.40704  -0.37985  -0.27717
 Alpha virt. eigenvalues --    0.01051   0.07035   0.07667   0.08008   0.09582
 Alpha virt. eigenvalues --    0.11549   0.12623   0.14541   0.15514   0.16546
 Alpha virt. eigenvalues --    0.19088   0.19374   0.22237   0.22655   0.24131

 Mulliken charges:
               1
     1  C   -0.172832
     2  C   -0.033867
     3  C   -0.029698
     4  C   -0.165736
     5  H    0.089382
     6  H    0.070404
     7  H    0.057949
     8  H    0.045436
     9  H    0.052721
    10  H    0.086240
 Sum of Mulliken charges =   0.00000

 Dipole moment (field-independent basis, Debye):
    X=             -0.0787    Y=             -0.1116    Z=             -0.2443  Tot=              0.2798
 Quadrupole moment (field-independent basis, Debye-Ang):
   XX=            -22.8078   YY=            -23.6247   ZZ=            -29.1548
   XY=             -0.0733   XZ=             -0.0652   YZ=             -0.2684

 1\1\GINC-NODE32\SP\RB2PLYPD3-FC\def2QZVP\C4H6\BOITTIER\26-Aug-2020\0\\
 #p B2PLYPD3/Def2QZVP\\butadiene\\0,1\C,0,-3.869436,0.198292,0.064301\C
 ,0,-2.725001,-0.458914,-0.011882\C,0,-1.38321,0.065739,-0.093591\C,0,-
 0.245919,-0.655973,0.105145\H,0,-4.771962,-0.318207,0.119482\H,0,-3.88
 2926,1.280334,0.152086\H,0,-2.721516,-1.468457,0.062045\H,0,-1.185312,
 1.175972,0.047433\H,0,-0.355888,-1.709391,0.060008\H,0,0.80555,-0.3235
 12,0.143039\\Version=ES64L-G09RevD.01\State=1-A\HF=-155.6830088\MP2=-1
 55.9093676\RMSD=8.022e-09\PG=C01 [X(C4H6)]\\@

 Normal termination of Gaussian 09 at Wed Aug 26 13:23:19 2020.
