 Gaussian 09, Revision D.01,
 Gaussian 09:  ES64L-G09RevD.01 24-Apr-2013

 --------------------
 #p B2PLYPD3/Def2QZVP
 --------------------

 ---------
 butadiene
 ---------
 Symbolic Z-matrix:
 Charge =  0 Multiplicity = 1

                         Standard orientation:
 ---------------------------------------------------------------------
 Center     Atomic      Atomic             Coordinates (Angstroms)
 Number     Number       Type             X           Y           Z
 ---------------------------------------------------------------------
      1          6           0       -1.843053   -0.119008    0.003539
      2          6           0       -0.611839    0.414586   -0.012100
      3          6           0        0.609132   -0.393155   -0.023500
      4          6           0        1.852586    0.108789    0.015917
      5          1           0       -2.740859    0.491051    0.005866
      6          1           0       -1.982361   -1.194648    0.102956
      7          1           0       -0.491445    1.517507   -0.011920
      8          1           0        0.447558   -1.458661   -0.061253
      9          1           0        2.044568    1.159635    0.029452
     10          1           0        2.681578   -0.582154    0.031769
 ---------------------------------------------------------------------

 SCF Done:  E(RB2PLYPD3) =  -155.699900448     A.U. after   11 cycles
 E2(B2PLYPD3) =    -0.2260576532D+00 E(B2PLYPD3) =    -0.15592595810081D+03

 The electronic state is 1-A.
 Alpha  occ. eigenvalues --  -10.62965 -10.62630 -10.61764 -10.61456  -0.92675
 Alpha  occ. eigenvalues --   -0.84777  -0.70092  -0.63935  -0.54325  -0.53943
 Alpha  occ. eigenvalues --   -0.46570  -0.45866  -0.41082  -0.37880  -0.27628
 Alpha virt. eigenvalues --    0.01637   0.06996   0.07382   0.08046   0.09453
 Alpha virt. eigenvalues --    0.11683   0.12365   0.14712   0.15845   0.16081
 Alpha virt. eigenvalues --    0.18795   0.20560   0.21482   0.22843   0.23771

 Mulliken charges:
               1
     1  C   -0.174796
     2  C   -0.031002
     3  C   -0.031910
     4  C   -0.180152
     5  H    0.085960
     6  H    0.064050
     7  H    0.051836
     8  H    0.056499
     9  H    0.073213
    10  H    0.086300
 Sum of Mulliken charges =   0.00000

 Dipole moment (field-independent basis, Debye):
    X=             -0.0183    Y=             -0.0002    Z=              0.0697  Tot=              0.0721
 Quadrupole moment (field-independent basis, Debye-Ang):
   XX=            -23.5626   YY=            -23.0336   ZZ=            -29.3519
   XY=              0.1824   XZ=             -0.0862   YZ=             -0.0553

 1\1\GINC-NODE23\SP\RB2PLYPD3-FC\def2QZVP\C4H6\BOITTIER\26-Aug-2020\0\\
 #p B2PLYPD3/Def2QZVP\\butadiene\\0,1\C,0,-3.844648,0.233013,0.010884\C
 ,0,-2.728847,-0.511649,0.047242\C,0,-1.382934,0.064304,0.03534\C,0,-0.
 249604,-0.653232,0.015666\H,0,-4.837192,-0.20614,0.026217\H,0,-3.78940
 8,1.31237,-0.124127\H,0,-2.807909,-1.617705,0.083555\H,0,-1.350962,1.1
 42175,0.037699\H,0,-0.248955,-1.721341,0.03711\H,0,0.689663,-0.122818,
 -0.02067\\Version=ES64L-G09RevD.01\State=1-A\HF=-155.6999004\MP2=-155.
 9259581\RMSD=3.801e-09\PG=C01 [X(C4H6)]\\@

 Normal termination of Gaussian 09 at Wed Aug 26 21:24:42 2020.
