 Gaussian 09, Revision D.01,
 Gaussian 09:  ES64L-G09RevD.01 24-Apr-2013

 --------------------
 #p B2PLYPD3/Def2QZVP
 --------------------

 ---------
 butadiene
 ---------
 Symbolic Z-matrix:
 Charge =  0 Multiplicity = 1

                         Standard orientation:
 ---------------------------------------------------------------------
 Center     Atomic      Atomic             Coordinates (Angstroms)
 Number     Number       Type             X           Y           Z
 ---------------------------------------------------------------------
      1          6           0        1.884524    0.060613    0.046752
      2          6           0        0.602690   -0.344327   -0.038404
      3          6           0       -0.601623    0.439176   -0.029128
      4          6           0       -1.856588   -0.129758    0.007636
      5          1           0        2.631592   -0.606421    0.138315
      6          1           0        2.104762    1.101889   -0.131347
      7          1           0        0.423565   -1.353625   -0.098467
      8          1           0       -0.466763    1.501126    0.011975
      9          1           0       -2.014348   -1.221227    0.002104
     10          1           0       -2.852827    0.424031    0.156281
 ---------------------------------------------------------------------

 SCF Done:  E(RB2PLYPD3) =  -155.682878150     A.U. after   11 cycles
 E2(B2PLYPD3) =    -0.2270183888D+00 E(B2PLYPD3) =    -0.15590989653863D+03

 The electronic state is 1-A.
 Alpha  occ. eigenvalues --  -10.63504 -10.63296 -10.61880 -10.60838  -0.92964
 Alpha  occ. eigenvalues --   -0.84387  -0.71060  -0.64823  -0.55430  -0.53149
 Alpha  occ. eigenvalues --   -0.47662  -0.45182  -0.41620  -0.37640  -0.27097
 Alpha virt. eigenvalues --    0.00648   0.06885   0.07557   0.08227   0.09426
 Alpha virt. eigenvalues --    0.11525   0.12550   0.14580   0.15854   0.16349
 Alpha virt. eigenvalues --    0.18898   0.20417   0.21567   0.22756   0.23823

 Mulliken charges:
               1
     1  C   -0.189890
     2  C   -0.022421
     3  C   -0.040984
     4  C   -0.166186
     5  H    0.091773
     6  H    0.067219
     7  H    0.057452
     8  H    0.062018
     9  H    0.062952
    10  H    0.078068
 Sum of Mulliken charges =   0.00000

 Dipole moment (field-independent basis, Debye):
    X=             -0.0714    Y=             -0.0783    Z=              0.0190  Tot=              0.1077
 Quadrupole moment (field-independent basis, Debye-Ang):
   XX=            -23.1699   YY=            -23.3811   ZZ=            -29.2998
   XY=              0.2599   XZ=             -0.4243   YZ=             -0.0816

 1\1\GINC-NODE06\SP\RB2PLYPD3-FC\def2QZVP\C4H6\BOITTIER\26-Aug-2020\0\\
 #p B2PLYPD3/Def2QZVP\\butadiene\\0,1\C,0,-3.890956,0.18865,-0.020861\C
 ,0,-2.705257,-0.443968,0.069915\C,0,-1.377237,0.103694,0.042334\C,0,-0
 .24887,-0.687505,0.014594\H,0,-4.748682,-0.33085,-0.097378\H,0,-3.9144
 72,1.255962,0.136528\H,0,-2.714894,-1.467617,0.150073\H,0,-1.314281,1.
 17129,-0.020024\H,0,-0.294963,-1.789027,0.041941\H,0,0.831508,-0.32993
 1,-0.147251\\Version=ES64L-G09RevD.01\State=1-A\HF=-155.6828781\MP2=-1
 55.9098965\RMSD=9.778e-09\PG=C01 [X(C4H6)]\\@

 Normal termination of Gaussian 09 at Wed Aug 26 14:27:50 2020.
