 Gaussian 09, Revision D.01,
 Gaussian 09:  ES64L-G09RevD.01 24-Apr-2013

 --------------------
 #p B2PLYPD3/Def2QZVP
 --------------------

 ---------
 butadiene
 ---------
 Symbolic Z-matrix:
 Charge =  0 Multiplicity = 1

                         Standard orientation:
 ---------------------------------------------------------------------
 Center     Atomic      Atomic             Coordinates (Angstroms)
 Number     Number       Type             X           Y           Z
 ---------------------------------------------------------------------
      1          6           0       -1.837130    0.106115    0.007935
      2          6           0       -0.598879   -0.390151   -0.007946
      3          6           0        0.597690    0.396781   -0.006172
      4          6           0        1.830847   -0.105518   -0.007269
      5          1           0       -2.664051   -0.552269    0.020291
      6          1           0       -2.014332    1.183351    0.001771
      7          1           0       -0.462011   -1.470864   -0.002167
      8          1           0        0.488796    1.484527   -0.025318
      9          1           0        1.966953   -1.166315    0.006838
     10          1           0        2.729482    0.478211    0.079297
 ---------------------------------------------------------------------

 SCF Done:  E(RB2PLYPD3) =  -155.700361553     A.U. after   11 cycles
 E2(B2PLYPD3) =    -0.2255182490D+00 E(B2PLYPD3) =    -0.15592587980215D+03

 The electronic state is 1-A.
 Alpha  occ. eigenvalues --  -10.62376 -10.62307 -10.61336 -10.61215  -0.93353
 Alpha  occ. eigenvalues --   -0.85082  -0.70555  -0.63989  -0.54987  -0.54095
 Alpha  occ. eigenvalues --   -0.46769  -0.45535  -0.41271  -0.38398  -0.27611
 Alpha virt. eigenvalues --    0.01623   0.07047   0.07415   0.08072   0.09821
 Alpha virt. eigenvalues --    0.11697   0.12518   0.14764   0.15851   0.16250
 Alpha virt. eigenvalues --    0.18768   0.20430   0.21796   0.22780   0.23836

 Mulliken charges:
               1
     1  C   -0.179469
     2  C   -0.028435
     3  C   -0.022103
     4  C   -0.173238
     5  H    0.089382
     6  H    0.067950
     7  H    0.050400
     8  H    0.050364
     9  H    0.059082
    10  H    0.086066
 Sum of Mulliken charges =   0.00000

 Dipole moment (field-independent basis, Debye):
    X=              0.0117    Y=             -0.0152    Z=              0.0664  Tot=              0.0691
 Quadrupole moment (field-independent basis, Debye-Ang):
   XX=            -23.4020   YY=            -23.1620   ZZ=            -29.1844
   XY=             -0.0643   XZ=              0.1884   YZ=             -0.0036

 1\1\GINC-NODE38\SP\RB2PLYPD3-FC\def2QZVP\C4H6\BOITTIER\26-Aug-2020\0\\
 #p B2PLYPD3/Def2QZVP\\butadiene\\0,1\C,0,-3.838619,0.222268,0.02483\C,
 0,-2.711092,-0.490801,0.028583\C,0,-1.391534,0.065485,0.009741\C,0,-0.
 270076,-0.652125,0.028442\H,0,-4.771301,-0.274336,0.055007\H,0,-3.8173
 07,1.313042,-0.015587\H,0,-2.7727,-1.577682,0.06859\H,0,-1.301172,1.15
 3781,-0.043753\H,0,-0.328797,-1.719032,0.076148\H,0,0.719811,-0.238818
 ,0.09971\\Version=ES64L-G09RevD.01\State=1-A\HF=-155.7003616\MP2=-155.
 9258798\RMSD=3.269e-09\PG=C01 [X(C4H6)]\\@

 Normal termination of Gaussian 09 at Wed Aug 26 21:10:58 2020.
