 Gaussian 09, Revision D.01,
 Gaussian 09:  ES64L-G09RevD.01 24-Apr-2013

 --------------------
 #p B2PLYPD3/Def2QZVP
 --------------------

 ---------
 butadiene
 ---------
 Symbolic Z-matrix:
 Charge =  0 Multiplicity = 1

                         Standard orientation:
 ---------------------------------------------------------------------
 Center     Atomic      Atomic             Coordinates (Angstroms)
 Number     Number       Type             X           Y           Z
 ---------------------------------------------------------------------
      1          6           0       -1.848856    0.143189    0.085943
      2          6           0       -0.591825   -0.452249   -0.067536
      3          6           0        0.609389    0.351107   -0.073023
      4          6           0        1.844579   -0.084134    0.035236
      5          1           0       -2.824441   -0.523469    0.091253
      6          1           0       -1.981258    1.231367   -0.088002
      7          1           0       -0.374179   -1.463948   -0.028389
      8          1           0        0.430887    1.445352   -0.136690
      9          1           0        2.098255   -1.149570   -0.015266
     10          1           0        2.571012    0.712781    0.293376
 ---------------------------------------------------------------------

 SCF Done:  E(RB2PLYPD3) =  -155.676190095     A.U. after   12 cycles
 E2(B2PLYPD3) =    -0.2283095560D+00 E(B2PLYPD3) =    -0.15590449965080D+03

 The electronic state is 1-A.
 Alpha  occ. eigenvalues --  -10.64002 -10.63194 -10.62234 -10.61656  -0.93067
 Alpha  occ. eigenvalues --   -0.84026  -0.69881  -0.64063  -0.53687  -0.53088
 Alpha  occ. eigenvalues --   -0.46704  -0.45037  -0.41089  -0.37644  -0.27210
 Alpha virt. eigenvalues --    0.00827   0.06754   0.07282   0.07862   0.09239
 Alpha virt. eigenvalues --    0.11740   0.12026   0.14711   0.15301   0.16266
 Alpha virt. eigenvalues --    0.18290   0.19590   0.21310   0.22427   0.24579

 Mulliken charges:
               1
     1  C   -0.167820
     2  C   -0.059592
     3  C    0.002632
     4  C   -0.188835
     5  H    0.073587
     6  H    0.073834
     7  H    0.066857
     8  H    0.044378
     9  H    0.070191
    10  H    0.084768
 Sum of Mulliken charges =   0.00000

 Dipole moment (field-independent basis, Debye):
    X=              0.0330    Y=             -0.0336    Z=             -0.0088  Tot=              0.0480
 Quadrupole moment (field-independent basis, Debye-Ang):
   XX=            -24.3580   YY=            -23.0109   ZZ=            -29.4516
   XY=             -0.3985   XZ=              0.6533   YZ=             -0.0060

 1\1\GINC-NODE31\SP\RB2PLYPD3-FC\def2QZVP\C4H6\BOITTIER\26-Aug-2020\0\\
 #p B2PLYPD3/Def2QZVP\\butadiene\\0,1\C,0,-3.843271,0.27326,0.097531\C,
 0,-2.717674,-0.547482,-0.035304\C,0,-1.388584,0.01965,-0.049653\C,0,-0
 .255495,-0.633988,0.075711\H,0,-4.925342,-0.201279,0.110334\H,0,-3.771
 664,1.363131,-0.099881\H,0,-2.691015,-1.580889,0.026308\H,0,-1.361443,
 1.126393,-0.137241\H,0,-0.203136,-1.728796,0.049049\H,0,0.605138,0.020
 297,0.321957\\Version=ES64L-G09RevD.01\State=1-A\HF=-155.6761901\MP2=-
 155.9044997\RMSD=6.208e-09\PG=C01 [X(C4H6)]\\@

 Normal termination of Gaussian 09 at Wed Aug 26 12:52:32 2020.
