 Gaussian 09, Revision D.01,
 Gaussian 09:  ES64L-G09RevD.01 24-Apr-2013

 --------------------
 #p B2PLYPD3/Def2QZVP
 --------------------

 ---------
 butadiene
 ---------
 Symbolic Z-matrix:
 Charge =  0 Multiplicity = 1

                         Standard orientation:
 ---------------------------------------------------------------------
 Center     Atomic      Atomic             Coordinates (Angstroms)
 Number     Number       Type             X           Y           Z
 ---------------------------------------------------------------------
      1          6           0       -1.827105    0.085914    0.014195
      2          6           0       -0.596590   -0.386666   -0.020488
      3          6           0        0.588211    0.439834   -0.054449
      4          6           0        1.831197   -0.106516    0.014885
      5          1           0       -2.702218   -0.582637    0.062098
      6          1           0       -2.070645    1.150630    0.053003
      7          1           0       -0.373634   -1.441881   -0.032939
      8          1           0        0.443234    1.489630    0.046348
      9          1           0        1.929815   -1.214059    0.063124
     10          1           0        2.799175    0.402916    0.083515
 ---------------------------------------------------------------------

 SCF Done:  E(RB2PLYPD3) =  -155.695466326     A.U. after   11 cycles
 E2(B2PLYPD3) =    -0.2263766357D+00 E(B2PLYPD3) =    -0.15592184296137D+03

 The electronic state is 1-A.
 Alpha  occ. eigenvalues --  -10.62712 -10.62461 -10.62232 -10.61604  -0.93231
 Alpha  occ. eigenvalues --   -0.84461  -0.70065  -0.64490  -0.54902  -0.53205
 Alpha  occ. eigenvalues --   -0.47162  -0.44797  -0.40997  -0.38258  -0.27545
 Alpha virt. eigenvalues --    0.01562   0.06990   0.07304   0.08168   0.09381
 Alpha virt. eigenvalues --    0.11592   0.12565   0.14530   0.15643   0.16432
 Alpha virt. eigenvalues --    0.18753   0.20123   0.22101   0.22738   0.23623

 Mulliken charges:
               1
     1  C   -0.173604
     2  C   -0.022690
     3  C   -0.034085
     4  C   -0.170265
     5  H    0.080084
     6  H    0.065342
     7  H    0.056593
     8  H    0.062696
     9  H    0.051374
    10  H    0.084555
 Sum of Mulliken charges =   0.00000

 Dipole moment (field-independent basis, Debye):
    X=              0.0323    Y=              0.0200    Z=              0.2001  Tot=              0.2037
 Quadrupole moment (field-independent basis, Debye-Ang):
   XX=            -23.2859   YY=            -23.3280   ZZ=            -29.3052
   XY=             -0.3923   XZ=              0.1576   YZ=              0.0998

 1\1\GINC-NODE03\SP\RB2PLYPD3-FC\def2QZVP\C4H6\BOITTIER\26-Aug-2020\0\\
 #p B2PLYPD3/Def2QZVP\\butadiene\\0,1\C,0,-3.830843,0.209203,0.036715\C
 ,0,-2.710798,-0.486381,0.017646\C,0,-1.392129,0.102249,-0.033699\C,0,-
 0.273473,-0.665468,0.053119\H,0,-4.81568,-0.282026,0.09892\H,0,-3.8704
 03,1.301333,0.047855\H,0,-2.689628,-1.564654,0.032553\H,0,-1.337557,1.
 162828,0.04008\H,0,-0.384135,-1.770276,0.129651\H,0,0.772967,-0.344933
 ,0.111709\\Version=ES64L-G09RevD.01\State=1-A\HF=-155.6954663\MP2=-155
 .921843\RMSD=7.079e-09\PG=C01 [X(C4H6)]\\@

 Normal termination of Gaussian 09 at Wed Aug 26 09:11:12 2020.
