 Gaussian 09, Revision D.01,
 Gaussian 09:  ES64L-G09RevD.01 24-Apr-2013

 --------------------
 #p B2PLYPD3/Def2QZVP
 --------------------

 ---------
 butadiene
 ---------
 Symbolic Z-matrix:
 Charge =  0 Multiplicity = 1

                         Standard orientation:
 ---------------------------------------------------------------------
 Center     Atomic      Atomic             Coordinates (Angstroms)
 Number     Number       Type             X           Y           Z
 ---------------------------------------------------------------------
      1          6           0       -1.847475    0.103760    0.007407
      2          6           0       -0.602465   -0.417554   -0.043921
      3          6           0        0.611216    0.410507   -0.004202
      4          6           0        1.840210   -0.109917    0.020874
      5          1           0       -2.755671   -0.457095    0.035769
      6          1           0       -2.012708    1.160776    0.153563
      7          1           0       -0.488467   -1.473316   -0.045912
      8          1           0        0.467813    1.478082   -0.104821
      9          1           0        2.086305   -1.167960    0.122159
     10          1           0        2.693810    0.538738   -0.041700
 ---------------------------------------------------------------------

 SCF Done:  E(RB2PLYPD3) =  -155.697908917     A.U. after   11 cycles
 E2(B2PLYPD3) =    -0.2258482255D+00 E(B2PLYPD3) =    -0.15592375714215D+03

 The electronic state is 1-A.
 Alpha  occ. eigenvalues --  -10.62766 -10.62679 -10.61552 -10.61496  -0.92641
 Alpha  occ. eigenvalues --   -0.84712  -0.70294  -0.64509  -0.54824  -0.53729
 Alpha  occ. eigenvalues --   -0.47012  -0.45445  -0.41174  -0.37780  -0.27590
 Alpha virt. eigenvalues --    0.01627   0.07038   0.07472   0.08143   0.09240
 Alpha virt. eigenvalues --    0.11578   0.12538   0.14744   0.15761   0.16448
 Alpha virt. eigenvalues --    0.18934   0.20343   0.21882   0.22861   0.23408

 Mulliken charges:
               1
     1  C   -0.169236
     2  C   -0.040216
     3  C   -0.036890
     4  C   -0.173808
     5  H    0.081863
     6  H    0.058577
     7  H    0.064558
     8  H    0.065344
     9  H    0.069849
    10  H    0.079960
 Sum of Mulliken charges =   0.00000

 Dipole moment (field-independent basis, Debye):
    X=              0.0197    Y=             -0.0198    Z=              0.0834  Tot=              0.0879
 Quadrupole moment (field-independent basis, Debye-Ang):
   XX=            -23.2669   YY=            -23.1428   ZZ=            -29.2583
   XY=             -0.3424   XZ=             -0.3442   YZ=             -0.1100

 1\1\GINC-NODE28\SP\RB2PLYPD3-FC\def2QZVP\C4H6\BOITTIER\26-Aug-2020\0\\
 #p B2PLYPD3/Def2QZVP\\butadiene\\0,1\C,0,-3.849829,0.224921,0.031325\C
 ,0,-2.72083,-0.51582,-0.002091\C,0,-1.37651,0.078321,0.00707\C,0,-0.26
 2547,-0.655942,0.049987\H,0,-4.844672,-0.159868,0.080407\H,0,-3.818963
 ,1.298829,0.139559\H,0,-2.800811,-1.574098,0.033736\H,0,-1.324032,1.14
 9952,-0.131705\H,0,-0.212311,-1.736878,0.189018\H,0,0.694337,-0.176139
 ,-0.036399\\Version=ES64L-G09RevD.01\State=1-A\HF=-155.6979089\MP2=-15
 5.9237571\RMSD=4.786e-09\PG=C01 [X(C4H6)]\\@

 Normal termination of Gaussian 09 at Wed Aug 26 22:20:19 2020.
