 Gaussian 09, Revision D.01,
 Gaussian 09:  ES64L-G09RevD.01 24-Apr-2013

 --------------------
 #p B2PLYPD3/Def2QZVP
 --------------------

 ---------
 butadiene
 ---------
 Symbolic Z-matrix:
 Charge =  0 Multiplicity = 1

                         Standard orientation:
 ---------------------------------------------------------------------
 Center     Atomic      Atomic             Coordinates (Angstroms)
 Number     Number       Type             X           Y           Z
 ---------------------------------------------------------------------
      1          6           0       -1.863095   -0.133341    0.009356
      2          6           0       -0.621072    0.436567   -0.050365
      3          6           0        0.630853   -0.347326   -0.100511
      4          6           0        1.885505    0.078862    0.054822
      5          1           0       -2.886541    0.447642    0.206077
      6          1           0       -1.917094   -1.267676    0.089645
      7          1           0       -0.464306    1.567166    0.016833
      8          1           0        0.350468   -1.415830    0.032571
      9          1           0        2.112928    1.117512    0.033932
     10          1           0        2.611405   -0.657391    0.141134
 ---------------------------------------------------------------------

 SCF Done:  E(RB2PLYPD3) =  -155.676934341     A.U. after   11 cycles
 E2(B2PLYPD3) =    -0.2282729825D+00 E(B2PLYPD3) =    -0.15590520732324D+03

 The electronic state is 1-A.
 Alpha  occ. eigenvalues --  -10.64157 -10.64042 -10.63077 -10.61254  -0.92335
 Alpha  occ. eigenvalues --   -0.84526  -0.69825  -0.62886  -0.54347  -0.52988
 Alpha  occ. eigenvalues --   -0.46862  -0.44928  -0.39943  -0.37676  -0.27828
 Alpha virt. eigenvalues --    0.01107   0.06818   0.07116   0.07866   0.09210
 Alpha virt. eigenvalues --    0.11499   0.12214   0.14324   0.15567   0.15999
 Alpha virt. eigenvalues --    0.18734   0.19775   0.21317   0.22897   0.23652

 Mulliken charges:
               1
     1  C   -0.162310
     2  C   -0.039081
     3  C   -0.014160
     4  C   -0.183802
     5  H    0.083496
     6  H    0.056211
     7  H    0.045699
     8  H    0.042519
     9  H    0.076629
    10  H    0.094797
 Sum of Mulliken charges =   0.00000

 Dipole moment (field-independent basis, Debye):
    X=              0.0602    Y=              0.0224    Z=              0.3675  Tot=              0.3731
 Quadrupole moment (field-independent basis, Debye-Ang):
   XX=            -23.4872   YY=            -23.4489   ZZ=            -29.5482
   XY=              0.2959   XZ=             -0.3066   YZ=             -0.1302

 1\1\GINC-NODE12\SP\RB2PLYPD3-FC\def2QZVP\C4H6\BOITTIER\26-Aug-2020\0\\
 #p B2PLYPD3/Def2QZVP\\butadiene\\0,1\C,0,-3.864192,0.25181,-0.011101\C
 ,0,-2.743953,-0.527359,0.083464\C,0,-1.371791,0.02145,0.100731\C,0,-0.
 214253,-0.629553,-0.026616\H,0,-4.975832,-0.145849,-0.183744\H,0,-3.71
 468,1.372026,-0.148363\H,0,-2.792264,-1.669689,0.073766\H,0,-1.456995,
 1.114829,-0.087123\H,0,-0.176252,-1.689753,0.047422\H,0,0.63132,-0.040
 303,-0.145952\\Version=ES64L-G09RevD.01\State=1-A\HF=-155.6769343\MP2=
 -155.9052073\RMSD=6.611e-09\PG=C01 [X(C4H6)]\\@

 Normal termination of Gaussian 09 at Wed Aug 26 12:16:38 2020.
