 Gaussian 09, Revision D.01,
 Gaussian 09:  ES64L-G09RevD.01 24-Apr-2013

 --------------------
 #p B2PLYPD3/Def2QZVP
 --------------------

 ---------
 butadiene
 ---------
 Symbolic Z-matrix:
 Charge =  0 Multiplicity = 1

                         Standard orientation:
 ---------------------------------------------------------------------
 Center     Atomic      Atomic             Coordinates (Angstroms)
 Number     Number       Type             X           Y           Z
 ---------------------------------------------------------------------
      1          6           0        1.863521    0.090666   -0.022944
      2          6           0        0.608904   -0.382167    0.033225
      3          6           0       -0.604923    0.434304   -0.007898
      4          6           0       -1.846586   -0.129435   -0.040258
      5          1           0        2.709571   -0.539998    0.006843
      6          1           0        2.005859    1.139881   -0.072835
      7          1           0        0.478216   -1.475005    0.083183
      8          1           0       -0.510883    1.509759    0.150967
      9          1           0       -2.073693   -1.175224   -0.019726
     10          1           0       -2.734565    0.460376    0.078826
 ---------------------------------------------------------------------

 SCF Done:  E(RB2PLYPD3) =  -155.695433916     A.U. after   11 cycles
 E2(B2PLYPD3) =    -0.2264039507D+00 E(B2PLYPD3) =    -0.15592183786663D+03

 The electronic state is 1-A.
 Alpha  occ. eigenvalues --  -10.63415 -10.62809 -10.61848 -10.61026  -0.92473
 Alpha  occ. eigenvalues --   -0.84657  -0.70614  -0.64100  -0.54927  -0.53736
 Alpha  occ. eigenvalues --   -0.47121  -0.45276  -0.41448  -0.37555  -0.27457
 Alpha virt. eigenvalues --    0.01291   0.07066   0.07461   0.07998   0.09290
 Alpha virt. eigenvalues --    0.11576   0.12582   0.14726   0.15734   0.16385
 Alpha virt. eigenvalues --    0.18917   0.20211   0.21914   0.22949   0.23535

 Mulliken charges:
               1
     1  C   -0.177921
     2  C   -0.027199
     3  C   -0.043552
     4  C   -0.169707
     5  H    0.091345
     6  H    0.064508
     7  H    0.053137
     8  H    0.065123
     9  H    0.067723
    10  H    0.076544
 Sum of Mulliken charges =   0.00000

 Dipole moment (field-independent basis, Debye):
    X=             -0.0499    Y=             -0.0270    Z=              0.2222  Tot=              0.2293
 Quadrupole moment (field-independent basis, Debye-Ang):
   XX=            -23.2541   YY=            -23.1479   ZZ=            -29.3325
   XY=              0.2684   XZ=             -0.4039   YZ=              0.0986

 1\1\GINC-NODE04\SP\RB2PLYPD3-FC\def2QZVP\C4H6\BOITTIER\26-Aug-2020\0\\
 #p B2PLYPD3/Def2QZVP\\butadiene\\0,1\C,0,-3.866949,0.208402,0.041713\C
 ,0,-2.71815,-0.484018,0.00164\C,0,-1.377125,0.101869,0.010718\C,0,-0.2
 56693,-0.674355,0.062522\H,0,-4.812725,-0.260538,0.03656\H,0,-3.818117
 ,1.267222,0.052586\H,0,-2.786278,-1.583628,-0.007658\H,0,-1.277731,1.1
 70182,-0.18806\H,0,-0.221288,-1.743976,0.080751\H,0,0.721807,-0.258545
 ,-0.079622\\Version=ES64L-G09RevD.01\State=1-A\HF=-155.6954339\MP2=-15
 5.9218379\RMSD=7.602e-09\PG=C01 [X(C4H6)]\\@

 Normal termination of Gaussian 09 at Wed Aug 26 10:59:32 2020.
