 Gaussian 09, Revision D.01,
 Gaussian 09:  ES64L-G09RevD.01 24-Apr-2013

 --------------------
 #p B2PLYPD3/Def2QZVP
 --------------------

 ---------
 butadiene
 ---------
 Symbolic Z-matrix:
 Charge =  0 Multiplicity = 1

                         Standard orientation:
 ---------------------------------------------------------------------
 Center     Atomic      Atomic             Coordinates (Angstroms)
 Number     Number       Type             X           Y           Z
 ---------------------------------------------------------------------
      1          6           0       -1.830423   -0.115460    0.011120
      2          6           0       -0.603224    0.419597   -0.011998
      3          6           0        0.604024   -0.399052   -0.003564
      4          6           0        1.839908    0.107079    0.000116
      5          1           0       -2.763477    0.482696    0.024859
      6          1           0       -1.931203   -1.221920    0.024666
      7          1           0       -0.502836    1.499058   -0.073456
      8          1           0        0.458526   -1.472011   -0.041785
      9          1           0        2.006670    1.188953    0.084227
     10          1           0        2.670614   -0.549765    0.007445
 ---------------------------------------------------------------------

 SCF Done:  E(RB2PLYPD3) =  -155.698942269     A.U. after   11 cycles
 E2(B2PLYPD3) =    -0.2260906803D+00 E(B2PLYPD3) =    -0.15592503294924D+03

 The electronic state is 1-A.
 Alpha  occ. eigenvalues --  -10.62628 -10.62543 -10.62116 -10.61371  -0.92912
 Alpha  occ. eigenvalues --   -0.84775  -0.69681  -0.63989  -0.54424  -0.53773
 Alpha  occ. eigenvalues --   -0.46458  -0.45297  -0.41324  -0.38035  -0.27657
 Alpha virt. eigenvalues --    0.01814   0.07027   0.07321   0.08022   0.09417
 Alpha virt. eigenvalues --    0.11679   0.12402   0.14521   0.15873   0.16102
 Alpha virt. eigenvalues --    0.18692   0.20481   0.21331   0.22865   0.23961

 Mulliken charges:
               1
     1  C   -0.171766
     2  C   -0.031641
     3  C   -0.031160
     4  C   -0.178429
     5  H    0.085530
     6  H    0.059101
     7  H    0.057390
     8  H    0.055139
     9  H    0.068214
    10  H    0.087624
 Sum of Mulliken charges =   0.00000

 Dipole moment (field-independent basis, Debye):
    X=             -0.0125    Y=              0.0023    Z=              0.0169  Tot=              0.0212
 Quadrupole moment (field-independent basis, Debye-Ang):
   XX=            -23.6556   YY=            -23.0299   ZZ=            -29.3458
   XY=             -0.0211   XZ=              0.0907   YZ=              0.0499

 1\1\GINC-NODE35\SP\RB2PLYPD3-FC\def2QZVP\C4H6\BOITTIER\26-Aug-2020\0\\
 #p B2PLYPD3/Def2QZVP\\butadiene\\0,1\C,0,-3.833276,0.227242,0.0087\C,0
 ,-2.721591,-0.518076,0.04737\C,0,-1.387346,0.070676,0.01794\C,0,-0.262
 044,-0.648465,0.029048\H,0,-4.858377,-0.194344,0.010263\H,0,-3.734425,
 1.333104,-0.034799\H,0,-2.815806,-1.596034,0.138034\H,0,-1.338283,1.15
 298,0.027052\H,0,-0.291963,-1.744569,-0.025678\H,0,0.672785,-0.151399,
 0.004747\\Version=ES64L-G09RevD.01\State=1-A\HF=-155.6989423\MP2=-155.
 9250329\RMSD=3.718e-09\PG=C01 [X(C4H6)]\\@

 Normal termination of Gaussian 09 at Wed Aug 26 08:20:37 2020.
