 Gaussian 09, Revision D.01,
 Gaussian 09:  ES64L-G09RevD.01 24-Apr-2013

 --------------------
 #p B2PLYPD3/Def2QZVP
 --------------------

 ---------
 butadiene
 ---------
 Symbolic Z-matrix:
 Charge =  0 Multiplicity = 1

                         Standard orientation:
 ---------------------------------------------------------------------
 Center     Atomic      Atomic             Coordinates (Angstroms)
 Number     Number       Type             X           Y           Z
 ---------------------------------------------------------------------
      1          6           0        1.859526   -0.140980    0.032312
      2          6           0        0.634990    0.426050   -0.050185
      3          6           0       -0.629371   -0.376155   -0.092507
      4          6           0       -1.875161    0.078603    0.063561
      5          1           0        2.747075    0.524594    0.037358
      6          1           0        1.944777   -1.234879    0.208692
      7          1           0        0.541616    1.537193    0.026903
      8          1           0       -0.292717   -1.356576   -0.124789
      9          1           0       -2.084429    1.172958    0.011362
     10          1           0       -2.796227   -0.568400    0.121385
 ---------------------------------------------------------------------

 SCF Done:  E(RB2PLYPD3) =  -155.684051952     A.U. after   11 cycles
 E2(B2PLYPD3) =    -0.2273253635D+00 E(B2PLYPD3) =    -0.15591137731597D+03

 The electronic state is 1-A.
 Alpha  occ. eigenvalues --  -10.63412 -10.62808 -10.62659 -10.62576  -0.92350
 Alpha  occ. eigenvalues --   -0.84500  -0.69824  -0.63757  -0.54334  -0.52609
 Alpha  occ. eigenvalues --   -0.47318  -0.45442  -0.39952  -0.37451  -0.27905
 Alpha virt. eigenvalues --    0.01435   0.06869   0.07311   0.08040   0.09088
 Alpha virt. eigenvalues --    0.11653   0.12198   0.14265   0.15574   0.16059
 Alpha virt. eigenvalues --    0.18937   0.20137   0.21309   0.22511   0.23425

 Mulliken charges:
               1
     1  C   -0.184675
     2  C   -0.028154
     3  C   -0.041702
     4  C   -0.162954
     5  H    0.090015
     6  H    0.066037
     7  H    0.049113
     8  H    0.060399
     9  H    0.068152
    10  H    0.083767
 Sum of Mulliken charges =   0.00000

 Dipole moment (field-independent basis, Debye):
    X=              0.0021    Y=              0.0267    Z=              0.1652  Tot=              0.1674
 Quadrupole moment (field-independent basis, Debye-Ang):
   XX=            -23.4106   YY=            -23.4142   ZZ=            -29.4718
   XY=             -0.2144   XZ=              0.1751   YZ=             -0.1633

 1\1\GINC-NODE23\SP\RB2PLYPD3-FC\def2QZVP\C4H6\BOITTIER\26-Aug-2020\0\\
 #p B2PLYPD3/Def2QZVP\\butadiene\\0,1\C,0,-3.858497,0.251698,0.059572\C
 ,0,-2.75384,-0.524174,-0.015069\C,0,-1.367523,0.040913,-0.067366\C,0,-
 0.221611,-0.625157,0.095082\H,0,-4.849839,-0.246116,0.072957\H,0,-3.74
 8415,1.345593,0.22165\H,0,-2.858489,-1.633209,0.076526\H,0,-1.525366,1
 .064948,-0.112547\H,0,-0.209475,-1.739854,0.057227\H,0,0.799553,-0.150
 742,0.144817\\Version=ES64L-G09RevD.01\State=1-A\HF=-155.684052\MP2=-1
 55.9113773\RMSD=6.785e-09\PG=C01 [X(C4H6)]\\@

 Normal termination of Gaussian 09 at Wed Aug 26 14:24:13 2020.
