 Gaussian 09, Revision D.01,
 Gaussian 09:  ES64L-G09RevD.01 24-Apr-2013

 --------------------
 #p B2PLYPD3/Def2QZVP
 --------------------

 ---------
 butadiene
 ---------
 Symbolic Z-matrix:
 Charge =  0 Multiplicity = 1

                         Standard orientation:
 ---------------------------------------------------------------------
 Center     Atomic      Atomic             Coordinates (Angstroms)
 Number     Number       Type             X           Y           Z
 ---------------------------------------------------------------------
      1          6           0        1.833388    0.123032   -0.026621
      2          6           0        0.606070   -0.421145    0.025607
      3          6           0       -0.604011    0.393504    0.011053
      4          6           0       -1.835259   -0.102034   -0.011350
      5          1           0        2.728482   -0.499371    0.007587
      6          1           0        1.986148    1.201421   -0.059794
      7          1           0        0.506751   -1.485292    0.061624
      8          1           0       -0.476513    1.474612    0.102126
      9          1           0       -1.990630   -1.154504   -0.072412
     10          1           0       -2.755362    0.502990   -0.031266
 ---------------------------------------------------------------------

 SCF Done:  E(RB2PLYPD3) =  -155.699903722     A.U. after   11 cycles
 E2(B2PLYPD3) =    -0.2257544440D+00 E(B2PLYPD3) =    -0.15592565816642D+03

 The electronic state is 1-A.
 Alpha  occ. eigenvalues --  -10.62626 -10.62518 -10.61808 -10.61341  -0.92945
 Alpha  occ. eigenvalues --   -0.84839  -0.69871  -0.64341  -0.54485  -0.53936
 Alpha  occ. eigenvalues --   -0.46675  -0.45372  -0.41222  -0.38033  -0.27705
 Alpha virt. eigenvalues --    0.01817   0.07016   0.07452   0.07999   0.09463
 Alpha virt. eigenvalues --    0.11639   0.12514   0.14593   0.15788   0.16315
 Alpha virt. eigenvalues --    0.18811   0.20279   0.21804   0.22824   0.23671

 Mulliken charges:
               1
     1  C   -0.171869
     2  C   -0.041990
     3  C   -0.025567
     4  C   -0.173461
     5  H    0.082698
     6  H    0.066897
     7  H    0.061621
     8  H    0.056911
     9  H    0.062234
    10  H    0.082526
 Sum of Mulliken charges =   0.00000

 Dipole moment (field-independent basis, Debye):
    X=              0.0118    Y=             -0.0277    Z=              0.0290  Tot=              0.0419
 Quadrupole moment (field-independent basis, Debye-Ang):
   XX=            -23.4176   YY=            -23.1204   ZZ=            -29.2759
   XY=              0.1312   XZ=              0.1204   YZ=              0.0407

 1\1\GINC-NODE36\SP\RB2PLYPD3-FC\def2QZVP\C4H6\BOITTIER\26-Aug-2020\0\\
 #p B2PLYPD3/Def2QZVP\\butadiene\\0,1\C,0,-3.833864,0.233897,0.041473\C
 ,0,-2.723247,-0.521567,0.01034\C,0,-1.387384,0.064573,0.00211\C,0,-0.2
 64019,-0.64135,0.044012\H,0,-4.825596,-0.219907,0.024769\H,0,-3.792018
 ,1.322752,0.039434\H,0,-2.815152,-1.586988,0.008924\H,0,-1.320557,1.14
 7599,-0.124125\H,0,-0.298405,-1.702142,0.139409\H,0,0.749185,-0.209553
 ,0.047064\\Version=ES64L-G09RevD.01\State=1-A\HF=-155.6999037\MP2=-155
 .9256582\RMSD=5.792e-09\PG=C01 [X(C4H6)]\\@

 Normal termination of Gaussian 09 at Wed Aug 26 18:45:45 2020.
