 Gaussian 09, Revision D.01,
 Gaussian 09:  ES64L-G09RevD.01 24-Apr-2013

 --------------------
 #p B2PLYPD3/Def2QZVP
 --------------------

 ---------
 butadiene
 ---------
 Symbolic Z-matrix:
 Charge =  0 Multiplicity = 1

                         Standard orientation:
 ---------------------------------------------------------------------
 Center     Atomic      Atomic             Coordinates (Angstroms)
 Number     Number       Type             X           Y           Z
 ---------------------------------------------------------------------
      1          6           0        1.852404   -0.103716    0.012676
      2          6           0        0.609233    0.382514   -0.021361
      3          6           0       -0.610727   -0.416450   -0.026873
      4          6           0       -1.844784    0.117228    0.020693
      5          1           0        2.696920    0.580317    0.042551
      6          1           0        2.008604   -1.159324   -0.004358
      7          1           0        0.463334    1.448936    0.017618
      8          1           0       -0.459892   -1.482734    0.027389
      9          1           0       -1.972565    1.218591   -0.021480
     10          1           0       -2.773157   -0.483242    0.027468
 ---------------------------------------------------------------------

 SCF Done:  E(RB2PLYPD3) =  -155.699099547     A.U. after   11 cycles
 E2(B2PLYPD3) =    -0.2261176921D+00 E(B2PLYPD3) =    -0.15592521723892D+03

 The electronic state is 1-A.
 Alpha  occ. eigenvalues --  -10.62765 -10.62373 -10.62353 -10.61409  -0.92861
 Alpha  occ. eigenvalues --   -0.84738  -0.69973  -0.64184  -0.54338  -0.53782
 Alpha  occ. eigenvalues --   -0.46746  -0.45555  -0.41072  -0.38005  -0.27677
 Alpha virt. eigenvalues --    0.01594   0.06965   0.07422   0.08048   0.09527
 Alpha virt. eigenvalues --    0.11687   0.12393   0.14596   0.15819   0.16010
 Alpha virt. eigenvalues --    0.18768   0.20362   0.21444   0.22946   0.23918

 Mulliken charges:
               1
     1  C   -0.183373
     2  C   -0.021151
     3  C   -0.038831
     4  C   -0.170360
     5  H    0.088816
     6  H    0.068443
     7  H    0.052115
     8  H    0.056183
     9  H    0.062383
    10  H    0.085773
 Sum of Mulliken charges =   0.00000

 Dipole moment (field-independent basis, Debye):
    X=             -0.0261    Y=             -0.0046    Z=              0.0443  Tot=              0.0517
 Quadrupole moment (field-independent basis, Debye-Ang):
   XX=            -23.4900   YY=            -23.1458   ZZ=            -29.3526
   XY=             -0.0848   XZ=              0.0692   YZ=             -0.0233

 1\1\GINC-NODE32\SP\RB2PLYPD3-FC\def2QZVP\C4H6\BOITTIER\26-Aug-2020\0\\
 #p B2PLYPD3/Def2QZVP\\butadiene\\0,1\C,0,-3.855921,0.21638,0.034243\C,
 0,-2.719775,-0.484957,0.0155\C,0,-1.376723,0.082644,-0.011303\C,0,-0.2
 57701,-0.661428,0.052862\H,0,-4.808942,-0.304597,0.08257\H,0,-3.821064
 ,1.282002,-0.012984\H,0,-2.766613,-1.558755,0.084959\H,0,-1.3344,1.159
 817,0.012439\H,0,-0.328928,-1.768641,0.042174\H,0,0.76304,-0.236589,0.
 043644\\Version=ES64L-G09RevD.01\State=1-A\HF=-155.6990995\MP2=-155.92
 52172\RMSD=3.975e-09\PG=C01 [X(C4H6)]\\@

 Normal termination of Gaussian 09 at Wed Aug 26 21:45:55 2020.
