 Gaussian 09, Revision D.01,
 Gaussian 09:  ES64L-G09RevD.01 24-Apr-2013

 --------------------
 #p B2PLYPD3/Def2QZVP
 --------------------

 ---------
 butadiene
 ---------
 Symbolic Z-matrix:
 Charge =  0 Multiplicity = 1

                         Standard orientation:
 ---------------------------------------------------------------------
 Center     Atomic      Atomic             Coordinates (Angstroms)
 Number     Number       Type             X           Y           Z
 ---------------------------------------------------------------------
      1          6           0       -1.837199   -0.148852   -0.070081
      2          6           0       -0.617491    0.496173    0.028258
      3          6           0        0.582019   -0.398015    0.081763
      4          6           0        1.821430    0.094871   -0.062128
      5          1           0       -2.792125    0.396162   -0.048239
      6          1           0       -1.806513   -1.260223   -0.088924
      7          1           0       -0.367398    1.523493    0.319499
      8          1           0        0.482293   -1.408370    0.203931
      9          1           0        2.075966    1.086845   -0.213766
     10          1           0        2.715221   -0.602966   -0.039373
 ---------------------------------------------------------------------

 SCF Done:  E(RB2PLYPD3) =  -155.679720065     A.U. after   12 cycles
 E2(B2PLYPD3) =    -0.2276301943D+00 E(B2PLYPD3) =    -0.15590735025895D+03

 The electronic state is 1-A.
 Alpha  occ. eigenvalues --  -10.63910 -10.63026 -10.62070 -10.61278  -0.92289
 Alpha  occ. eigenvalues --   -0.83919  -0.69399  -0.65280  -0.54211  -0.52809
 Alpha  occ. eigenvalues --   -0.47062  -0.45972  -0.40778  -0.36784  -0.27398
 Alpha virt. eigenvalues --    0.01594   0.07014   0.07310   0.07738   0.08719
 Alpha virt. eigenvalues --    0.11585   0.12476   0.14495   0.15133   0.16336
 Alpha virt. eigenvalues --    0.18558   0.19811   0.21724   0.22153   0.24247

 Mulliken charges:
               1
     1  C   -0.173749
     2  C   -0.058428
     3  C   -0.032403
     4  C   -0.179655
     5  H    0.087334
     6  H    0.069527
     7  H    0.078184
     8  H    0.072748
     9  H    0.070623
    10  H    0.065818
 Sum of Mulliken charges =   0.00000

 Dipole moment (field-independent basis, Debye):
    X=             -0.0301    Y=              0.0091    Z=              0.2044  Tot=              0.2068
 Quadrupole moment (field-independent basis, Debye-Ang):
   XX=            -23.9694   YY=            -23.0209   ZZ=            -29.3808
   XY=              0.4128   XZ=             -0.3299   YZ=              0.0498

 1\1\GINC-NODE10\SP\RB2PLYPD3-FC\def2QZVP\C4H6\BOITTIER\26-Aug-2020\0\\
 #p B2PLYPD3/Def2QZVP\\butadiene\\0,1\C,0,-3.825221,0.267499,0.0814\C,0
 ,-2.742028,-0.588422,-0.005258\C,0,-1.400468,0.073542,-0.062515\C,0,-0
 .270974,-0.633755,0.091611\H,0,-4.862904,-0.096084,0.060886\H,0,-3.594
 113,1.355142,0.089296\H,0,-2.681127,-1.647052,-0.285166\H,0,-1.315547,
 1.083927,-0.195176\H,0,-0.200386,-1.65374,0.254222\H,0,0.734327,-0.109
 295,0.065745\\Version=ES64L-G09RevD.01\State=1-A\HF=-155.6797201\MP2=-
 155.9073503\RMSD=3.001e-09\PG=C01 [X(C4H6)]\\@

 Normal termination of Gaussian 09 at Wed Aug 26 14:31:26 2020.
