 Gaussian 09, Revision D.01,
 Gaussian 09:  ES64L-G09RevD.01 24-Apr-2013

 --------------------
 #p B2PLYPD3/Def2QZVP
 --------------------

 ---------
 butadiene
 ---------
 Symbolic Z-matrix:
 Charge =  0 Multiplicity = 1

                         Standard orientation:
 ---------------------------------------------------------------------
 Center     Atomic      Atomic             Coordinates (Angstroms)
 Number     Number       Type             X           Y           Z
 ---------------------------------------------------------------------
      1          6           0       -1.842504   -0.121057    0.040827
      2          6           0       -0.628819    0.409480   -0.021020
      3          6           0        0.613136   -0.395583   -0.057841
      4          6           0        1.860492    0.105319    0.035435
      5          1           0       -2.689666    0.524931   -0.049055
      6          1           0       -1.989692   -1.212105    0.100944
      7          1           0       -0.516562    1.519957   -0.111647
      8          1           0        0.417737   -1.450829   -0.041735
      9          1           0        2.017024    1.164825    0.142074
     10          1           0        2.747328   -0.535733   -0.024982
 ---------------------------------------------------------------------

 SCF Done:  E(RB2PLYPD3) =  -155.697137353     A.U. after   11 cycles
 E2(B2PLYPD3) =    -0.2260754751D+00 E(B2PLYPD3) =    -0.15592321282769D+03

 The electronic state is 1-A.
 Alpha  occ. eigenvalues --  -10.62894 -10.62818 -10.61899 -10.61511  -0.92538
 Alpha  occ. eigenvalues --   -0.84898  -0.69904  -0.63658  -0.54399  -0.53613
 Alpha  occ. eigenvalues --   -0.46871  -0.45786  -0.40686  -0.37685  -0.27873
 Alpha virt. eigenvalues --    0.01733   0.07009   0.07340   0.08023   0.09437
 Alpha virt. eigenvalues --    0.11685   0.12306   0.14635   0.15578   0.16148
 Alpha virt. eigenvalues --    0.18945   0.20132   0.21499   0.22660   0.23815

 Mulliken charges:
               1
     1  C   -0.178132
     2  C   -0.025640
     3  C   -0.040842
     4  C   -0.173575
     5  H    0.088982
     6  H    0.064946
     7  H    0.049309
     8  H    0.058139
     9  H    0.069105
    10  H    0.087707
 Sum of Mulliken charges =   0.00000

 Dipole moment (field-independent basis, Debye):
    X=             -0.0259    Y=              0.0016    Z=             -0.0323  Tot=              0.0415
 Quadrupole moment (field-independent basis, Debye-Ang):
   XX=            -23.5362   YY=            -23.1164   ZZ=            -29.3368
   XY=              0.1739   XZ=              0.2365   YZ=             -0.0661

 1\1\GINC-NODE09\SP\RB2PLYPD3-FC\def2QZVP\C4H6\BOITTIER\26-Aug-2020\0\\
 #p B2PLYPD3/Def2QZVP\\butadiene\\0,1\C,0,-3.844458,0.228948,-0.020101\
 C,0,-2.743565,-0.505691,0.061545\C,0,-1.378419,0.067255,0.068069\C,0,-
 0.240178,-0.649935,-0.006412\H,0,-4.792035,-0.252862,0.093999\H,0,-3.7
 9644,1.325833,-0.121105\H,0,-2.829198,-1.614365,0.193768\H,0,-1.383896
 ,1.139101,0.012392\H,0,-0.27453,-1.723612,-0.073231\H,0,0.746578,-0.17
 4464,0.029864\\Version=ES64L-G09RevD.01\State=1-A\HF=-155.6971374\MP2=
 -155.9232128\RMSD=6.580e-09\PG=C01 [X(C4H6)]\\@

 Normal termination of Gaussian 09 at Wed Aug 26 22:22:12 2020.
