 Gaussian 09, Revision D.01,
 Gaussian 09:  ES64L-G09RevD.01 24-Apr-2013

 --------------------
 #p B2PLYPD3/Def2QZVP
 --------------------

 ---------
 butadiene
 ---------
 Symbolic Z-matrix:
 Charge =  0 Multiplicity = 1

                         Standard orientation:
 ---------------------------------------------------------------------
 Center     Atomic      Atomic             Coordinates (Angstroms)
 Number     Number       Type             X           Y           Z
 ---------------------------------------------------------------------
      1          6           0       -1.811466   -0.131210    0.026358
      2          6           0       -0.600368    0.435530   -0.023248
      3          6           0        0.596868   -0.379553   -0.057747
      4          6           0        1.834050    0.087649    0.021483
      5          1           0       -2.694436    0.464665    0.112045
      6          1           0       -1.998912   -1.199573    0.050074
      7          1           0       -0.564261    1.520487   -0.106691
      8          1           0        0.400614   -1.440612   -0.076885
      9          1           0        2.060268    1.174303    0.072971
     10          1           0        2.682224   -0.593767    0.147411
 ---------------------------------------------------------------------

 SCF Done:  E(RB2PLYPD3) =  -155.697968608     A.U. after   11 cycles
 E2(B2PLYPD3) =    -0.2257715644D+00 E(B2PLYPD3) =    -0.15592374017204D+03

 The electronic state is 1-A.
 Alpha  occ. eigenvalues --  -10.62574 -10.62294 -10.61687 -10.61363  -0.93161
 Alpha  occ. eigenvalues --   -0.84878  -0.69981  -0.64114  -0.54568  -0.53867
 Alpha  occ. eigenvalues --   -0.46550  -0.45284  -0.41249  -0.38117  -0.27658
 Alpha virt. eigenvalues --    0.01883   0.07035   0.07361   0.08016   0.09487
 Alpha virt. eigenvalues --    0.11620   0.12390   0.14749   0.15780   0.16235
 Alpha virt. eigenvalues --    0.18778   0.20438   0.21525   0.22994   0.23596

 Mulliken charges:
               1
     1  C   -0.174671
     2  C   -0.031592
     3  C   -0.033672
     4  C   -0.171187
     5  H    0.078589
     6  H    0.063352
     7  H    0.061764
     8  H    0.059744
     9  H    0.065535
    10  H    0.082139
 Sum of Mulliken charges =   0.00000

 Dipole moment (field-independent basis, Debye):
    X=             -0.0962    Y=             -0.0046    Z=              0.1231  Tot=              0.1563
 Quadrupole moment (field-independent basis, Debye-Ang):
   XX=            -23.6605   YY=            -23.0119   ZZ=            -29.2142
   XY=              0.2402   XZ=              0.2138   YZ=             -0.0787

 1\1\GINC-NODE10\SP\RB2PLYPD3-FC\def2QZVP\C4H6\BOITTIER\26-Aug-2020\0\\
 #p B2PLYPD3/Def2QZVP\\butadiene\\0,1\C,0,-3.811089,0.245289,-0.010253\
 C,0,-2.723647,-0.531058,0.061656\C,0,-1.397394,0.052012,0.064202\C,0,-
 0.267034,-0.636298,0.003467\H,0,-4.788678,-0.181894,-0.072534\H,0,-3.8
 00283,1.328187,-0.075919\H,0,-2.885847,-1.600271,0.187645\H,0,-1.39627
 8,1.131001,0.041642\H,0,-0.243599,-1.747161,-0.005291\H,0,0.690475,-0.
 126891,-0.149065\\Version=ES64L-G09RevD.01\State=1-A\HF=-155.6979686\M
 P2=-155.9237402\RMSD=6.534e-09\PG=C01 [X(C4H6)]\\@

 Normal termination of Gaussian 09 at Wed Aug 26 10:56:23 2020.
