 Gaussian 09, Revision D.01,
 Gaussian 09:  ES64L-G09RevD.01 24-Apr-2013

 --------------------
 #p B2PLYPD3/Def2QZVP
 --------------------

 ---------
 butadiene
 ---------
 Symbolic Z-matrix:
 Charge =  0 Multiplicity = 1

                         Standard orientation:
 ---------------------------------------------------------------------
 Center     Atomic      Atomic             Coordinates (Angstroms)
 Number     Number       Type             X           Y           Z
 ---------------------------------------------------------------------
      1          6           0       -1.853915   -0.115123    0.011560
      2          6           0       -0.601154    0.408503   -0.036671
      3          6           0        0.611362   -0.371535    0.010609
      4          6           0        1.855004    0.099410   -0.005649
      5          1           0       -2.698553    0.504522   -0.011897
      6          1           0       -2.026916   -1.203158    0.088615
      7          1           0       -0.465666    1.497028    0.003940
      8          1           0        0.450705   -1.435314   -0.060493
      9          1           0        2.059618    1.111249    0.119908
     10          1           0        2.613035   -0.601857   -0.019164
 ---------------------------------------------------------------------

 SCF Done:  E(RB2PLYPD3) =  -155.694761327     A.U. after   11 cycles
 E2(B2PLYPD3) =    -0.2257580118D+00 E(B2PLYPD3) =    -0.15592051933906D+03

 The electronic state is 1-A.
 Alpha  occ. eigenvalues --  -10.62868 -10.62101 -10.61868 -10.60436  -0.93007
 Alpha  occ. eigenvalues --   -0.85057  -0.71103  -0.63999  -0.54985  -0.54324
 Alpha  occ. eigenvalues --   -0.46682  -0.46420  -0.41238  -0.38013  -0.27480
 Alpha virt. eigenvalues --    0.01289   0.07054   0.07489   0.08171   0.09678
 Alpha virt. eigenvalues --    0.11706   0.12386   0.15010   0.15635   0.16300
 Alpha virt. eigenvalues --    0.18775   0.20021   0.22043   0.22848   0.23987

 Mulliken charges:
               1
     1  C   -0.178408
     2  C   -0.036737
     3  C   -0.019449
     4  C   -0.182839
     5  H    0.090815
     6  H    0.065318
     7  H    0.050683
     8  H    0.050686
     9  H    0.072969
    10  H    0.086961
 Sum of Mulliken charges =   0.00000

 Dipole moment (field-independent basis, Debye):
    X=             -0.0214    Y=              0.0037    Z=              0.1087  Tot=              0.1108
 Quadrupole moment (field-independent basis, Debye-Ang):
   XX=            -23.4644   YY=            -23.0793   ZZ=            -29.1918
   XY=              0.2005   XZ=             -0.0007   YZ=              0.1437

 1\1\GINC-NODE27\SP\RB2PLYPD3-FC\def2QZVP\C4H6\BOITTIER\26-Aug-2020\0\\
 #p B2PLYPD3/Def2QZVP\\butadiene\\0,1\C,0,-3.854462,0.239262,0.006024\C
 ,0,-2.718591,-0.503733,0.066653\C,0,-1.3839,0.040113,0.005659\C,0,-0.2
 4742,-0.65007,0.033253\H,0,-4.798186,-0.214738,0.040562\H,0,-3.825579,
 1.338825,-0.093039\H,0,-2.784694,-1.599259,0.048026\H,0,-1.347004,1.11
 653,0.055226\H,0,-0.231713,-1.684565,-0.07173\H,0,0.626177,-0.099255,0
 .033914\\Version=ES64L-G09RevD.01\State=1-A\HF=-155.6947613\MP2=-155.9
 205193\RMSD=7.162e-09\PG=C01 [X(C4H6)]\\@

 Normal termination of Gaussian 09 at Wed Aug 26 10:09:27 2020.
