 Gaussian 09, Revision D.01,
 Gaussian 09:  ES64L-G09RevD.01 24-Apr-2013

 --------------------
 #p B2PLYPD3/Def2QZVP
 --------------------

 ---------
 butadiene
 ---------
 Symbolic Z-matrix:
 Charge =  0 Multiplicity = 1

                         Standard orientation:
 ---------------------------------------------------------------------
 Center     Atomic      Atomic             Coordinates (Angstroms)
 Number     Number       Type             X           Y           Z
 ---------------------------------------------------------------------
      1          6           0       -1.843585    0.086185   -0.050987
      2          6           0       -0.580653   -0.376874    0.018353
      3          6           0        0.632272    0.433629    0.086322
      4          6           0        1.814872   -0.117345   -0.097201
      5          1           0       -2.659727   -0.546001   -0.017220
      6          1           0       -2.018742    1.149878   -0.147818
      7          1           0       -0.375354   -1.425406    0.272419
      8          1           0        0.440435    1.547753    0.197236
      9          1           0        1.693886   -1.261865   -0.021340
     10          1           0        2.782067    0.382068   -0.022196
 ---------------------------------------------------------------------

 SCF Done:  E(RB2PLYPD3) =  -155.682912771     A.U. after   12 cycles
 E2(B2PLYPD3) =    -0.2270480389D+00 E(B2PLYPD3) =    -0.15590996081009D+03

 The electronic state is 1-A.
 Alpha  occ. eigenvalues --  -10.62946 -10.62788 -10.62237 -10.61229  -0.93236
 Alpha  occ. eigenvalues --   -0.84997  -0.70005  -0.63205  -0.55295  -0.52969
 Alpha  occ. eigenvalues --   -0.47552  -0.44495  -0.40987  -0.37409  -0.28024
 Alpha virt. eigenvalues --    0.01675   0.06956   0.07213   0.08033   0.09276
 Alpha virt. eigenvalues --    0.11600   0.12684   0.14312   0.15232   0.16341
 Alpha virt. eigenvalues --    0.18496   0.19449   0.21452   0.22219   0.24603

 Mulliken charges:
               1
     1  C   -0.194139
     2  C   -0.016634
     3  C   -0.032867
     4  C   -0.151090
     5  H    0.094044
     6  H    0.066896
     7  H    0.050293
     8  H    0.045131
     9  H    0.046487
    10  H    0.091879
 Sum of Mulliken charges =   0.00000

 Dipole moment (field-independent basis, Debye):
    X=             -0.0068    Y=              0.0931    Z=              0.3029  Tot=              0.3170
 Quadrupole moment (field-independent basis, Debye-Ang):
   XX=            -23.4461   YY=            -23.5862   ZZ=            -29.2280
   XY=              0.1422   XZ=              0.2055   YZ=             -0.2961

 1\1\GINC-NODE40\SP\RB2PLYPD3-FC\def2QZVP\C4H6\BOITTIER\26-Aug-2020\0\\
 #p B2PLYPD3/Def2QZVP\\butadiene\\0,1\C,0,-3.853478,0.197734,-0.032158\
 C,0,-2.694447,-0.482028,0.061648\C,0,-1.35521,0.098869,0.103207\C,0,-0
 .29164,-0.662943,-0.052541\H,0,-4.770059,-0.275289,0.022767\H,0,-3.834
 407,1.270844,-0.172049\H,0,-2.68076,-1.539379,0.35819\H,0,-1.342964,1.
 232854,0.168809\H,0,-0.616618,-1.763004,0.068178\H,0,0.749869,-0.34326
 7,0.007229\\Version=ES64L-G09RevD.01\State=1-A\HF=-155.6829128\MP2=-15
 5.9099608\RMSD=3.587e-09\PG=C01 [X(C4H6)]\\@

 Normal termination of Gaussian 09 at Wed Aug 26 14:20:43 2020.
