 Gaussian 09, Revision D.01,
 Gaussian 09:  ES64L-G09RevD.01 24-Apr-2013

 --------------------
 #p B2PLYPD3/Def2QZVP
 --------------------

 ---------
 butadiene
 ---------
 Symbolic Z-matrix:
 Charge =  0 Multiplicity = 1

                         Standard orientation:
 ---------------------------------------------------------------------
 Center     Atomic      Atomic             Coordinates (Angstroms)
 Number     Number       Type             X           Y           Z
 ---------------------------------------------------------------------
      1          6           0        1.833547   -0.134372   -0.021233
      2          6           0        0.617586    0.416560    0.007632
      3          6           0       -0.598633   -0.379973    0.057590
      4          6           0       -1.850585    0.090045   -0.040597
      5          1           0        2.718960    0.481520    0.024836
      6          1           0        1.940420   -1.198954   -0.075635
      7          1           0        0.593277    1.523612    0.047977
      8          1           0       -0.477390   -1.421011   -0.002965
      9          1           0       -2.044328    1.172012   -0.041810
     10          1           0       -2.742427   -0.510732    0.027249
 ---------------------------------------------------------------------

 SCF Done:  E(RB2PLYPD3) =  -155.696808687     A.U. after   11 cycles
 E2(B2PLYPD3) =    -0.2259032574D+00 E(B2PLYPD3) =    -0.15592271194466D+03

 The electronic state is 1-A.
 Alpha  occ. eigenvalues --  -10.62780 -10.62384 -10.61696 -10.61367  -0.92970
 Alpha  occ. eigenvalues --   -0.84975  -0.70113  -0.64231  -0.54677  -0.54160
 Alpha  occ. eigenvalues --   -0.46551  -0.45246  -0.41402  -0.38026  -0.27677
 Alpha virt. eigenvalues --    0.01588   0.07029   0.07535   0.07962   0.09515
 Alpha virt. eigenvalues --    0.11629   0.12525   0.14574   0.15660   0.16487
 Alpha virt. eigenvalues --    0.18917   0.19907   0.21876   0.22700   0.23863

 Mulliken charges:
               1
     1  C   -0.176361
     2  C   -0.024701
     3  C   -0.043261
     4  C   -0.166505
     5  H    0.085906
     6  H    0.065623
     7  H    0.053387
     8  H    0.063730
     9  H    0.058665
    10  H    0.083517
 Sum of Mulliken charges =   0.00000

 Dipole moment (field-independent basis, Debye):
    X=              0.0394    Y=             -0.0144    Z=              0.0285  Tot=              0.0507
 Quadrupole moment (field-independent basis, Debye-Ang):
   XX=            -23.3027   YY=            -23.1820   ZZ=            -29.2663
   XY=              0.0793   XZ=             -0.0073   YZ=              0.1346

 1\1\GINC-NODE26\SP\RB2PLYPD3-FC\def2QZVP\C4H6\BOITTIER\26-Aug-2020\0\\
 #p B2PLYPD3/Def2QZVP\\butadiene\\0,1\C,0,-3.833638,0.236597,-0.005668\
 C,0,-2.732897,-0.517279,0.048743\C,0,-1.395657,0.055077,0.06733\C,0,-0
 .246006,-0.630844,-0.008546\H,0,-4.81301,-0.212049,0.064686\H,0,-3.752
 6,1.300198,-0.105177\H,0,-2.90274,-1.608769,0.135844\H,0,-1.332926,1.0
 97781,-0.037359\H,0,-0.244874,-1.729106,0.036297\H,0,0.737677,-0.19342
 ,0.035564\\Version=ES64L-G09RevD.01\State=1-A\HF=-155.6968087\MP2=-155
 .9227119\RMSD=4.780e-09\PG=C01 [X(C4H6)]\\@

 Normal termination of Gaussian 09 at Wed Aug 26 08:42:20 2020.
