 Gaussian 09, Revision D.01,
 Gaussian 09:  ES64L-G09RevD.01 24-Apr-2013

 --------------------
 #p B2PLYPD3/Def2QZVP
 --------------------

 ---------
 butadiene
 ---------
 Symbolic Z-matrix:
 Charge =  0 Multiplicity = 1

                         Standard orientation:
 ---------------------------------------------------------------------
 Center     Atomic      Atomic             Coordinates (Angstroms)
 Number     Number       Type             X           Y           Z
 ---------------------------------------------------------------------
      1          6           0       -1.806871    0.086010    0.068881
      2          6           0       -0.594933   -0.389097   -0.066226
      3          6           0        0.574335    0.446976   -0.109655
      4          6           0        1.795993   -0.146508    0.091022
      5          1           0       -2.602471   -0.572968    0.171762
      6          1           0       -1.974394    1.113203    0.022408
      7          1           0       -0.424710   -1.446199   -0.120368
      8          1           0        0.415759    1.570224   -0.093011
      9          1           0        2.042209   -1.150115   -0.103929
     10          1           0        2.732468    0.501565    0.219004
 ---------------------------------------------------------------------

 SCF Done:  E(RB2PLYPD3) =  -155.683388617     A.U. after   12 cycles
 E2(B2PLYPD3) =    -0.2265576157D+00 E(B2PLYPD3) =    -0.15590994623300D+03

 The electronic state is 1-A.
 Alpha  occ. eigenvalues --  -10.63689 -10.62409 -10.61647 -10.59867  -0.93493
 Alpha  occ. eigenvalues --   -0.84637  -0.70310  -0.64332  -0.55268  -0.53386
 Alpha  occ. eigenvalues --   -0.46877  -0.45332  -0.41441  -0.38006  -0.27215
 Alpha virt. eigenvalues --    0.01517   0.06999   0.07256   0.08091   0.09130
 Alpha virt. eigenvalues --    0.11784   0.12481   0.14981   0.15820   0.16269
 Alpha virt. eigenvalues --    0.18556   0.19840   0.21969   0.23346   0.24203

 Mulliken charges:
               1
     1  C   -0.184834
     2  C   -0.008698
     3  C   -0.042007
     4  C   -0.174212
     5  H    0.085089
     6  H    0.066481
     7  H    0.055476
     8  H    0.059420
     9  H    0.080723
    10  H    0.062563
 Sum of Mulliken charges =   0.00000

 Dipole moment (field-independent basis, Debye):
    X=             -0.0109    Y=             -0.0493    Z=             -0.0724  Tot=              0.0883
 Quadrupole moment (field-independent basis, Debye-Ang):
   XX=            -24.0177   YY=            -22.9293   ZZ=            -29.1504
   XY=             -0.4937   XZ=             -0.1208   YZ=              0.1909

 1\1\GINC-NODE25\SP\RB2PLYPD3-FC\def2QZVP\C4H6\BOITTIER\26-Aug-2020\0\\
 #p B2PLYPD3/Def2QZVP\\butadiene\\0,1\C,0,-3.80688,0.211322,0.090499\C,
 0,-2.706367,-0.486583,-0.030224\C,0,-1.400964,0.113305,-0.094638\C,0,-
 0.311878,-0.693695,0.123498\H,0,-4.711764,-0.283356,0.210057\H,0,-3.77
 8521,1.250082,0.016188\H,0,-2.738078,-1.557899,-0.055684\H,0,-1.345523
 ,1.246374,-0.108428\H,0,-0.259432,-1.730531,-0.044061\H,0,0.730198,-0.
 230052,0.235194\\Version=ES64L-G09RevD.01\State=1-A\HF=-155.6833886\MP
 2=-155.9099462\RMSD=4.085e-09\PG=C01 [X(C4H6)]\\@

 Normal termination of Gaussian 09 at Wed Aug 26 13:58:23 2020.
