 Gaussian 09, Revision D.01,
 Gaussian 09:  ES64L-G09RevD.01 24-Apr-2013

 --------------------
 #p B2PLYPD3/Def2QZVP
 --------------------

 ---------
 butadiene
 ---------
 Symbolic Z-matrix:
 Charge =  0 Multiplicity = 1

                         Standard orientation:
 ---------------------------------------------------------------------
 Center     Atomic      Atomic             Coordinates (Angstroms)
 Number     Number       Type             X           Y           Z
 ---------------------------------------------------------------------
      1          6           0       -1.882768    0.106894   -0.075816
      2          6           0       -0.633832   -0.355910    0.097091
      3          6           0        0.632858    0.434601    0.024377
      4          6           0        1.830782   -0.157766   -0.024470
      5          1           0       -2.667394   -0.624911    0.002692
      6          1           0       -1.975727    1.170710   -0.007824
      7          1           0       -0.434560   -1.474512    0.004308
      8          1           0        0.690368    1.577037    0.033902
      9          1           0        1.899521   -1.258903   -0.119834
     10          1           0        2.805545    0.443663   -0.040341
 ---------------------------------------------------------------------

 SCF Done:  E(RB2PLYPD3) =  -155.682258367     A.U. after   11 cycles
 E2(B2PLYPD3) =    -0.2277139389D+00 E(B2PLYPD3) =    -0.15590997230627D+03

 The electronic state is 1-A.
 Alpha  occ. eigenvalues --  -10.63684 -10.63578 -10.62559 -10.61569  -0.92237
 Alpha  occ. eigenvalues --   -0.85035  -0.68920  -0.62761  -0.54512  -0.52988
 Alpha  occ. eigenvalues --   -0.45952  -0.44784  -0.40601  -0.37643  -0.28067
 Alpha virt. eigenvalues --    0.01613   0.06938   0.07099   0.07746   0.09109
 Alpha virt. eigenvalues --    0.11648   0.12211   0.14160   0.15452   0.16225
 Alpha virt. eigenvalues --    0.18817   0.19431   0.21006   0.22824   0.24058

 Mulliken charges:
               1
     1  C   -0.175812
     2  C   -0.026450
     3  C   -0.034258
     4  C   -0.166771
     5  H    0.092330
     6  H    0.076806
     7  H    0.045123
     8  H    0.047196
     9  H    0.061127
    10  H    0.080708
 Sum of Mulliken charges =   0.00000

 Dipole moment (field-independent basis, Debye):
    X=              0.0968    Y=              0.0035    Z=             -0.0285  Tot=              0.1010
 Quadrupole moment (field-independent basis, Debye-Ang):
   XX=            -23.8300   YY=            -23.1056   ZZ=            -29.5631
   XY=              0.3470   XZ=             -0.2788   YZ=              0.1948

 1\1\GINC-NODE07\SP\RB2PLYPD3-FC\def2QZVP\C4H6\BOITTIER\26-Aug-2020\0\\
 #p B2PLYPD3/Def2QZVP\\butadiene\\0,1\C,0,-3.886599,0.19605,-0.052137\C
 ,0,-2.73031,-0.464511,0.122733\C,0,-1.351116,0.106665,0.043471\C,0,-0.
 266882,-0.674765,-0.002481\H,0,-4.780623,-0.396378,0.032068\H,0,-3.803
 395,1.261105,0.008726\H,0,-2.717697,-1.601234,0.037351\H,0,-1.106691,1
 .224167,0.045194\H,0,-0.380165,-1.772832,-0.09044\H,0,0.793405,-0.2417
 66,-0.023345\\Version=ES64L-G09RevD.01\State=1-A\HF=-155.6822584\MP2=-
 155.9099723\RMSD=9.391e-09\PG=C01 [X(C4H6)]\\@

 Normal termination of Gaussian 09 at Wed Aug 26 15:53:16 2020.
