 Gaussian 09, Revision D.01,
 Gaussian 09:  ES64L-G09RevD.01 24-Apr-2013

 --------------------
 #p B2PLYPD3/Def2QZVP
 --------------------

 ---------
 butadiene
 ---------
 Symbolic Z-matrix:
 Charge =  0 Multiplicity = 1

                         Standard orientation:
 ---------------------------------------------------------------------
 Center     Atomic      Atomic             Coordinates (Angstroms)
 Number     Number       Type             X           Y           Z
 ---------------------------------------------------------------------
      1          6           0       -1.870441    0.099223    0.033009
      2          6           0       -0.626103   -0.350039   -0.045686
      3          6           0        0.627409    0.406034   -0.118581
      4          6           0        1.852269   -0.125989    0.071874
      5          1           0       -2.693242   -0.634208    0.242028
      6          1           0       -2.108806    1.156370    0.118763
      7          1           0       -0.496492   -1.366533   -0.175615
      8          1           0        0.600121    1.496563   -0.065423
      9          1           0        1.880037   -1.193136   -0.009768
     10          1           0        2.919573    0.365574    0.246325
 ---------------------------------------------------------------------

 SCF Done:  E(RB2PLYPD3) =  -155.679591033     A.U. after   11 cycles
 E2(B2PLYPD3) =    -0.2269519935D+00 E(B2PLYPD3) =    -0.15590654302642D+03

 The electronic state is 1-A.
 Alpha  occ. eigenvalues --  -10.63132 -10.62967 -10.62315 -10.61941  -0.92926
 Alpha  occ. eigenvalues --   -0.84990  -0.69657  -0.64436  -0.54013  -0.53630
 Alpha  occ. eigenvalues --   -0.46994  -0.44623  -0.40808  -0.37668  -0.27931
 Alpha virt. eigenvalues --    0.01392   0.06803   0.07535   0.07847   0.09419
 Alpha virt. eigenvalues --    0.11284   0.12522   0.14218   0.15379   0.16621
 Alpha virt. eigenvalues --    0.18793   0.19353   0.21710   0.22342   0.23988

 Mulliken charges:
               1
     1  C   -0.171700
     2  C   -0.032381
     3  C   -0.041647
     4  C   -0.162527
     5  H    0.079051
     6  H    0.069449
     7  H    0.065053
     8  H    0.054546
     9  H    0.055065
    10  H    0.085092
 Sum of Mulliken charges =   0.00000

 Dipole moment (field-independent basis, Debye):
    X=              0.1228    Y=             -0.0566    Z=              0.2132  Tot=              0.2525
 Quadrupole moment (field-independent basis, Debye-Ang):
   XX=            -23.1210   YY=            -23.6113   ZZ=            -29.2240
   XY=              0.0333   XZ=             -0.0732   YZ=              0.2593

 1\1\GINC-NODE30\SP\RB2PLYPD3-FC\def2QZVP\C4H6\BOITTIER\26-Aug-2020\0\\
 #p B2PLYPD3/Def2QZVP\\butadiene\\0,1\C,0,-3.877058,0.197549,0.061251\C
 ,0,-2.727044,-0.457633,-0.006663\C,0,-1.363876,0.073372,-0.096439\C,0,
 -0.246122,-0.65395,0.106618\H,0,-4.811422,-0.381005,0.286751\H,0,-3.93
 2676,1.281463,0.122635\H,0,-2.771881,-1.484075,-0.113182\H,0,-1.20593,
 1.15369,-0.068333\H,0,-0.399737,-1.711957,0.049499\H,0,0.889613,-0.346
 418,0.270127\\Version=ES64L-G09RevD.01\State=1-A\HF=-155.679591\MP2=-1
 55.906543\RMSD=7.182e-09\PG=C01 [X(C4H6)]\\@

 Normal termination of Gaussian 09 at Wed Aug 26 12:03:43 2020.
