 Gaussian 09, Revision D.01,
 Gaussian 09:  ES64L-G09RevD.01 24-Apr-2013

 --------------------
 #p B2PLYPD3/Def2QZVP
 --------------------

 ---------
 butadiene
 ---------
 Symbolic Z-matrix:
 Charge =  0 Multiplicity = 1

                         Standard orientation:
 ---------------------------------------------------------------------
 Center     Atomic      Atomic             Coordinates (Angstroms)
 Number     Number       Type             X           Y           Z
 ---------------------------------------------------------------------
      1          6           0       -1.842418   -0.117072    0.013778
      2          6           0       -0.605988    0.414755   -0.010812
      3          6           0        0.611005   -0.387516   -0.018388
      4          6           0        1.851185    0.091767    0.002302
      5          1           0       -2.750665    0.490021    0.025182
      6          1           0       -1.996724   -1.198734    0.015578
      7          1           0       -0.501760    1.490712   -0.010129
      8          1           0        0.421286   -1.422591   -0.050897
      9          1           0        2.029141    1.152288   -0.003945
     10          1           0        2.716021   -0.523300    0.102932
 ---------------------------------------------------------------------

 SCF Done:  E(RB2PLYPD3) =  -155.699726153     A.U. after   11 cycles
 E2(B2PLYPD3) =    -0.2256068706D+00 E(B2PLYPD3) =    -0.15592533302368D+03

 The electronic state is 1-A.
 Alpha  occ. eigenvalues --  -10.62696 -10.62195 -10.61967 -10.61238  -0.92953
 Alpha  occ. eigenvalues --   -0.84851  -0.70380  -0.64500  -0.54879  -0.53760
 Alpha  occ. eigenvalues --   -0.47105  -0.45596  -0.41172  -0.37992  -0.27673
 Alpha virt. eigenvalues --    0.01617   0.06991   0.07493   0.08168   0.09573
 Alpha virt. eigenvalues --    0.11646   0.12549   0.14644   0.15848   0.16240
 Alpha virt. eigenvalues --    0.18878   0.20427   0.21813   0.22965   0.23566

 Mulliken charges:
               1
     1  C   -0.175308
     2  C   -0.032570
     3  C   -0.031595
     4  C   -0.173504
     5  H    0.084900
     6  H    0.062017
     7  H    0.055989
     8  H    0.059549
     9  H    0.063647
    10  H    0.086874
 Sum of Mulliken charges =   0.00000

 Dipole moment (field-independent basis, Debye):
    X=             -0.0162    Y=             -0.0011    Z=              0.0539  Tot=              0.0563
 Quadrupole moment (field-independent basis, Debye-Ang):
   XX=            -23.2474   YY=            -23.2230   ZZ=            -29.2447
   XY=              0.2003   XZ=              0.1932   YZ=             -0.0318

 1\1\GINC-NODE32\SP\RB2PLYPD3-FC\def2QZVP\C4H6\BOITTIER\26-Aug-2020\0\\
 #p B2PLYPD3/Def2QZVP\\butadiene\\0,1\C,0,-3.844473,0.233159,0.005185\C
 ,0,-2.724527,-0.512626,0.046769\C,0,-1.382468,0.056027,0.030017\C,0,-0
 .249564,-0.640169,0.024717\H,0,-4.847598,-0.199617,0.012198\H,0,-3.800
 585,1.324319,-0.030184\H,0,-2.816646,-1.589192,0.079457\H,0,-1.381658,
 1.108846,0.030369\H,0,-0.266345,-1.71469,0.063886\H,0,0.711729,-0.1951
 19,-0.094542\\Version=ES64L-G09RevD.01\State=1-A\HF=-155.6997262\MP2=-
 155.925333\RMSD=4.597e-09\PG=C01 [X(C4H6)]\\@

 Normal termination of Gaussian 09 at Wed Aug 26 18:46:03 2020.
