 Gaussian 09, Revision D.01,
 Gaussian 09:  ES64L-G09RevD.01 24-Apr-2013

 --------------------
 #p B2PLYPD3/Def2QZVP
 --------------------

 ---------
 butadiene
 ---------
 Symbolic Z-matrix:
 Charge =  0 Multiplicity = 1

                         Standard orientation:
 ---------------------------------------------------------------------
 Center     Atomic      Atomic             Coordinates (Angstroms)
 Number     Number       Type             X           Y           Z
 ---------------------------------------------------------------------
      1          6           0        1.830085   -0.119447   -0.009842
      2          6           0        0.600902    0.402213    0.008639
      3          6           0       -0.600909   -0.397593    0.010352
      4          6           0       -1.829008    0.110334   -0.006737
      5          1           0        2.704606    0.524561   -0.034486
      6          1           0        1.978106   -1.184791   -0.038721
      7          1           0        0.517314    1.506781    0.095744
      8          1           0       -0.481440   -1.462469    0.052969
      9          1           0       -2.012006    1.175798   -0.082684
     10          1           0       -2.713003   -0.532922   -0.007297
 ---------------------------------------------------------------------

 SCF Done:  E(RB2PLYPD3) =  -155.700289693     A.U. after   11 cycles
 E2(B2PLYPD3) =    -0.2256888145D+00 E(B2PLYPD3) =    -0.15592597850747D+03

 The electronic state is 1-A.
 Alpha  occ. eigenvalues --  -10.62634 -10.62253 -10.61497 -10.61415  -0.93178
 Alpha  occ. eigenvalues --   -0.84963  -0.69987  -0.64000  -0.54394  -0.54229
 Alpha  occ. eigenvalues --   -0.46430  -0.45408  -0.41309  -0.38232  -0.27665
 Alpha virt. eigenvalues --    0.01806   0.07028   0.07395   0.07954   0.09622
 Alpha virt. eigenvalues --    0.11701   0.12406   0.14730   0.15793   0.16186
 Alpha virt. eigenvalues --    0.18725   0.20389   0.21621   0.22758   0.23902

 Mulliken charges:
               1
     1  C   -0.178805
     2  C   -0.026256
     3  C   -0.033326
     4  C   -0.172817
     5  H    0.085340
     6  H    0.066083
     7  H    0.053039
     8  H    0.057927
     9  H    0.067019
    10  H    0.081795
 Sum of Mulliken charges =   0.00000

 Dipole moment (field-independent basis, Debye):
    X=              0.0004    Y=             -0.0137    Z=             -0.0068  Tot=              0.0153
 Quadrupole moment (field-independent basis, Debye-Ang):
   XX=            -23.5904   YY=            -23.0455   ZZ=            -29.2440
   XY=             -0.0589   XZ=              0.0377   YZ=             -0.0171

 1\1\GINC-NODE02\SP\RB2PLYPD3-FC\def2QZVP\C4H6\BOITTIER\26-Aug-2020\0\\
 #p B2PLYPD3/Def2QZVP\\butadiene\\0,1\C,0,-3.831465,0.228504,0.00912\C,
 0,-2.715155,-0.503577,0.044766\C,0,-1.389821,0.068359,0.024267\C,0,-0.
 272267,-0.651073,0.023948\H,0,-4.80704,-0.249356,0.002496\H,0,-3.78694
 3,1.301828,-0.051665\H,0,-2.829846,-1.602246,0.164833\H,0,-1.317003,1.
 138234,0.034997\H,0,-0.282816,-1.73386,-0.019996\H,0,0.712395,-0.17638
 9,0.005414\\Version=ES64L-G09RevD.01\State=1-A\HF=-155.7002897\MP2=-15
 5.9259785\RMSD=3.127e-09\PG=C01 [X(C4H6)]\\@

 Normal termination of Gaussian 09 at Wed Aug 26 21:09:56 2020.
