 Gaussian 09, Revision D.01,
 Gaussian 09:  ES64L-G09RevD.01 24-Apr-2013

 --------------------
 #p B2PLYPD3/Def2QZVP
 --------------------

 ---------
 butadiene
 ---------
 Symbolic Z-matrix:
 Charge =  0 Multiplicity = 1

                         Standard orientation:
 ---------------------------------------------------------------------
 Center     Atomic      Atomic             Coordinates (Angstroms)
 Number     Number       Type             X           Y           Z
 ---------------------------------------------------------------------
      1          6           0        1.840644    0.104353   -0.003949
      2          6           0        0.601034   -0.416880    0.008602
      3          6           0       -0.612562    0.395547   -0.007184
      4          6           0       -1.838444   -0.105176    0.007133
      5          1           0        2.809984   -0.470866   -0.077640
      6          1           0        1.942604    1.221272    0.162020
      7          1           0        0.453066   -1.471376   -0.026225
      8          1           0       -0.402130    1.459250   -0.121475
      9          1           0       -2.027294   -1.151671    0.041061
     10          1           0       -2.720263    0.546325   -0.005358
 ---------------------------------------------------------------------

 SCF Done:  E(RB2PLYPD3) =  -155.694541570     A.U. after   11 cycles
 E2(B2PLYPD3) =    -0.2262873761D+00 E(B2PLYPD3) =    -0.15592082894603D+03

 The electronic state is 1-A.
 Alpha  occ. eigenvalues --  -10.62773 -10.62588 -10.62522 -10.61450  -0.92996
 Alpha  occ. eigenvalues --   -0.84666  -0.69739  -0.64206  -0.54469  -0.53372
 Alpha  occ. eigenvalues --   -0.47150  -0.45019  -0.40706  -0.38036  -0.27759
 Alpha virt. eigenvalues --    0.01693   0.06955   0.07351   0.08042   0.09357
 Alpha virt. eigenvalues --    0.11638   0.12463   0.14470   0.15642   0.16184
 Alpha virt. eigenvalues --    0.18752   0.20157   0.21612   0.22936   0.23517

 Mulliken charges:
               1
     1  C   -0.172459
     2  C   -0.034547
     3  C   -0.026071
     4  C   -0.176389
     5  H    0.085800
     6  H    0.056054
     7  H    0.057839
     8  H    0.056536
     9  H    0.069472
    10  H    0.083767
 Sum of Mulliken charges =   0.00000

 Dipole moment (field-independent basis, Debye):
    X=             -0.0306    Y=             -0.0615    Z=             -0.0217  Tot=              0.0721
 Quadrupole moment (field-independent basis, Debye-Ang):
   XX=            -23.3601   YY=            -23.3434   ZZ=            -29.3092
   XY=              0.2174   XZ=              0.0097   YZ=              0.0876

 1\1\GINC-NODE21\SP\RB2PLYPD3-FC\def2QZVP\C4H6\BOITTIER\26-Aug-2020\0\\
 #p B2PLYPD3/Def2QZVP\\butadiene\\0,1\C,0,-3.843894,0.224028,0.022072\C
 ,0,-2.719495,-0.513631,0.029813\C,0,-1.378579,0.065135,0.021027\C,0,-0
 .263966,-0.649935,0.026283\H,0,-4.901221,-0.162939,0.112865\H,0,-3.742
 145,1.334721,-0.181541\H,0,-2.765184,-1.575707,0.100365\H,0,-1.392067,
 1.15258,0.099059\H,0,-0.268267,-1.713864,0.027943\H,0,0.72147,-0.16923
 2,0.018865\\Version=ES64L-G09RevD.01\State=1-A\HF=-155.6945416\MP2=-15
 5.9208289\RMSD=5.089e-09\PG=C01 [X(C4H6)]\\@

 Normal termination of Gaussian 09 at Wed Aug 26 08:56:43 2020.
