 Gaussian 09, Revision D.01,
 Gaussian 09:  ES64L-G09RevD.01 24-Apr-2013

 --------------------
 #p B2PLYPD3/Def2QZVP
 --------------------

 ---------
 butadiene
 ---------
 Symbolic Z-matrix:
 Charge =  0 Multiplicity = 1

                         Standard orientation:
 ---------------------------------------------------------------------
 Center     Atomic      Atomic             Coordinates (Angstroms)
 Number     Number       Type             X           Y           Z
 ---------------------------------------------------------------------
      1          6           0       -1.844611    0.096185   -0.004792
      2          6           0       -0.603642   -0.368421   -0.035955
      3          6           0        0.604172    0.413641   -0.007782
      4          6           0        1.830042   -0.137612    0.018753
      5          1           0       -2.682922   -0.543000    0.063455
      6          1           0       -2.072303    1.133179    0.141978
      7          1           0       -0.470542   -1.440056   -0.023871
      8          1           0        0.627122    1.510738   -0.073677
      9          1           0        1.990291   -1.208697    0.074159
     10          1           0        2.692590    0.525080   -0.003387
 ---------------------------------------------------------------------

 SCF Done:  E(RB2PLYPD3) =  -155.697323301     A.U. after   11 cycles
 E2(B2PLYPD3) =    -0.2257063932D+00 E(B2PLYPD3) =    -0.15592302969463D+03

 The electronic state is 1-A.
 Alpha  occ. eigenvalues --  -10.62634 -10.62341 -10.61682 -10.60884  -0.93158
 Alpha  occ. eigenvalues --   -0.85145  -0.70388  -0.63969  -0.54762  -0.54429
 Alpha  occ. eigenvalues --   -0.46205  -0.45496  -0.41375  -0.38275  -0.27625
 Alpha virt. eigenvalues --    0.01583   0.07028   0.07519   0.07903   0.09698
 Alpha virt. eigenvalues --    0.11646   0.12467   0.14830   0.15829   0.16377
 Alpha virt. eigenvalues --    0.18854   0.20436   0.21632   0.22504   0.23802

 Mulliken charges:
               1
     1  C   -0.167777
     2  C   -0.032932
     3  C   -0.028547
     4  C   -0.176722
     5  H    0.080971
     6  H    0.064437
     7  H    0.056262
     8  H    0.055218
     9  H    0.067737
    10  H    0.081353
 Sum of Mulliken charges =   0.00000

 Dipole moment (field-independent basis, Debye):
    X=              0.0376    Y=             -0.0071    Z=              0.1419  Tot=              0.1470
 Quadrupole moment (field-independent basis, Debye-Ang):
   XX=            -23.5012   YY=            -23.0734   ZZ=            -29.1892
   XY=              0.0452   XZ=             -0.4263   YZ=             -0.0517

 1\1\GINC-NODE23\SP\RB2PLYPD3-FC\def2QZVP\C4H6\BOITTIER\26-Aug-2020\0\\
 #p B2PLYPD3/Def2QZVP\\butadiene\\0,1\C,0,-3.849476,0.204932,0.022854\C
 ,0,-2.71021,-0.472287,0.006109\C,0,-1.383198,0.084727,0.004223\C,0,-0.
 273613,-0.673049,0.048258\H,0,-4.786814,-0.273422,0.115348\H,0,-3.8894
 93,1.270308,0.132919\H,0,-2.768132,-1.549505,0.0562\H,0,-1.167618,1.15
 7565,-0.100828\H,0,-0.304369,-1.753011,0.141576\H,0,0.692098,-0.174246
 ,0.00096\\Version=ES64L-G09RevD.01\State=1-A\HF=-155.6973233\MP2=-155.
 9230297\RMSD=5.919e-09\PG=C01 [X(C4H6)]\\@

 Normal termination of Gaussian 09 at Wed Aug 26 08:44:53 2020.
