 Gaussian 09, Revision D.01,
 Gaussian 09:  ES64L-G09RevD.01 24-Apr-2013

 --------------------
 #p B2PLYPD3/Def2QZVP
 --------------------

 ---------
 butadiene
 ---------
 Symbolic Z-matrix:
 Charge =  0 Multiplicity = 1

                         Standard orientation:
 ---------------------------------------------------------------------
 Center     Atomic      Atomic             Coordinates (Angstroms)
 Number     Number       Type             X           Y           Z
 ---------------------------------------------------------------------
      1          6           0       -1.824085   -0.127794    0.094732
      2          6           0       -0.600605    0.449482   -0.080650
      3          6           0        0.594264   -0.359468   -0.116079
      4          6           0        1.839880    0.052210    0.061058
      5          1           0       -2.819865    0.374053    0.028657
      6          1           0       -1.829757   -1.239428    0.019735
      7          1           0       -0.549610    1.558075    0.014430
      8          1           0        0.321006   -1.418989   -0.055617
      9          1           0        2.098817    1.148430    0.032758
     10          1           0        2.722687   -0.508725    0.205667
 ---------------------------------------------------------------------

 SCF Done:  E(RB2PLYPD3) =  -155.685057481     A.U. after   12 cycles
 E2(B2PLYPD3) =    -0.2276361274D+00 E(B2PLYPD3) =    -0.15591269360802D+03

 The electronic state is 1-A.
 Alpha  occ. eigenvalues --  -10.63423 -10.62830 -10.62685 -10.61859  -0.93136
 Alpha  occ. eigenvalues --   -0.84481  -0.70181  -0.63725  -0.55469  -0.52591
 Alpha  occ. eigenvalues --   -0.47187  -0.43946  -0.40705  -0.38283  -0.27595
 Alpha virt. eigenvalues --    0.01093   0.07067   0.07249   0.08012   0.09188
 Alpha virt. eigenvalues --    0.11560   0.12732   0.14255   0.15563   0.16422
 Alpha virt. eigenvalues --    0.18970   0.19297   0.22024   0.22576   0.23759

 Mulliken charges:
               1
     1  C   -0.163949
     2  C   -0.029658
     3  C   -0.027856
     4  C   -0.161847
     5  H    0.085473
     6  H    0.047313
     7  H    0.057888
     8  H    0.051918
     9  H    0.053112
    10  H    0.087606
 Sum of Mulliken charges =   0.00000

 Dipole moment (field-independent basis, Debye):
    X=              0.0487    Y=              0.0359    Z=              0.0831  Tot=              0.1028
 Quadrupole moment (field-independent basis, Debye-Ang):
   XX=            -22.9493   YY=            -23.7039   ZZ=            -29.3677
   XY=              0.0973   XZ=              0.5777   YZ=             -0.0262

 1\1\GINC-NODE02\SP\RB2PLYPD3-FC\def2QZVP\C4H6\BOITTIER\26-Aug-2020\0\\
 #p B2PLYPD3/Def2QZVP\\butadiene\\0,1\C,0,-3.823084,0.243727,-0.074781\
 C,0,-2.725004,-0.541566,0.121293\C,0,-1.401344,0.034011,0.119438\C,0,-
 0.254709,-0.607104,-0.043706\H,0,-4.893478,-0.062835,0.015049\H,0,-3.6
 23256,1.339471,-0.046489\H,0,-2.879935,-1.643497,0.072684\H,0,-1.47552
 3,1.122389,0.015317\H,0,-0.201697,-1.730191,0.029862\H,0,0.714704,-0.2
 2489,-0.214168\\Version=ES64L-G09RevD.01\State=1-A\HF=-155.6850575\MP2
 =-155.9126936\RMSD=2.949e-09\PG=C01 [X(C4H6)]\\@

 Normal termination of Gaussian 09 at Wed Aug 26 14:01:30 2020.
