 Gaussian 09, Revision D.01,
 Gaussian 09:  ES64L-G09RevD.01 24-Apr-2013

 --------------------
 #p B2PLYPD3/Def2QZVP
 --------------------

 ---------
 butadiene
 ---------
 Symbolic Z-matrix:
 Charge =  0 Multiplicity = 1

                         Standard orientation:
 ---------------------------------------------------------------------
 Center     Atomic      Atomic             Coordinates (Angstroms)
 Number     Number       Type             X           Y           Z
 ---------------------------------------------------------------------
      1          6           0        1.877342    0.045938   -0.009607
      2          6           0        0.626194   -0.322191    0.005775
      3          6           0       -0.609627    0.429939    0.027347
      4          6           0       -1.868173   -0.150295   -0.030266
      5          1           0        2.739966   -0.539563   -0.022717
      6          1           0        1.975340    1.138696   -0.175570
      7          1           0        0.499045   -1.367860    0.142940
      8          1           0       -0.564563    1.579407    0.206756
      9          1           0       -2.018539   -1.213021   -0.009386
     10          1           0       -2.785670    0.381999   -0.101518
 ---------------------------------------------------------------------

 SCF Done:  E(RB2PLYPD3) =  -155.680905781     A.U. after   11 cycles
 E2(B2PLYPD3) =    -0.2269027795D+00 E(B2PLYPD3) =    -0.15590780856083D+03

 The electronic state is 1-A.
 Alpha  occ. eigenvalues --  -10.64577 -10.62483 -10.61873 -10.61001  -0.92926
 Alpha  occ. eigenvalues --   -0.84973  -0.71091  -0.63426  -0.55936  -0.53289
 Alpha  occ. eigenvalues --   -0.47946  -0.44687  -0.40445  -0.37558  -0.27705
 Alpha virt. eigenvalues --    0.00928   0.07069   0.07458   0.07879   0.09704
 Alpha virt. eigenvalues --    0.11412   0.12698   0.14288   0.15703   0.16435
 Alpha virt. eigenvalues --    0.19016   0.19997   0.21741   0.22295   0.23342

 Mulliken charges:
               1
     1  C   -0.173737
     2  C   -0.000574
     3  C   -0.055896
     4  C   -0.170277
     5  H    0.098051
     6  H    0.047067
     7  H    0.047259
     8  H    0.052930
     9  H    0.066902
    10  H    0.088274
 Sum of Mulliken charges =   0.00000

 Dipole moment (field-independent basis, Debye):
    X=             -0.1077    Y=             -0.1341    Z=              0.0552  Tot=              0.1806
 Quadrupole moment (field-independent basis, Debye-Ang):
   XX=            -22.6825   YY=            -23.7255   ZZ=            -29.2366
   XY=             -0.2273   XZ=             -0.0691   YZ=             -0.1032

 1\1\GINC-NODE39\SP\RB2PLYPD3-FC\def2QZVP\C4H6\BOITTIER\26-Aug-2020\0\\
 #p B2PLYPD3/Def2QZVP\\butadiene\\0,1\C,0,-3.890133,0.157842,0.030561\C
 ,0,-2.72232,-0.422957,0.027145\C,0,-1.374514,0.101307,-0.017422\C,0,-0
 .235989,-0.687292,0.058743\H,0,-4.841472,-0.267709,0.06161\H,0,-3.7954
 64,1.255544,0.162306\H,0,-2.779936,-1.478505,-0.077275\H,0,-1.219594,1
 .234965,-0.23263\H,0,-0.273124,-1.760092,0.071093\H,0,0.760544,-0.3210
 71,0.113696\\Version=ES64L-G09RevD.01\State=1-A\HF=-155.6809058\MP2=-1
 55.9078086\RMSD=8.928e-09\PG=C01 [X(C4H6)]\\@

 Normal termination of Gaussian 09 at Wed Aug 26 11:44:35 2020.
