 Gaussian 09, Revision D.01,
 Gaussian 09:  ES64L-G09RevD.01 24-Apr-2013

 --------------------
 #p B2PLYPD3/Def2QZVP
 --------------------

 ---------
 butadiene
 ---------
 Symbolic Z-matrix:
 Charge =  0 Multiplicity = 1

                         Standard orientation:
 ---------------------------------------------------------------------
 Center     Atomic      Atomic             Coordinates (Angstroms)
 Number     Number       Type             X           Y           Z
 ---------------------------------------------------------------------
      1          6           0        1.827673    0.131892    0.022890
      2          6           0        0.591402   -0.462887   -0.083565
      3          6           0       -0.608374    0.373574   -0.026454
      4          6           0       -1.825492   -0.083594    0.058054
      5          1           0        2.847823   -0.348440    0.036166
      6          1           0        1.845787    1.269100    0.325946
      7          1           0        0.551300   -1.552535   -0.081803
      8          1           0       -0.525175    1.499210   -0.238453
      9          1           0       -2.011945   -1.136208    0.242636
     10          1           0       -2.619042    0.514961   -0.110048
 ---------------------------------------------------------------------

 SCF Done:  E(RB2PLYPD3) =  -155.676219352     A.U. after   12 cycles
 E2(B2PLYPD3) =    -0.2273369596D+00 E(B2PLYPD3) =    -0.15590355631160D+03

 The electronic state is 1-A.
 Alpha  occ. eigenvalues --  -10.63679 -10.63559 -10.62748 -10.60043  -0.92861
 Alpha  occ. eigenvalues --   -0.84697  -0.69387  -0.63271  -0.54939  -0.53655
 Alpha  occ. eigenvalues --   -0.46515  -0.43808  -0.41203  -0.37697  -0.27589
 Alpha virt. eigenvalues --    0.01478   0.06952   0.07275   0.07678   0.09155
 Alpha virt. eigenvalues --    0.11434   0.12435   0.14304   0.15657   0.16623
 Alpha virt. eigenvalues --    0.18734   0.19959   0.21337   0.22057   0.23776

 Mulliken charges:
               1
     1  C   -0.159924
     2  C   -0.058517
     3  C   -0.008486
     4  C   -0.179359
     5  H    0.084142
     6  H    0.050467
     7  H    0.068398
     8  H    0.052924
     9  H    0.060756
    10  H    0.089598
 Sum of Mulliken charges =   0.00000

 Dipole moment (field-independent basis, Debye):
    X=             -0.0285    Y=             -0.1080    Z=              0.0698  Tot=              0.1317
 Quadrupole moment (field-independent basis, Debye-Ang):
   XX=            -23.4685   YY=            -23.3663   ZZ=            -29.2328
   XY=             -0.2172   XZ=              0.6507   YZ=             -0.1689

 1\1\GINC-NODE08\SP\RB2PLYPD3-FC\def2QZVP\C4H6\BOITTIER\26-Aug-2020\0\\
 #p B2PLYPD3/Def2QZVP\\butadiene\\0,1\C,0,-3.828555,0.240074,-0.016436\
 C,0,-2.716777,-0.560021,0.114929\C,0,-1.388168,0.049886,0.042799\C,0,-
 0.270622,-0.616883,-0.020673\H,0,-4.91741,-0.053099,-0.023328\H,0,-3.6
 45243,1.353549,-0.351073\H,0,-2.869503,-1.639276,0.143702\H,0,-1.27189
 8,1.178147,0.222884\H,0,-0.272427,-1.690713,-0.174675\H,0,0.615757,-0.
 163026,0.136153\\Version=ES64L-G09RevD.01\State=1-A\HF=-155.6762194\MP
 2=-155.9035563\RMSD=4.408e-09\PG=C01 [X(C4H6)]\\@

 Normal termination of Gaussian 09 at Wed Aug 26 15:01:33 2020.
