 Gaussian 09, Revision D.01,
 Gaussian 09:  ES64L-G09RevD.01 24-Apr-2013

 --------------------
 #p B2PLYPD3/Def2QZVP
 --------------------

 ---------
 butadiene
 ---------
 Symbolic Z-matrix:
 Charge =  0 Multiplicity = 1

                         Standard orientation:
 ---------------------------------------------------------------------
 Center     Atomic      Atomic             Coordinates (Angstroms)
 Number     Number       Type             X           Y           Z
 ---------------------------------------------------------------------
      1          6           0        1.860788    0.081885    0.055916
      2          6           0        0.596287   -0.312338   -0.075110
      3          6           0       -0.620573    0.407544   -0.020507
      4          6           0       -1.836189   -0.134610    0.028515
      5          1           0        2.522303   -0.633254    0.155706
      6          1           0        2.144766    1.064110   -0.036352
      7          1           0        0.615364   -1.414555   -0.067293
      8          1           0       -0.496080    1.509111   -0.131375
      9          1           0       -1.967639   -1.206531   -0.050765
     10          1           0       -2.820591    0.426238    0.197188
 ---------------------------------------------------------------------

 SCF Done:  E(RB2PLYPD3) =  -155.676244681     A.U. after   11 cycles
 E2(B2PLYPD3) =    -0.2259467561D+00 E(B2PLYPD3) =    -0.15590219143711D+03

 The electronic state is 1-A.
 Alpha  occ. eigenvalues --  -10.62939 -10.62540 -10.62022 -10.59594  -0.93583
 Alpha  occ. eigenvalues --   -0.85766  -0.71324  -0.63677  -0.55838  -0.54084
 Alpha  occ. eigenvalues --   -0.48027  -0.44574  -0.41221  -0.37848  -0.27612
 Alpha virt. eigenvalues --    0.01184   0.06963   0.07530   0.07883   0.10076
 Alpha virt. eigenvalues --    0.11508   0.12413   0.14864   0.15663   0.16489
 Alpha virt. eigenvalues --    0.18738   0.19836   0.21939   0.22316   0.24572

 Mulliken charges:
               1
     1  C   -0.178917
     2  C   -0.010306
     3  C   -0.037228
     4  C   -0.163600
     5  H    0.086062
     6  H    0.065583
     7  H    0.031423
     8  H    0.055790
     9  H    0.069116
    10  H    0.082077
 Sum of Mulliken charges =   0.00000

 Dipole moment (field-independent basis, Debye):
    X=             -0.0522    Y=             -0.0291    Z=             -0.0138  Tot=              0.0614
 Quadrupole moment (field-independent basis, Debye-Ang):
   XX=            -23.1434   YY=            -23.4153   ZZ=            -29.0010
   XY=              0.0356   XZ=             -0.0898   YZ=             -0.1354

 1\1\GINC-NODE20\SP\RB2PLYPD3-FC\def2QZVP\C4H6\BOITTIER\26-Aug-2020\0\\
 #p B2PLYPD3/Def2QZVP\\butadiene\\0,1\C,0,-3.87039,0.189987,-0.033356\C
 ,0,-2.695294,-0.420312,0.101655\C,0,-1.370433,0.072628,0.040722\C,0,-0
 .269845,-0.676274,-0.002952\H,0,-4.648023,-0.397855,-0.126703\H,0,-3.9
 76169,1.207743,0.049743\H,0,-2.908891,-1.501828,0.104033\H,0,-1.29812,
 1.179825,0.141359\H,0,-0.32981,-1.753781,0.08628\H,0,0.797954,-0.29981
 5,-0.176541\\Version=ES64L-G09RevD.01\State=1-A\HF=-155.6762447\MP2=-1
 55.9021914\RMSD=7.006e-09\PG=C01 [X(C4H6)]\\@

 Normal termination of Gaussian 09 at Wed Aug 26 12:54:24 2020.
