 Gaussian 09, Revision D.01,
 Gaussian 09:  ES64L-G09RevD.01 24-Apr-2013

 --------------------
 #p B2PLYPD3/Def2QZVP
 --------------------

 ---------
 butadiene
 ---------
 Symbolic Z-matrix:
 Charge =  0 Multiplicity = 1

                         Standard orientation:
 ---------------------------------------------------------------------
 Center     Atomic      Atomic             Coordinates (Angstroms)
 Number     Number       Type             X           Y           Z
 ---------------------------------------------------------------------
      1          6           0       -1.849182    0.102398   -0.025424
      2          6           0       -0.613016   -0.379781    0.014814
      3          6           0        0.620328    0.406263    0.009149
      4          6           0        1.847495   -0.116550   -0.019462
      5          1           0       -2.702354   -0.556153    0.002929
      6          1           0       -2.007169    1.176236   -0.013357
      7          1           0       -0.500842   -1.466937    0.105973
      8          1           0        0.472891    1.501806    0.063121
      9          1           0        1.967302   -1.205094   -0.063784
     10          1           0        2.736424    0.476160    0.030659
 ---------------------------------------------------------------------

 SCF Done:  E(RB2PLYPD3) =  -155.699999430     A.U. after   11 cycles
 E2(B2PLYPD3) =    -0.2257012278D+00 E(B2PLYPD3) =    -0.15592570065792D+03

 The electronic state is 1-A.
 Alpha  occ. eigenvalues --  -10.62916 -10.62513 -10.61672 -10.61392  -0.92841
 Alpha  occ. eigenvalues --   -0.85134  -0.70083  -0.63563  -0.54729  -0.53821
 Alpha  occ. eigenvalues --   -0.47033  -0.45382  -0.40818  -0.37968  -0.27933
 Alpha virt. eigenvalues --    0.01786   0.07029   0.07347   0.08014   0.09706
 Alpha virt. eigenvalues --    0.11646   0.12425   0.14585   0.15800   0.16130
 Alpha virt. eigenvalues --    0.18844   0.20458   0.21461   0.22599   0.23904

 Mulliken charges:
               1
     1  C   -0.178199
     2  C   -0.021385
     3  C   -0.034429
     4  C   -0.171876
     5  H    0.089454
     6  H    0.063784
     7  H    0.048144
     8  H    0.049304
     9  H    0.064083
    10  H    0.091121
 Sum of Mulliken charges =   0.00000

 Dipole moment (field-independent basis, Debye):
    X=              0.0258    Y=             -0.0053    Z=              0.1287  Tot=              0.1314
 Quadrupole moment (field-independent basis, Debye-Ang):
   XX=            -23.3537   YY=            -23.2225   ZZ=            -29.2765
   XY=             -0.0016   XZ=             -0.0365   YZ=              0.0346

 1\1\GINC-NODE33\SP\RB2PLYPD3-FC\def2QZVP\C4H6\BOITTIER\26-Aug-2020\0\\
 #p B2PLYPD3/Def2QZVP\\butadiene\\0,1\C,0,-3.855159,0.210754,-0.002964\
 C,0,-2.723471,-0.480964,0.052078\C,0,-1.370701,0.074371,0.026595\C,0,-
 0.25529,-0.657605,0.013912\H,0,-4.811138,-0.285691,0.042225\H,0,-3.820
 934,1.295538,-0.02044\H,0,-2.804779,-1.567959,0.173044\H,0,-1.32211,1.
 179783,0.050429\H,0,-0.329805,-1.750988,-0.000505\H,0,0.724529,-0.2301
 29,0.049013\\Version=ES64L-G09RevD.01\State=1-A\HF=-155.6999994\MP2=-1
 55.9257007\RMSD=4.311e-09\PG=C01 [X(C4H6)]\\@

 Normal termination of Gaussian 09 at Wed Aug 26 20:23:31 2020.
