 Gaussian 09, Revision D.01,
 Gaussian 09:  ES64L-G09RevD.01 24-Apr-2013

 --------------------
 #p B2PLYPD3/Def2QZVP
 --------------------

 ---------
 butadiene
 ---------
 Symbolic Z-matrix:
 Charge =  0 Multiplicity = 1

                         Standard orientation:
 ---------------------------------------------------------------------
 Center     Atomic      Atomic             Coordinates (Angstroms)
 Number     Number       Type             X           Y           Z
 ---------------------------------------------------------------------
      1          6           0        1.843890    0.098235    0.059469
      2          6           0        0.609481   -0.365383   -0.055602
      3          6           0       -0.619163    0.416255   -0.051103
      4          6           0       -1.837908   -0.129298    0.031129
      5          1           0        2.664989   -0.587410    0.008954
      6          1           0        2.030543    1.163857    0.021462
      7          1           0        0.518513   -1.455810   -0.034491
      8          1           0       -0.462469    1.476037   -0.046391
      9          1           0       -1.940112   -1.161424    0.044932
     10          1           0       -2.789265    0.445898    0.102181
 ---------------------------------------------------------------------

 SCF Done:  E(RB2PLYPD3) =  -155.696830722     A.U. after   11 cycles
 E2(B2PLYPD3) =    -0.2254775633D+00 E(B2PLYPD3) =    -0.15592230828572D+03

 The electronic state is 1-A.
 Alpha  occ. eigenvalues --  -10.62630 -10.62284 -10.61619 -10.61098  -0.93101
 Alpha  occ. eigenvalues --   -0.85226  -0.70341  -0.64181  -0.54761  -0.54002
 Alpha  occ. eigenvalues --   -0.47203  -0.45440  -0.40915  -0.38166  -0.27881
 Alpha virt. eigenvalues --    0.01711   0.06973   0.07555   0.08021   0.09696
 Alpha virt. eigenvalues --    0.11700   0.12534   0.14695   0.15793   0.16196
 Alpha virt. eigenvalues --    0.18908   0.19977   0.21868   0.22740   0.24124

 Mulliken charges:
               1
     1  C   -0.176066
     2  C   -0.020043
     3  C   -0.038327
     4  C   -0.168677
     5  H    0.085338
     6  H    0.061315
     7  H    0.045773
     8  H    0.057470
     9  H    0.070315
    10  H    0.082902
 Sum of Mulliken charges =   0.00000

 Dipole moment (field-independent basis, Debye):
    X=             -0.0616    Y=             -0.0292    Z=              0.0091  Tot=              0.0688
 Quadrupole moment (field-independent basis, Debye-Ang):
   XX=            -23.3935   YY=            -23.2028   ZZ=            -29.1915
   XY=              0.0885   XZ=             -0.3462   YZ=             -0.0078

 1\1\GINC-NODE25\SP\RB2PLYPD3-FC\def2QZVP\C4H6\BOITTIER\26-Aug-2020\0\\
 #p B2PLYPD3/Def2QZVP\\butadiene\\0,1\C,0,-3.851043,0.20346,-0.03672\C,
 0,-2.71703,-0.46761,0.088289\C,0,-1.369941,0.08492,0.063649\C,0,-0.266
 817,-0.66868,-0.00659\H,0,-4.779813,-0.325348,0.031191\H,0,-3.846843,1
 .285894,-0.024311\H,0,-2.819698,-1.55719,0.093468\H,0,-1.337504,1.1553
 17,0.033462\H,0,-0.348116,-1.702696,0.004473\H,0,0.770606,-0.272004,-0
 .092492\\Version=ES64L-G09RevD.01\State=1-A\HF=-155.6968307\MP2=-155.9
 223083\RMSD=6.135e-09\PG=C01 [X(C4H6)]\\@

 Normal termination of Gaussian 09 at Wed Aug 26 10:01:14 2020.
