 Gaussian 09, Revision D.01,
 Gaussian 09:  ES64L-G09RevD.01 24-Apr-2013

 --------------------
 #p B2PLYPD3/Def2QZVP
 --------------------

 ---------
 butadiene
 ---------
 Symbolic Z-matrix:
 Charge =  0 Multiplicity = 1

                         Standard orientation:
 ---------------------------------------------------------------------
 Center     Atomic      Atomic             Coordinates (Angstroms)
 Number     Number       Type             X           Y           Z
 ---------------------------------------------------------------------
      1          6           0       -1.860968    0.089609   -0.000521
      2          6           0       -0.603142   -0.361890   -0.003838
      3          6           0        0.605982    0.417703   -0.013661
      4          6           0        1.831958   -0.133441    0.020910
      5          1           0       -2.694633   -0.552196   -0.033800
      6          1           0       -2.051238    1.128110    0.176756
      7          1           0       -0.439860   -1.449984   -0.070877
      8          1           0        0.580542    1.502862   -0.149048
      9          1           0        2.004698   -1.178097    0.049761
     10          1           0        2.757507    0.477416    0.009868
 ---------------------------------------------------------------------

 SCF Done:  E(RB2PLYPD3) =  -155.696759431     A.U. after   11 cycles
 E2(B2PLYPD3) =    -0.2259896005D+00 E(B2PLYPD3) =    -0.15592274903140D+03

 The electronic state is 1-A.
 Alpha  occ. eigenvalues --  -10.62782 -10.62663 -10.61806 -10.61071  -0.93037
 Alpha  occ. eigenvalues --   -0.84950  -0.70623  -0.63998  -0.54814  -0.54117
 Alpha  occ. eigenvalues --   -0.46879  -0.45300  -0.41244  -0.38066  -0.27552
 Alpha virt. eigenvalues --    0.01362   0.07040   0.07542   0.07909   0.09610
 Alpha virt. eigenvalues --    0.11611   0.12524   0.14745   0.15793   0.16338
 Alpha virt. eigenvalues --    0.18857   0.20192   0.21870   0.22681   0.23592

 Mulliken charges:
               1
     1  C   -0.179032
     2  C   -0.029286
     3  C   -0.032495
     4  C   -0.171766
     5  H    0.088705
     6  H    0.068078
     7  H    0.050357
     8  H    0.060272
     9  H    0.067024
    10  H    0.078142
 Sum of Mulliken charges =   0.00000

 Dipole moment (field-independent basis, Debye):
    X=              0.0771    Y=             -0.0263    Z=             -0.0146  Tot=              0.0827
 Quadrupole moment (field-independent basis, Debye-Ang):
   XX=            -23.2219   YY=            -23.2853   ZZ=            -29.2064
   XY=             -0.0949   XZ=             -0.1964   YZ=              0.0795

 1\1\GINC-NODE22\SP\RB2PLYPD3-FC\def2QZVP\C4H6\BOITTIER\26-Aug-2020\0\\
 #p B2PLYPD3/Def2QZVP\\butadiene\\0,1\C,0,-3.864932,0.202907,0.021354\C
 ,0,-2.707507,-0.465132,0.030293\C,0,-1.379068,0.086286,-0.00179\C,0,-0
 .270506,-0.673057,0.047828\H,0,-4.799626,-0.280975,0.006365\H,0,-3.866
 506,1.263174,0.16949\H,0,-2.740726,-1.566342,-0.006248\H,0,-1.211804,1
 .154505,-0.167558\H,0,-0.286182,-1.730582,0.105917\H,0,0.748865,-0.237
 189,0.019352\\Version=ES64L-G09RevD.01\State=1-A\HF=-155.6967594\MP2=-
 155.922749\RMSD=5.336e-09\PG=C01 [X(C4H6)]\\@

 Normal termination of Gaussian 09 at Wed Aug 26 09:56:21 2020.
