 Gaussian 09, Revision D.01,
 Gaussian 09:  ES64L-G09RevD.01 24-Apr-2013

 --------------------
 #p B2PLYPD3/Def2QZVP
 --------------------

 ---------
 butadiene
 ---------
 Symbolic Z-matrix:
 Charge =  0 Multiplicity = 1

                         Standard orientation:
 ---------------------------------------------------------------------
 Center     Atomic      Atomic             Coordinates (Angstroms)
 Number     Number       Type             X           Y           Z
 ---------------------------------------------------------------------
      1          6           0        1.831984    0.137086    0.052057
      2          6           0        0.608495   -0.489633   -0.067899
      3          6           0       -0.586454    0.393557    0.003165
      4          6           0       -1.834340   -0.104500    0.003393
      5          1           0        2.823754   -0.451800   -0.030482
      6          1           0        1.759369    1.345502    0.191459
      7          1           0        0.446427   -1.501223   -0.121511
      8          1           0       -0.375795    1.481588   -0.257927
      9          1           0       -2.088275   -1.129432    0.279624
     10          1           0       -2.683597    0.636303   -0.005461
 ---------------------------------------------------------------------

 SCF Done:  E(RB2PLYPD3) =  -155.666935647     A.U. after   12 cycles
 E2(B2PLYPD3) =    -0.2294694949D+00 E(B2PLYPD3) =    -0.15589640514156D+03

 The electronic state is 1-A.
 Alpha  occ. eigenvalues --  -10.64429 -10.63462 -10.62983 -10.62082  -0.92257
 Alpha  occ. eigenvalues --   -0.83594  -0.68379  -0.64209  -0.53807  -0.51977
 Alpha  occ. eigenvalues --   -0.46092  -0.44432  -0.40570  -0.37347  -0.27422
 Alpha virt. eigenvalues --    0.01398   0.06579   0.07196   0.07433   0.08496
 Alpha virt. eigenvalues --    0.11662   0.12010   0.14184   0.15077   0.15823
 Alpha virt. eigenvalues --    0.18089   0.19585   0.21205   0.22490   0.24204

 Mulliken charges:
               1
     1  C   -0.160302
     2  C   -0.057772
     3  C   -0.021048
     4  C   -0.184553
     5  H    0.088197
     6  H    0.055748
     7  H    0.072957
     8  H    0.061338
     9  H    0.073690
    10  H    0.071743
 Sum of Mulliken charges =   0.00000

 Dipole moment (field-independent basis, Debye):
    X=              0.0196    Y=             -0.1446    Z=              0.0153  Tot=              0.1467
 Quadrupole moment (field-independent basis, Debye-Ang):
   XX=            -24.3939   YY=            -23.0172   ZZ=            -29.6167
   XY=              0.0345   XZ=             -0.3363   YZ=             -0.2446

 1\1\GINC-NODE29\SP\RB2PLYPD3-FC\def2QZVP\C4H6\BOITTIER\26-Aug-2020\0\\
 #p B2PLYPD3/Def2QZVP\\butadiene\\0,1\C,0,-3.825711,0.25544,-0.026601\C
 ,0,-2.734776,-0.579518,0.103003\C,0,-1.400471,0.072076,0.013378\C,0,-0
 .262934,-0.642935,0.020368\H,0,-4.907019,-0.143193,0.068638\H,0,-3.536
 979,1.42818,-0.188745\H,0,-2.757601,-1.602606,0.175286\H,0,-1.410058,1
 .18481,0.254394\H,0,-0.199473,-1.701702,-0.23704\H,0,0.706071,-0.06752
 9,0.013901\\Version=ES64L-G09RevD.01\State=1-A\HF=-155.6669356\MP2=-15
 5.8964051\RMSD=5.631e-09\PG=C01 [X(C4H6)]\\@

 Normal termination of Gaussian 09 at Wed Aug 26 12:24:08 2020.
