 Gaussian 09, Revision D.01,
 Gaussian 09:  ES64L-G09RevD.01 24-Apr-2013

 --------------------
 #p B2PLYPD3/Def2QZVP
 --------------------

 ---------
 butadiene
 ---------
 Symbolic Z-matrix:
 Charge =  0 Multiplicity = 1

                         Standard orientation:
 ---------------------------------------------------------------------
 Center     Atomic      Atomic             Coordinates (Angstroms)
 Number     Number       Type             X           Y           Z
 ---------------------------------------------------------------------
      1          6           0       -1.822065   -0.121911   -0.021057
      2          6           0       -0.603123    0.412683    0.022573
      3          6           0        0.603127   -0.391499    0.007865
      4          6           0        1.836699    0.099958   -0.024479
      5          1           0       -2.711384    0.478350    0.026597
      6          1           0       -1.985994   -1.175121   -0.074125
      7          1           0       -0.531639    1.516290    0.048570
      8          1           0        0.447106   -1.448062    0.100874
      9          1           0        2.001005    1.174159   -0.041787
     10          1           0        2.693076   -0.540996    0.030459
 ---------------------------------------------------------------------

 SCF Done:  E(RB2PLYPD3) =  -155.700523442     A.U. after   11 cycles
 E2(B2PLYPD3) =    -0.2253419014D+00 E(B2PLYPD3) =    -0.15592586534384D+03

 The electronic state is 1-A.
 Alpha  occ. eigenvalues --  -10.62603 -10.62218 -10.61267 -10.61147  -0.93155
 Alpha  occ. eigenvalues --   -0.85097  -0.70207  -0.64109  -0.54796  -0.54118
 Alpha  occ. eigenvalues --   -0.46690  -0.45577  -0.41232  -0.38177  -0.27744
 Alpha virt. eigenvalues --    0.01875   0.07065   0.07425   0.08046   0.09638
 Alpha virt. eigenvalues --    0.11700   0.12483   0.14753   0.15766   0.16317
 Alpha virt. eigenvalues --    0.18800   0.20373   0.21711   0.22851   0.23876

 Mulliken charges:
               1
     1  C   -0.174334
     2  C   -0.027404
     3  C   -0.032065
     4  C   -0.176253
     5  H    0.082707
     6  H    0.063697
     7  H    0.052383
     8  H    0.058111
     9  H    0.066208
    10  H    0.086950
 Sum of Mulliken charges =   0.00000

 Dipole moment (field-independent basis, Debye):
    X=             -0.0447    Y=             -0.0218    Z=              0.1011  Tot=              0.1127
 Quadrupole moment (field-independent basis, Debye-Ang):
   XX=            -23.4596   YY=            -23.0854   ZZ=            -29.1833
   XY=              0.1226   XZ=              0.1161   YZ=             -0.0365

 1\1\GINC-NODE19\SP\RB2PLYPD3-FC\def2QZVP\C4H6\BOITTIER\26-Aug-2020\0\\
 #p B2PLYPD3/Def2QZVP\\butadiene\\0,1\C,0,-3.824145,0.233031,0.037886\C
 ,0,-2.721383,-0.513143,0.012295\C,0,-1.390159,0.06107,0.003068\C,0,-0.
 264901,-0.642967,0.052079\H,0,-4.807097,-0.198701,0.008127\H,0,-3.7958
 16,1.299681,0.057768\H,0,-2.849586,-1.61188,0.020953\H,0,-1.354121,1.1
 25066,-0.123151\H,0,-0.296309,-1.728142,0.103196\H,0,0.692489,-0.16848
 2,-0.022013\\Version=ES64L-G09RevD.01\State=1-A\HF=-155.7005234\MP2=-1
 55.9258653\RMSD=3.743e-09\PG=C01 [X(C4H6)]\\@

 Normal termination of Gaussian 09 at Wed Aug 26 21:24:46 2020.
