 Gaussian 09, Revision D.01,
 Gaussian 09:  ES64L-G09RevD.01 24-Apr-2013

 --------------------
 #p B2PLYPD3/Def2QZVP
 --------------------

 ---------
 butadiene
 ---------
 Symbolic Z-matrix:
 Charge =  0 Multiplicity = 1

                         Standard orientation:
 ---------------------------------------------------------------------
 Center     Atomic      Atomic             Coordinates (Angstroms)
 Number     Number       Type             X           Y           Z
 ---------------------------------------------------------------------
      1          6           0       -1.855797    0.090859   -0.030585
      2          6           0       -0.612690   -0.384500    0.031119
      3          6           0        0.606789    0.439721   -0.012660
      4          6           0        1.849253   -0.131058   -0.012258
      5          1           0       -2.721809   -0.538120    0.096386
      6          1           0       -2.041555    1.126642   -0.050032
      7          1           0       -0.449652   -1.465128    0.025708
      8          1           0        0.525748    1.516144    0.063646
      9          1           0        2.036796   -1.190463   -0.094926
     10          1           0        2.725143    0.460794    0.105528
 ---------------------------------------------------------------------

 SCF Done:  E(RB2PLYPD3) =  -155.696564959     A.U. after   11 cycles
 E2(B2PLYPD3) =    -0.2262067632D+00 E(B2PLYPD3) =    -0.15592277172199D+03

 The electronic state is 1-A.
 Alpha  occ. eigenvalues --  -10.63283 -10.62757 -10.61844 -10.61033  -0.92443
 Alpha  occ. eigenvalues --   -0.84678  -0.70391  -0.64330  -0.54519  -0.53979
 Alpha  occ. eigenvalues --   -0.46647  -0.45876  -0.41378  -0.37587  -0.27491
 Alpha virt. eigenvalues --    0.01408   0.07028   0.07500   0.08083   0.09230
 Alpha virt. eigenvalues --    0.11615   0.12542   0.14722   0.15733   0.16372
 Alpha virt. eigenvalues --    0.18970   0.20168   0.21998   0.22902   0.23533

 Mulliken charges:
               1
     1  C   -0.169593
     2  C   -0.030482
     3  C   -0.044880
     4  C   -0.176156
     5  H    0.082992
     6  H    0.064527
     7  H    0.058351
     8  H    0.064136
     9  H    0.068712
    10  H    0.082392
 Sum of Mulliken charges =   0.00000

 Dipole moment (field-independent basis, Debye):
    X=              0.0538    Y=              0.0139    Z=              0.1454  Tot=              0.1557
 Quadrupole moment (field-independent basis, Debye-Ang):
   XX=            -23.3286   YY=            -23.0855   ZZ=            -29.3214
   XY=             -0.3265   XZ=             -0.0148   YZ=              0.1347

 1\1\GINC-NODE13\SP\RB2PLYPD3-FC\def2QZVP\C4H6\BOITTIER\26-Aug-2020\0\\
 #p B2PLYPD3/Def2QZVP\\butadiene\\0,1\C,0,-3.860545,0.205868,-0.006792\
 C,0,-2.722949,-0.483853,0.065655\C,0,-1.375321,0.106864,0.007878\C,0,-
 0.255628,-0.677753,0.020849\H,0,-4.825208,-0.254751,0.130933\H,0,-3.85
 7223,1.257613,-0.046199\H,0,-2.75673,-1.576094,0.081031\H,0,-1.261486,
 1.181581,0.063577\H,0,-0.261649,-1.754989,-0.041388\H,0,0.712587,-0.25
 0783,0.128556\\Version=ES64L-G09RevD.01\State=1-A\HF=-155.696565\MP2=-
 155.9227717\RMSD=7.311e-09\PG=C01 [X(C4H6)]\\@

 Normal termination of Gaussian 09 at Wed Aug 26 09:08:05 2020.
