 Gaussian 09, Revision D.01,
 Gaussian 09:  ES64L-G09RevD.01 24-Apr-2013

 --------------------
 #p B2PLYPD3/Def2QZVP
 --------------------

 ---------
 butadiene
 ---------
 Symbolic Z-matrix:
 Charge =  0 Multiplicity = 1

                         Standard orientation:
 ---------------------------------------------------------------------
 Center     Atomic      Atomic             Coordinates (Angstroms)
 Number     Number       Type             X           Y           Z
 ---------------------------------------------------------------------
      1          6           0       -1.844645   -0.122753   -0.028417
      2          6           0       -0.611600    0.411967    0.006182
      3          6           0        0.615147   -0.384898    0.022486
      4          6           0        1.845108    0.096727   -0.014563
      5          1           0       -2.713758    0.488643    0.021668
      6          1           0       -1.988991   -1.192497   -0.009372
      7          1           0       -0.496484    1.487622    0.080624
      8          1           0        0.476467   -1.433645    0.063331
      9          1           0        1.979282    1.177454   -0.037578
     10          1           0        2.719423   -0.533837   -0.032805
 ---------------------------------------------------------------------

 SCF Done:  E(RB2PLYPD3) =  -155.700375560     A.U. after   11 cycles
 E2(B2PLYPD3) =    -0.2253363919D+00 E(B2PLYPD3) =    -0.15592571195202D+03

 The electronic state is 1-A.
 Alpha  occ. eigenvalues --  -10.62743 -10.62015 -10.61475 -10.61310  -0.92954
 Alpha  occ. eigenvalues --   -0.85102  -0.70193  -0.64316  -0.54780  -0.54030
 Alpha  occ. eigenvalues --   -0.47000  -0.45679  -0.41194  -0.37953  -0.27828
 Alpha virt. eigenvalues --    0.01802   0.07029   0.07498   0.08120   0.09634
 Alpha virt. eigenvalues --    0.11687   0.12504   0.14652   0.15868   0.16164
 Alpha virt. eigenvalues --    0.18852   0.20521   0.21499   0.22899   0.23910

 Mulliken charges:
               1
     1  C   -0.176288
     2  C   -0.036646
     3  C   -0.026306
     4  C   -0.174655
     5  H    0.086982
     6  H    0.066005
     7  H    0.054848
     8  H    0.055326
     9  H    0.061493
    10  H    0.089241
 Sum of Mulliken charges =   0.00000

 Dipole moment (field-independent basis, Debye):
    X=             -0.0155    Y=             -0.0235    Z=              0.0989  Tot=              0.1028
 Quadrupole moment (field-independent basis, Debye-Ang):
   XX=            -23.3883   YY=            -23.1425   ZZ=            -29.2138
   XY=              0.0125   XZ=             -0.2527   YZ=              0.0361

 1\1\GINC-NODE21\SP\RB2PLYPD3-FC\def2QZVP\C4H6\BOITTIER\26-Aug-2020\0\\
 #p B2PLYPD3/Def2QZVP\\butadiene\\0,1\C,0,-3.846011,0.233795,0.041147\C
 ,0,-2.727532,-0.512042,0.025158\C,0,-1.378812,0.053685,-0.007615\C,0,-
 0.253865,-0.637469,0.046609\H,0,-4.80992,-0.214722,0.003984\H,0,-3.798
 152,1.311284,-0.006577\H,0,-2.805305,-1.59264,-0.020524\H,0,-1.329129,
 1.108934,-0.076558\H,0,-0.31368,-1.723852,0.098554\H,0,0.718533,-0.171
 864,0.051455\\Version=ES64L-G09RevD.01\State=1-A\HF=-155.7003756\MP2=-
 155.925712\RMSD=5.891e-09\PG=C01 [X(C4H6)]\\@

 Normal termination of Gaussian 09 at Wed Aug 26 16:13:25 2020.
