 Gaussian 09, Revision D.01,
 Gaussian 09:  ES64L-G09RevD.01 24-Apr-2013

 --------------------
 #p B2PLYPD3/Def2QZVP
 --------------------

 ---------
 butadiene
 ---------
 Symbolic Z-matrix:
 Charge =  0 Multiplicity = 1

                         Standard orientation:
 ---------------------------------------------------------------------
 Center     Atomic      Atomic             Coordinates (Angstroms)
 Number     Number       Type             X           Y           Z
 ---------------------------------------------------------------------
      1          6           0        1.854950    0.098953   -0.050597
      2          6           0        0.603972   -0.386786    0.017939
      3          6           0       -0.620020    0.413688    0.038746
      4          6           0       -1.855108   -0.109534   -0.037836
      5          1           0        2.703380   -0.581458    0.050797
      6          1           0        2.122358    1.164818   -0.071224
      7          1           0        0.441334   -1.427930    0.194952
      8          1           0       -0.484336    1.498198    0.127157
      9          1           0       -1.946825   -1.240882   -0.118722
     10          1           0       -2.738673    0.489326    0.007529
 ---------------------------------------------------------------------

 SCF Done:  E(RB2PLYPD3) =  -155.695616221     A.U. after   11 cycles
 E2(B2PLYPD3) =    -0.2265213335D+00 E(B2PLYPD3) =    -0.15592213755494D+03

 The electronic state is 1-A.
 Alpha  occ. eigenvalues --  -10.62851 -10.62672 -10.62210 -10.62029  -0.92638
 Alpha  occ. eigenvalues --   -0.84605  -0.70089  -0.63759  -0.54738  -0.53121
 Alpha  occ. eigenvalues --   -0.47255  -0.45085  -0.40929  -0.37566  -0.27750
 Alpha virt. eigenvalues --    0.01470   0.07025   0.07320   0.07991   0.09469
 Alpha virt. eigenvalues --    0.11561   0.12301   0.14581   0.15628   0.16118
 Alpha virt. eigenvalues --    0.18887   0.20258   0.21305   0.22411   0.23767

 Mulliken charges:
               1
     1  C   -0.175035
     2  C   -0.032995
     3  C   -0.036962
     4  C   -0.172097
     5  H    0.080239
     6  H    0.068160
     7  H    0.061835
     8  H    0.054325
     9  H    0.058331
    10  H    0.094199
 Sum of Mulliken charges =   0.00000

 Dipole moment (field-independent basis, Debye):
    X=             -0.0080    Y=              0.0506    Z=              0.2113  Tot=              0.2174
 Quadrupole moment (field-independent basis, Debye-Ang):
   XX=            -23.4319   YY=            -23.2351   ZZ=            -29.3627
   XY=              0.1779   XZ=              0.2407   YZ=             -0.0668

 1\1\GINC-NODE10\SP\RB2PLYPD3-FC\def2QZVP\C4H6\BOITTIER\26-Aug-2020\0\\
 #p B2PLYPD3/Def2QZVP\\butadiene\\0,1\C,0,-3.860718,0.217642,0.061444\C
 ,0,-2.71831,-0.488007,0.010969\C,0,-1.369782,0.077065,-0.027948\C,0,-0
 .249548,-0.658468,0.067632\H,0,-4.81836,-0.300744,-0.023831\H,0,-3.930
 946,1.314439,0.051238\H,0,-2.746905,-1.54597,-0.136212\H,0,-1.30726,1.
 165301,-0.147206\H,0,-0.363794,-1.785014,0.180525\H,0,0.727669,-0.2307
 49,0.008616\\Version=ES64L-G09RevD.01\State=1-A\HF=-155.6956162\MP2=-1
 55.9221376\RMSD=4.071e-09\PG=C01 [X(C4H6)]\\@

 Normal termination of Gaussian 09 at Wed Aug 26 11:17:12 2020.
