 Gaussian 09, Revision D.01,
 Gaussian 09:  ES64L-G09RevD.01 24-Apr-2013

 --------------------
 #p B2PLYPD3/Def2QZVP
 --------------------

 ---------
 butadiene
 ---------
 Symbolic Z-matrix:
 Charge =  0 Multiplicity = 1

                         Standard orientation:
 ---------------------------------------------------------------------
 Center     Atomic      Atomic             Coordinates (Angstroms)
 Number     Number       Type             X           Y           Z
 ---------------------------------------------------------------------
      1          6           0       -1.846649   -0.124615   -0.001725
      2          6           0       -0.616061    0.406145   -0.012687
      3          6           0        0.612445   -0.392926   -0.010437
      4          6           0        1.851936    0.107940    0.012861
      5          1           0       -2.714704    0.530668    0.014838
      6          1           0       -1.983142   -1.200207    0.090727
      7          1           0       -0.525047    1.505074   -0.045972
      8          1           0        0.470830   -1.458130   -0.024561
      9          1           0        2.008085    1.180123    0.087886
     10          1           0        2.733958   -0.536795   -0.050994
 ---------------------------------------------------------------------

 SCF Done:  E(RB2PLYPD3) =  -155.699930807     A.U. after   11 cycles
 E2(B2PLYPD3) =    -0.2260389149D+00 E(B2PLYPD3) =    -0.15592596972172D+03

 The electronic state is 1-A.
 Alpha  occ. eigenvalues --  -10.62871 -10.62580 -10.61746 -10.61731  -0.92702
 Alpha  occ. eigenvalues --   -0.84857  -0.69829  -0.63899  -0.54205  -0.53966
 Alpha  occ. eigenvalues --   -0.46492  -0.45633  -0.41123  -0.37911  -0.27725
 Alpha virt. eigenvalues --    0.01688   0.06978   0.07408   0.07975   0.09514
 Alpha virt. eigenvalues --    0.11685   0.12330   0.14631   0.15847   0.16085
 Alpha virt. eigenvalues --    0.18808   0.20372   0.21377   0.22804   0.23869

 Mulliken charges:
               1
     1  C   -0.176677
     2  C   -0.030469
     3  C   -0.033528
     4  C   -0.175302
     5  H    0.086607
     6  H    0.067187
     7  H    0.051760
     8  H    0.056285
     9  H    0.067123
    10  H    0.087014
 Sum of Mulliken charges =   0.00000

 Dipole moment (field-independent basis, Debye):
    X=             -0.0062    Y=              0.0009    Z=              0.0581  Tot=              0.0584
 Quadrupole moment (field-independent basis, Debye-Ang):
   XX=            -23.5785   YY=            -23.0635   ZZ=            -29.3500
   XY=             -0.0004   XZ=             -0.2036   YZ=              0.0134

 1\1\GINC-NODE01\SP\RB2PLYPD3-FC\def2QZVP\C4H6\BOITTIER\26-Aug-2020\0\\
 #p B2PLYPD3/Def2QZVP\\butadiene\\0,1\C,0,-3.848386,0.23144,0.015819\C,
 0,-2.73012,-0.506602,0.046619\C,0,-1.380379,0.063881,0.024375\C,0,-0.2
 4817,-0.647338,0.020063\H,0,-4.818066,-0.261419,0.016107\H,0,-3.79405,
 1.311015,-0.109243\H,0,-2.833451,-1.602932,0.113094\H,0,-1.332685,1.13
 7336,0.006135\H,0,-0.282909,-1.732043,-0.022314\H,0,0.733507,-0.16589,
 0.067407\\Version=ES64L-G09RevD.01\State=1-A\HF=-155.6999308\MP2=-155.
 9259697\RMSD=3.320e-09\PG=C01 [X(C4H6)]\\@

 Normal termination of Gaussian 09 at Wed Aug 26 21:51:50 2020.
