 Gaussian 09, Revision D.01,
 Gaussian 09:  ES64L-G09RevD.01 24-Apr-2013

 --------------------
 #p B2PLYPD3/Def2QZVP
 --------------------

 ---------
 butadiene
 ---------
 Symbolic Z-matrix:
 Charge =  0 Multiplicity = 1

                         Standard orientation:
 ---------------------------------------------------------------------
 Center     Atomic      Atomic             Coordinates (Angstroms)
 Number     Number       Type             X           Y           Z
 ---------------------------------------------------------------------
      1          6           0       -1.809968    0.106265   -0.059092
      2          6           0       -0.615653   -0.424511    0.075613
      3          6           0        0.583883    0.419233    0.014751
      4          6           0        1.833532   -0.125204   -0.071842
      5          1           0       -2.712674   -0.511671    0.012967
      6          1           0       -1.804924    1.308891   -0.214085
      7          1           0       -0.537993   -1.461734    0.173374
      8          1           0        0.460620    1.532568    0.315440
      9          1           0        1.950780   -1.243415   -0.124192
     10          1           0        2.693425    0.520660    0.079925
 ---------------------------------------------------------------------

 SCF Done:  E(RB2PLYPD3) =  -155.675690168     A.U. after   12 cycles
 E2(B2PLYPD3) =    -0.2278735878D+00 E(B2PLYPD3) =    -0.15590356375606D+03

 The electronic state is 1-A.
 Alpha  occ. eigenvalues --  -10.63778 -10.62515 -10.62388 -10.61794  -0.92870
 Alpha  occ. eigenvalues --   -0.84417  -0.68658  -0.63297  -0.54273  -0.52895
 Alpha  occ. eigenvalues --   -0.46042  -0.44184  -0.41186  -0.37436  -0.27786
 Alpha virt. eigenvalues --    0.01823   0.06776   0.07138   0.07598   0.09042
 Alpha virt. eigenvalues --    0.11667   0.12074   0.14097   0.15187   0.16214
 Alpha virt. eigenvalues --    0.18476   0.19578   0.20760   0.22368   0.24468

 Mulliken charges:
               1
     1  C   -0.157355
     2  C   -0.039385
     3  C   -0.032179
     4  C   -0.185045
     5  H    0.090580
     6  H    0.049191
     7  H    0.060855
     8  H    0.058673
     9  H    0.067537
    10  H    0.087129
 Sum of Mulliken charges =   0.00000

 Dipole moment (field-independent basis, Debye):
    X=             -0.0209    Y=             -0.1727    Z=              0.3087  Tot=              0.3543
 Quadrupole moment (field-independent basis, Debye-Ang):
   XX=            -24.2929   YY=            -23.0247   ZZ=            -29.4150
   XY=              0.4043   XZ=              0.3992   YZ=              0.1693

 1\1\GINC-NODE07\SP\RB2PLYPD3-FC\def2QZVP\C4H6\BOITTIER\26-Aug-2020\0\\
 #p B2PLYPD3/Def2QZVP\\butadiene\\0,1\C,0,-3.813553,0.209578,-0.038055\
 C,0,-2.731377,-0.520409,0.111181\C,0,-1.40207,0.098059,0.040927\C,0,-0
 .267538,-0.659076,-0.030615\H,0,-4.810958,-0.238624,0.040771\H,0,-3.59
 688,1.389603,-0.21398\H,0,-2.837471,-1.553204,0.227365\H,0,-1.327998,1
 .220938,0.321599\H,0,-0.348711,-1.781239,-0.06293\H,0,0.692343,-0.1718
 4,0.113672\\Version=ES64L-G09RevD.01\State=1-A\HF=-155.6756902\MP2=-15
 5.9035638\RMSD=3.644e-09\PG=C01 [X(C4H6)]\\@

 Normal termination of Gaussian 09 at Wed Aug 26 12:57:20 2020.
