 Gaussian 09, Revision D.01,
 Gaussian 09:  ES64L-G09RevD.01 24-Apr-2013

 --------------------
 #p B2PLYPD3/Def2QZVP
 --------------------

 ---------
 butadiene
 ---------
 Symbolic Z-matrix:
 Charge =  0 Multiplicity = 1

                         Standard orientation:
 ---------------------------------------------------------------------
 Center     Atomic      Atomic             Coordinates (Angstroms)
 Number     Number       Type             X           Y           Z
 ---------------------------------------------------------------------
      1          6           0        1.814996    0.159959    0.014924
      2          6           0        0.618885   -0.469501   -0.095128
      3          6           0       -0.596002    0.357859   -0.086498
      4          6           0       -1.797396   -0.097556    0.054298
      5          1           0        2.685722   -0.412245    0.337401
      6          1           0        1.781035    1.260352    0.111894
      7          1           0        0.461428   -1.500832   -0.037285
      8          1           0       -0.530217    1.430443   -0.014323
      9          1           0       -1.991754   -1.118309    0.158585
     10          1           0       -2.649105    0.636026    0.118156
 ---------------------------------------------------------------------

 SCF Done:  E(RB2PLYPD3) =  -155.685925427     A.U. after   11 cycles
 E2(B2PLYPD3) =    -0.2258499651D+00 E(B2PLYPD3) =    -0.15591177539200D+03

 The electronic state is 1-A.
 Alpha  occ. eigenvalues --  -10.62751 -10.62142 -10.61494 -10.60528  -0.93441
 Alpha  occ. eigenvalues --   -0.85225  -0.69274  -0.64864  -0.54887  -0.53468
 Alpha  occ. eigenvalues --   -0.46552  -0.45451  -0.41092  -0.38192  -0.27866
 Alpha virt. eigenvalues --    0.01998   0.06910   0.07434   0.08048   0.09265
 Alpha virt. eigenvalues --    0.11908   0.12505   0.14688   0.15670   0.16208
 Alpha virt. eigenvalues --    0.18628   0.19603   0.21640   0.23309   0.24178

 Mulliken charges:
               1
     1  C   -0.156464
     2  C   -0.060232
     3  C   -0.003991
     4  C   -0.176602
     5  H    0.080275
     6  H    0.063172
     7  H    0.068117
     8  H    0.049611
     9  H    0.062433
    10  H    0.073681
 Sum of Mulliken charges =   0.00000

 Dipole moment (field-independent basis, Debye):
    X=             -0.0643    Y=             -0.0731    Z=              0.4983  Tot=              0.5077
 Quadrupole moment (field-independent basis, Debye-Ang):
   XX=            -24.5853   YY=            -22.8664   ZZ=            -29.0137
   XY=             -0.1254   XZ=              0.5963   YZ=             -0.0903

 1\1\GINC-NODE30\SP\RB2PLYPD3-FC\def2QZVP\C4H6\BOITTIER\26-Aug-2020\0\\
 #p B2PLYPD3/Def2QZVP\\butadiene\\0,1\C,0,-3.805575,0.261553,-0.020092\
 C,0,-2.737393,-0.561592,0.12285\C,0,-1.396851,0.040238,0.086831\C,0,-0
 .293517,-0.62311,-0.02805\H,0,-4.763263,-0.163113,-0.323514\H,0,-3.580
 386,1.334139,-0.162474\H,0,-2.762301,-1.606084,0.108783\H,0,-1.27469,1
 .10389,-0.030193\H,0,-0.28032,-1.665573,-0.088749\H,0,0.672969,-0.0525
 47,-0.117435\\Version=ES64L-G09RevD.01\State=1-A\HF=-155.6859254\MP2=-
 155.9117754\RMSD=8.607e-09\PG=C01 [X(C4H6)]\\@

 Normal termination of Gaussian 09 at Wed Aug 26 11:52:28 2020.
