 Gaussian 09, Revision D.01,
 Gaussian 09:  ES64L-G09RevD.01 24-Apr-2013

 --------------------
 #p B2PLYPD3/Def2QZVP
 --------------------

 ---------
 butadiene
 ---------
 Symbolic Z-matrix:
 Charge =  0 Multiplicity = 1

                         Standard orientation:
 ---------------------------------------------------------------------
 Center     Atomic      Atomic             Coordinates (Angstroms)
 Number     Number       Type             X           Y           Z
 ---------------------------------------------------------------------
      1          6           0       -1.827524   -0.132951   -0.030589
      2          6           0       -0.603063    0.446376    0.031186
      3          6           0        0.592525   -0.392299    0.036825
      4          6           0        1.830959    0.082498   -0.042654
      5          1           0       -2.737835    0.484056   -0.059769
      6          1           0       -1.953540   -1.181141   -0.006082
      7          1           0       -0.458695    1.502044    0.003465
      8          1           0        0.410809   -1.478199    0.102860
      9          1           0        2.018857    1.129168    0.102139
     10          1           0        2.763022   -0.477674   -0.111216
 ---------------------------------------------------------------------

 SCF Done:  E(RB2PLYPD3) =  -155.695480851     A.U. after   11 cycles
 E2(B2PLYPD3) =    -0.2261942196D+00 E(B2PLYPD3) =    -0.15592167507053D+03

 The electronic state is 1-A.
 Alpha  occ. eigenvalues --  -10.62852 -10.62722 -10.61822 -10.61280  -0.92917
 Alpha  occ. eigenvalues --   -0.84597  -0.70134  -0.64585  -0.54723  -0.53581
 Alpha  occ. eigenvalues --   -0.47015  -0.45477  -0.41259  -0.37787  -0.27456
 Alpha virt. eigenvalues --    0.01638   0.07025   0.07389   0.08120   0.09134
 Alpha virt. eigenvalues --    0.11650   0.12672   0.14614   0.15790   0.16366
 Alpha virt. eigenvalues --    0.18785   0.20251   0.21981   0.23361   0.23432

 Mulliken charges:
               1
     1  C   -0.174523
     2  C   -0.040413
     3  C   -0.024290
     4  C   -0.172803
     5  H    0.080921
     6  H    0.073002
     7  H    0.066222
     8  H    0.053748
     9  H    0.058045
    10  H    0.080090
 Sum of Mulliken charges =   0.00000

 Dipole moment (field-independent basis, Debye):
    X=             -0.0199    Y=              0.0215    Z=              0.0805  Tot=              0.0857
 Quadrupole moment (field-independent basis, Debye-Ang):
   XX=            -23.3806   YY=            -23.1936   ZZ=            -29.2808
   XY=              0.3597   XZ=              0.1070   YZ=              0.0430

 1\1\GINC-NODE19\SP\RB2PLYPD3-FC\def2QZVP\C4H6\BOITTIER\26-Aug-2020\0\\
 #p B2PLYPD3/Def2QZVP\\butadiene\\0,1\C,0,-3.823003,0.251364,0.049498\C
 ,0,-2.725709,-0.544003,0.003932\C,0,-1.396693,0.060862,-0.022422\C,0,-
 0.265958,-0.630709,0.070513\H,0,-4.830858,-0.187354,0.093881\H,0,-3.75
 4869,1.303909,-0.002377\H,0,-2.77716,-1.607178,0.059231\H,0,-1.376564,
 1.159606,-0.116843\H,0,-0.273635,-1.69746,-0.046838\H,0,0.753242,-0.24
 9316,0.125336\\Version=ES64L-G09RevD.01\State=1-A\HF=-155.6954809\MP2=
 -155.9216751\RMSD=7.626e-09\PG=C01 [X(C4H6)]\\@

 Normal termination of Gaussian 09 at Wed Aug 26 09:25:41 2020.
