 Gaussian 09, Revision D.01,
 Gaussian 09:  ES64L-G09RevD.01 24-Apr-2013

 --------------------
 #p B2PLYPD3/Def2QZVP
 --------------------

 ---------
 butadiene
 ---------
 Symbolic Z-matrix:
 Charge =  0 Multiplicity = 1

                         Standard orientation:
 ---------------------------------------------------------------------
 Center     Atomic      Atomic             Coordinates (Angstroms)
 Number     Number       Type             X           Y           Z
 ---------------------------------------------------------------------
      1          6           0        1.819955   -0.117600    0.019324
      2          6           0        0.594454    0.426421   -0.016949
      3          6           0       -0.594435   -0.391963   -0.047225
      4          6           0       -1.845786    0.098183    0.000167
      5          1           0        2.676408    0.509754    0.067912
      6          1           0        2.001240   -1.228835   -0.035693
      7          1           0        0.499346    1.526475   -0.006663
      8          1           0       -0.366882   -1.451305    0.080664
      9          1           0       -2.018205    1.151903    0.052248
     10          1           0       -2.637038   -0.598238    0.109633
 ---------------------------------------------------------------------

 SCF Done:  E(RB2PLYPD3) =  -155.695566147     A.U. after   11 cycles
 E2(B2PLYPD3) =    -0.2263851548D+00 E(B2PLYPD3) =    -0.15592195130177D+03

 The electronic state is 1-A.
 Alpha  occ. eigenvalues --  -10.62649 -10.62520 -10.61828 -10.61246  -0.93049
 Alpha  occ. eigenvalues --   -0.84716  -0.70299  -0.63730  -0.54525  -0.53895
 Alpha  occ. eigenvalues --   -0.46223  -0.45874  -0.41317  -0.38086  -0.27424
 Alpha virt. eigenvalues --    0.01555   0.07084   0.07226   0.08113   0.09353
 Alpha virt. eigenvalues --    0.11758   0.12320   0.14802   0.15531   0.16230
 Alpha virt. eigenvalues --    0.18691   0.20183   0.21513   0.23293   0.23916

 Mulliken charges:
               1
     1  C   -0.177827
     2  C   -0.029744
     3  C   -0.025179
     4  C   -0.183770
     5  H    0.085570
     6  H    0.062751
     7  H    0.051331
     8  H    0.055607
     9  H    0.073244
    10  H    0.088017
 Sum of Mulliken charges =   0.00000

 Dipole moment (field-independent basis, Debye):
    X=              0.0707    Y=              0.0343    Z=              0.2017  Tot=              0.2165
 Quadrupole moment (field-independent basis, Debye-Ang):
   XX=            -23.8791   YY=            -22.9339   ZZ=            -29.3103
   XY=             -0.2346   XZ=             -0.3782   YZ=             -0.0480

 1\1\GINC-NODE32\SP\RB2PLYPD3-FC\def2QZVP\C4H6\BOITTIER\26-Aug-2020\0\\
 #p B2PLYPD3/Def2QZVP\\butadiene\\0,1\C,0,-3.820936,0.241263,0.038125\C
 ,0,-2.71801,-0.521861,0.020097\C,0,-1.397626,0.060226,-0.023331\C,0,-0
 .25931,-0.652827,0.041171\H,0,-4.779158,-0.214571,0.097047\H,0,-3.7923
 25,1.36523,-0.043198\H,0,-2.829197,-1.619866,0.056039\H,0,-1.424195,1.
 146103,0.079174\H,0,-0.285931,-1.718718,0.118198\H,0,0.64764,-0.113328
 ,0.13837\\Version=ES64L-G09RevD.01\State=1-A\HF=-155.6955661\MP2=-155.
 9219513\RMSD=5.610e-09\PG=C01 [X(C4H6)]\\@

 Normal termination of Gaussian 09 at Wed Aug 26 08:53:23 2020.
