 Gaussian 09, Revision D.01,
 Gaussian 09:  ES64L-G09RevD.01 24-Apr-2013

 --------------------
 #p B2PLYPD3/Def2QZVP
 --------------------

 ---------
 butadiene
 ---------
 Symbolic Z-matrix:
 Charge =  0 Multiplicity = 1

                         Standard orientation:
 ---------------------------------------------------------------------
 Center     Atomic      Atomic             Coordinates (Angstroms)
 Number     Number       Type             X           Y           Z
 ---------------------------------------------------------------------
      1          6           0        1.856361   -0.138688    0.007668
      2          6           0        0.617081    0.438043   -0.058735
      3          6           0       -0.634073   -0.330262   -0.044674
      4          6           0       -1.854794    0.058321    0.045680
      5          1           0        2.724262    0.404170    0.007364
      6          1           0        1.951009   -1.236221    0.339063
      7          1           0        0.506459    1.538889   -0.025342
      8          1           0       -0.379591   -1.442435   -0.170038
      9          1           0       -1.997097    1.186036    0.198767
     10          1           0       -2.712491   -0.614925   -0.049450
 ---------------------------------------------------------------------

 SCF Done:  E(RB2PLYPD3) =  -155.678766235     A.U. after   11 cycles
 E2(B2PLYPD3) =    -0.2269167800D+00 E(B2PLYPD3) =    -0.15590568301549D+03

 The electronic state is 1-A.
 Alpha  occ. eigenvalues --  -10.63704 -10.62469 -10.62398 -10.61754  -0.92859
 Alpha  occ. eigenvalues --   -0.85195  -0.70277  -0.62409  -0.55283  -0.52616
 Alpha  occ. eigenvalues --   -0.47851  -0.44736  -0.39532  -0.37969  -0.28103
 Alpha virt. eigenvalues --    0.01302   0.06970   0.07064   0.07978   0.09681
 Alpha virt. eigenvalues --    0.11570   0.12153   0.14500   0.15594   0.16243
 Alpha virt. eigenvalues --    0.18814   0.19998   0.20871   0.22496   0.23485

 Mulliken charges:
               1
     1  C   -0.168264
     2  C   -0.048064
     3  C   -0.001616
     4  C   -0.173669
     5  H    0.092386
     6  H    0.061011
     7  H    0.048706
     8  H    0.034391
     9  H    0.053902
    10  H    0.101216
 Sum of Mulliken charges =   0.00000

 Dipole moment (field-independent basis, Debye):
    X=              0.0407    Y=              0.0670    Z=              0.2132  Tot=              0.2272
 Quadrupole moment (field-independent basis, Debye-Ang):
   XX=            -23.3563   YY=            -23.6347   ZZ=            -29.2178
   XY=              0.1844   XZ=              0.5265   YZ=             -0.0069

 1\1\GINC-NODE27\SP\RB2PLYPD3-FC\def2QZVP\C4H6\BOITTIER\26-Aug-2020\0\\
 #p B2PLYPD3/Def2QZVP\\butadiene\\0,1\C,0,-3.854884,0.25523,0.037914\C,
 0,-2.738789,-0.534787,-0.017309\C,0,-1.370602,-0.001975,-0.024457\C,0,
 -0.238202,-0.599956,0.072548\H,0,-4.805674,-0.123889,0.052557\H,0,-3.7
 5013,1.359445,0.343031\H,0,-2.826068,-1.636623,0.0423\H,0,-1.423446,1.
 134536,-0.175969\H,0,-0.29833,-1.731092,0.252393\H,0,0.725188,-0.09297
 8,-0.040614\\Version=ES64L-G09RevD.01\State=1-A\HF=-155.6787662\MP2=-1
 55.905683\RMSD=8.470e-09\PG=C01 [X(C4H6)]\\@

 Normal termination of Gaussian 09 at Wed Aug 26 15:51:14 2020.
