 Gaussian 09, Revision D.01,
 Gaussian 09:  ES64L-G09RevD.01 24-Apr-2013

 --------------------
 #p B2PLYPD3/Def2QZVP
 --------------------

 ---------
 butadiene
 ---------
 Symbolic Z-matrix:
 Charge =  0 Multiplicity = 1

                         Standard orientation:
 ---------------------------------------------------------------------
 Center     Atomic      Atomic             Coordinates (Angstroms)
 Number     Number       Type             X           Y           Z
 ---------------------------------------------------------------------
      1          6           0        1.840420    0.113621    0.014452
      2          6           0        0.609629   -0.402139   -0.009117
      3          6           0       -0.602925    0.396803   -0.022868
      4          6           0       -1.841294   -0.114266    0.016725
      5          1           0        2.703664   -0.532275   -0.035612
      6          1           0        2.014874    1.180496    0.077711
      7          1           0        0.491410   -1.494918   -0.028383
      8          1           0       -0.473604    1.472014   -0.053360
      9          1           0       -2.071044   -1.128319    0.038684
     10          1           0       -2.700282    0.538885    0.005808
 ---------------------------------------------------------------------

 SCF Done:  E(RB2PLYPD3) =  -155.699909017     A.U. after   11 cycles
 E2(B2PLYPD3) =    -0.2255614700D+00 E(B2PLYPD3) =    -0.15592547048684D+03

 The electronic state is 1-A.
 Alpha  occ. eigenvalues --  -10.62634 -10.62575 -10.61466 -10.61096  -0.92911
 Alpha  occ. eigenvalues --   -0.84952  -0.70480  -0.64152  -0.54704  -0.54100
 Alpha  occ. eigenvalues --   -0.46687  -0.45852  -0.41150  -0.38055  -0.27617
 Alpha virt. eigenvalues --    0.01662   0.06994   0.07477   0.08039   0.09622
 Alpha virt. eigenvalues --    0.11674   0.12442   0.14891   0.15940   0.16099
 Alpha virt. eigenvalues --    0.18814   0.20582   0.21760   0.22759   0.23740

 Mulliken charges:
               1
     1  C   -0.176840
     2  C   -0.029991
     3  C   -0.032214
     4  C   -0.175744
     5  H    0.085741
     6  H    0.066969
     7  H    0.054040
     8  H    0.057395
     9  H    0.071079
    10  H    0.079565
 Sum of Mulliken charges =   0.00000

 Dipole moment (field-independent basis, Debye):
    X=             -0.0127    Y=             -0.0203    Z=             -0.0123  Tot=              0.0270
 Quadrupole moment (field-independent basis, Debye-Ang):
   XX=            -23.4251   YY=            -23.0471   ZZ=            -29.2443
   XY=              0.2925   XZ=             -0.0479   YZ=              0.0515

 1\1\GINC-NODE15\SP\RB2PLYPD3-FC\def2QZVP\C4H6\BOITTIER\26-Aug-2020\0\\
 #p B2PLYPD3/Def2QZVP\\butadiene\\0,1\C,0,-3.841145,0.228509,0.003968\C
 ,0,-2.723368,-0.499638,0.046243\C,0,-1.386633,0.06765,0.03586\C,0,-0.2
 60831,-0.659293,0.014865\H,0,-4.806433,-0.249229,0.073693\H,0,-3.82073
 9,1.306744,-0.094275\H,0,-2.803946,-1.594623,0.101272\H,0,-1.319925,1.
 148973,0.031117\H,0,-0.217696,-1.698321,0.026302\H,0,0.701844,-0.17168
 5,0.005846\\Version=ES64L-G09RevD.01\State=1-A\HF=-155.699909\MP2=-155
 .9254705\RMSD=4.948e-09\PG=C01 [X(C4H6)]\\@

 Normal termination of Gaussian 09 at Wed Aug 26 16:24:20 2020.
