 Gaussian 09, Revision D.01,
 Gaussian 09:  ES64L-G09RevD.01 24-Apr-2013

 --------------------
 #p B2PLYPD3/Def2QZVP
 --------------------

 ---------
 butadiene
 ---------
 Symbolic Z-matrix:
 Charge =  0 Multiplicity = 1

                         Standard orientation:
 ---------------------------------------------------------------------
 Center     Atomic      Atomic             Coordinates (Angstroms)
 Number     Number       Type             X           Y           Z
 ---------------------------------------------------------------------
      1          6           0        1.827729   -0.107091    0.007728
      2          6           0        0.603277    0.401609   -0.034492
      3          6           0       -0.596445   -0.398814   -0.013763
      4          6           0       -1.833898    0.104087    0.012412
      5          1           0        2.714272    0.521570    0.062839
      6          1           0        1.989366   -1.180112    0.032950
      7          1           0        0.465660    1.479593    0.029423
      8          1           0       -0.442920   -1.460280   -0.007013
      9          1           0       -2.046223    1.182241    0.015708
     10          1           0       -2.684136   -0.541757    0.034778
 ---------------------------------------------------------------------

 SCF Done:  E(RB2PLYPD3) =  -155.700807204     A.U. after   11 cycles
 E2(B2PLYPD3) =    -0.2255286058D+00 E(B2PLYPD3) =    -0.15592633581006D+03

 The electronic state is 1-A.
 Alpha  occ. eigenvalues --  -10.62315 -10.62238 -10.61531 -10.61477  -0.93253
 Alpha  occ. eigenvalues --   -0.84935  -0.70258  -0.64136  -0.54771  -0.53858
 Alpha  occ. eigenvalues --   -0.46817  -0.45503  -0.41089  -0.38319  -0.27681
 Alpha virt. eigenvalues --    0.01770   0.07027   0.07379   0.08101   0.09674
 Alpha virt. eigenvalues --    0.11699   0.12415   0.14796   0.15776   0.16190
 Alpha virt. eigenvalues --    0.18769   0.20418   0.21759   0.22868   0.23774

 Mulliken charges:
               1
     1  C   -0.174954
     2  C   -0.023268
     3  C   -0.033643
     4  C   -0.176217
     5  H    0.084475
     6  H    0.062909
     7  H    0.054398
     8  H    0.055671
     9  H    0.065715
    10  H    0.084913
 Sum of Mulliken charges =   0.00000

 Dipole moment (field-independent basis, Debye):
    X=              0.0074    Y=             -0.0106    Z=              0.1195  Tot=              0.1202
 Quadrupole moment (field-independent basis, Debye-Ang):
   XX=            -23.4836   YY=            -23.1092   ZZ=            -29.2189
   XY=             -0.2229   XZ=              0.1567   YZ=              0.0516

 1\1\GINC-NODE28\SP\RB2PLYPD3-FC\def2QZVP\C4H6\BOITTIER\26-Aug-2020\0\\
 #p B2PLYPD3/Def2QZVP\\butadiene\\0,1\C,0,-3.828998,0.226137,0.030876\C
 ,0,-2.718978,-0.499878,0.006414\C,0,-1.392617,0.066852,0.001548\C,0,-0
 .268387,-0.65362,0.045262\H,0,-4.815571,-0.226883,0.106092\H,0,-3.7907
 79,1.310834,0.020472\H,0,-2.781243,-1.58213,0.106052\H,0,-1.348643,1.1
 38104,-0.026929\H,0,-0.25757,-1.751737,0.084375\H,0,0.686067,-0.174522
 ,0.046885\\Version=ES64L-G09RevD.01\State=1-A\HF=-155.7008072\MP2=-155
 .9263358\RMSD=4.070e-09\PG=C01 [X(C4H6)]\\@

 Normal termination of Gaussian 09 at Wed Aug 26 21:04:38 2020.
