 Gaussian 09, Revision D.01,
 Gaussian 09:  ES64L-G09RevD.01 24-Apr-2013

 --------------------
 #p B2PLYPD3/Def2QZVP
 --------------------

 ---------
 butadiene
 ---------
 Symbolic Z-matrix:
 Charge =  0 Multiplicity = 1

                         Standard orientation:
 ---------------------------------------------------------------------
 Center     Atomic      Atomic             Coordinates (Angstroms)
 Number     Number       Type             X           Y           Z
 ---------------------------------------------------------------------
      1          6           0       -1.847094    0.097881    0.008603
      2          6           0       -0.613388   -0.375211   -0.034382
      3          6           0        0.610188    0.415867   -0.054317
      4          6           0        1.825304   -0.140258    0.024589
      5          1           0       -2.669814   -0.587656    0.113421
      6          1           0       -2.007518    1.166273    0.094974
      7          1           0       -0.460556   -1.395058   -0.017380
      8          1           0        0.575876    1.518445   -0.009902
      9          1           0        1.994820   -1.179883    0.032208
     10          1           0        2.717130    0.488204    0.119719
 ---------------------------------------------------------------------

 SCF Done:  E(RB2PLYPD3) =  -155.696835522     A.U. after   11 cycles
 E2(B2PLYPD3) =    -0.2252460421D+00 E(B2PLYPD3) =    -0.15592208156425D+03

 The electronic state is 1-A.
 Alpha  occ. eigenvalues --  -10.62738 -10.61720 -10.61396 -10.61128  -0.93146
 Alpha  occ. eigenvalues --   -0.85218  -0.70130  -0.64552  -0.54937  -0.53964
 Alpha  occ. eigenvalues --   -0.46497  -0.45904  -0.41262  -0.38146  -0.27802
 Alpha virt. eigenvalues --    0.01853   0.06983   0.07574   0.08031   0.09638
 Alpha virt. eigenvalues --    0.11748   0.12408   0.14788   0.15868   0.16171
 Alpha virt. eigenvalues --    0.18834   0.20302   0.21655   0.22931   0.24025

 Mulliken charges:
               1
     1  C   -0.172688
     2  C   -0.035177
     3  C   -0.028878
     4  C   -0.176034
     5  H    0.084430
     6  H    0.067331
     7  H    0.061100
     8  H    0.053121
     9  H    0.068274
    10  H    0.078521
 Sum of Mulliken charges =   0.00000

 Dipole moment (field-independent basis, Debye):
    X=              0.0865    Y=             -0.0615    Z=              0.2448  Tot=              0.2668
 Quadrupole moment (field-independent basis, Debye-Ang):
   XX=            -23.6811   YY=            -22.9948   ZZ=            -29.1442
   XY=             -0.0325   XZ=             -0.0986   YZ=              0.0870

 1\1\GINC-NODE26\SP\RB2PLYPD3-FC\def2QZVP\C4H6\BOITTIER\26-Aug-2020\0\\
 #p B2PLYPD3/Def2QZVP\\butadiene\\0,1\C,0,-3.85034,0.20666,0.035639\C,0
 ,-2.719191,-0.476963,0.006398\C,0,-1.375698,0.085826,-0.03404\C,0,-0.2
 76954,-0.672973,0.0608\H,0,-4.780328,-0.32048,0.158369\H,0,-3.820109,1
 .288538,0.092929\H,0,-2.747946,-1.506967,0.051123\H,0,-1.215479,1.1780
 47,-0.019522\H,0,-0.2928,-1.725624,0.096693\H,0,0.711835,-0.208793,0.1
 39541\\Version=ES64L-G09RevD.01\State=1-A\HF=-155.6968355\MP2=-155.922
 0816\RMSD=5.646e-09\PG=C01 [X(C4H6)]\\@

 Normal termination of Gaussian 09 at Wed Aug 26 10:20:03 2020.
