 Gaussian 09, Revision D.01,
 Gaussian 09:  ES64L-G09RevD.01 24-Apr-2013

 --------------------
 #p B2PLYPD3/Def2QZVP
 --------------------

 ---------
 butadiene
 ---------
 Symbolic Z-matrix:
 Charge =  0 Multiplicity = 1

                         Standard orientation:
 ---------------------------------------------------------------------
 Center     Atomic      Atomic             Coordinates (Angstroms)
 Number     Number       Type             X           Y           Z
 ---------------------------------------------------------------------
      1          6           0       -1.835585    0.103092    0.027186
      2          6           0       -0.594043   -0.401509   -0.041696
      3          6           0        0.589835    0.420894   -0.032163
      4          6           0        1.813217   -0.122849    0.007990
      5          1           0       -2.651803   -0.591652    0.156983
      6          1           0       -1.995684    1.166818   -0.021806
      7          1           0       -0.368858   -1.454450   -0.112742
      8          1           0        0.470690    1.537290   -0.007039
      9          1           0        2.010554   -1.195757    0.104855
     10          1           0        2.694558    0.539980    0.111848
 ---------------------------------------------------------------------

 SCF Done:  E(RB2PLYPD3) =  -155.695416599     A.U. after   11 cycles
 E2(B2PLYPD3) =    -0.2265534763D+00 E(B2PLYPD3) =    -0.15592197007488D+03

 The electronic state is 1-A.
 Alpha  occ. eigenvalues --  -10.62820 -10.62383 -10.61911 -10.61505  -0.93160
 Alpha  occ. eigenvalues --   -0.84578  -0.69971  -0.63840  -0.54348  -0.53597
 Alpha  occ. eigenvalues --   -0.46136  -0.45945  -0.41159  -0.38093  -0.27389
 Alpha virt. eigenvalues --    0.01622   0.07004   0.07200   0.08036   0.09334
 Alpha virt. eigenvalues --    0.11799   0.12279   0.14799   0.15530   0.16133
 Alpha virt. eigenvalues --    0.18611   0.20315   0.21571   0.23049   0.23819

 Mulliken charges:
               1
     1  C   -0.185714
     2  C   -0.029363
     3  C   -0.024144
     4  C   -0.176474
     5  H    0.087868
     6  H    0.075160
     7  H    0.058723
     8  H    0.050564
     9  H    0.066428
    10  H    0.076952
 Sum of Mulliken charges =   0.00000

 Dipole moment (field-independent basis, Debye):
    X=              0.0273    Y=             -0.0151    Z=              0.1629  Tot=              0.1659
 Quadrupole moment (field-independent basis, Debye-Ang):
   XX=            -24.0829   YY=            -22.8998   ZZ=            -29.3141
   XY=             -0.3292   XZ=              0.1673   YZ=             -0.0843

 1\1\GINC-NODE25\SP\RB2PLYPD3-FC\def2QZVP\C4H6\BOITTIER\26-Aug-2020\0\\
 #p B2PLYPD3/Def2QZVP\\butadiene\\0,1\C,0,-3.833506,0.228153,0.046264\C
 ,0,-2.707562,-0.500386,-0.001421\C,0,-1.391449,0.087546,-0.015122\C,0,
 -0.290324,-0.672418,0.047406\H,0,-4.764259,-0.298089,0.196257\H,0,-3.7
 93266,1.300864,-0.038681\H,0,-2.682176,-1.578607,-0.036577\H,0,-1.3009
 76,1.206843,-0.027603\H,0,-0.295551,-1.759469,0.180634\H,0,0.699127,-0
 .181823,0.132229\\Version=ES64L-G09RevD.01\State=1-A\HF=-155.6954166\M
 P2=-155.9219701\RMSD=5.340e-09\PG=C01 [X(C4H6)]\\@

 Normal termination of Gaussian 09 at Wed Aug 26 08:44:42 2020.
