 Gaussian 09, Revision D.01,
 Gaussian 09:  ES64L-G09RevD.01 24-Apr-2013

 --------------------
 #p B2PLYPD3/Def2QZVP
 --------------------

 ---------
 butadiene
 ---------
 Symbolic Z-matrix:
 Charge =  0 Multiplicity = 1

                         Standard orientation:
 ---------------------------------------------------------------------
 Center     Atomic      Atomic             Coordinates (Angstroms)
 Number     Number       Type             X           Y           Z
 ---------------------------------------------------------------------
      1          6           0        1.845339    0.104782    0.012268
      2          6           0        0.603184   -0.391368   -0.014993
      3          6           0       -0.605166    0.417158   -0.032207
      4          6           0       -1.829748   -0.122538    0.003234
      5          1           0        2.691760   -0.538328    0.048294
      6          1           0        1.986331    1.162719   -0.001602
      7          1           0        0.430274   -1.471042   -0.003837
      8          1           0       -0.511978    1.493908    0.040692
      9          1           0       -1.946645   -1.193494    0.030512
     10          1           0       -2.731396    0.498035    0.076129
 ---------------------------------------------------------------------

 SCF Done:  E(RB2PLYPD3) =  -155.700255250     A.U. after   11 cycles
 E2(B2PLYPD3) =    -0.2258058295D+00 E(B2PLYPD3) =    -0.15592606107972D+03

 The electronic state is 1-A.
 Alpha  occ. eigenvalues --  -10.62616 -10.62496 -10.61667 -10.61160  -0.92990
 Alpha  occ. eigenvalues --   -0.84903  -0.70091  -0.64160  -0.54493  -0.54126
 Alpha  occ. eigenvalues --   -0.46521  -0.45776  -0.41378  -0.38073  -0.27607
 Alpha virt. eigenvalues --    0.01720   0.07040   0.07408   0.08070   0.09499
 Alpha virt. eigenvalues --    0.11728   0.12488   0.14688   0.15789   0.16153
 Alpha virt. eigenvalues --    0.18731   0.20381   0.21613   0.23155   0.23905

 Mulliken charges:
               1
     1  C   -0.181558
     2  C   -0.028558
     3  C   -0.028473
     4  C   -0.175739
     5  H    0.090378
     6  H    0.068756
     7  H    0.050663
     8  H    0.055516
     9  H    0.064814
    10  H    0.084202
 Sum of Mulliken charges =   0.00000

 Dipole moment (field-independent basis, Debye):
    X=             -0.0271    Y=              0.0073    Z=              0.1424  Tot=              0.1451
 Quadrupole moment (field-independent basis, Debye-Ang):
   XX=            -23.5874   YY=            -23.0577   ZZ=            -29.2752
   XY=              0.0523   XZ=             -0.1925   YZ=              0.0374

 1\1\GINC-NODE18\SP\RB2PLYPD3-FC\def2QZVP\C4H6\BOITTIER\26-Aug-2020\0\\
 #p B2PLYPD3/Def2QZVP\\butadiene\\0,1\C,0,-3.847753,0.216758,0.004978\C
 ,0,-2.714219,-0.49253,0.048182\C,0,-1.380686,0.086908,0.040325\C,0,-0.
 272563,-0.664001,0.022222\H,0,-4.795716,-0.265348,-0.011062\H,0,-3.797
 208,1.282765,-0.014455\H,0,-2.737233,-1.585538,0.07102\H,0,-1.280207,1
 .160174,-0.066412\H,0,-0.349214,-1.738914,0.028656\H,0,0.725124,-0.217
 312,-0.069881\\Version=ES64L-G09RevD.01\State=1-A\HF=-155.7002553\MP2=
 -155.9260611\RMSD=2.879e-09\PG=C01 [X(C4H6)]\\@

 Normal termination of Gaussian 09 at Wed Aug 26 11:36:24 2020.
