 Gaussian 09, Revision D.01,
 Gaussian 09:  ES64L-G09RevD.01 24-Apr-2013

 --------------------
 #p B2PLYPD3/Def2QZVP
 --------------------

 ---------
 butadiene
 ---------
 Symbolic Z-matrix:
 Charge =  0 Multiplicity = 1

                         Standard orientation:
 ---------------------------------------------------------------------
 Center     Atomic      Atomic             Coordinates (Angstroms)
 Number     Number       Type             X           Y           Z
 ---------------------------------------------------------------------
      1          6           0        1.845227   -0.087970   -0.040313
      2          6           0        0.591733    0.369010    0.047869
      3          6           0       -0.625570   -0.463529    0.007267
      4          6           0       -1.847963    0.129271   -0.077092
      5          1           0        2.730143    0.598628    0.021185
      6          1           0        2.091733   -1.095797   -0.146974
      7          1           0        0.369282    1.426449    0.226259
      8          1           0       -0.381535   -1.446947    0.208002
      9          1           0       -1.797137    1.279220   -0.124292
     10          1           0       -2.793049   -0.442245    0.189437
 ---------------------------------------------------------------------

 SCF Done:  E(RB2PLYPD3) =  -155.680162313     A.U. after   12 cycles
 E2(B2PLYPD3) =    -0.2275597919D+00 E(B2PLYPD3) =    -0.15590772210447D+03

 The electronic state is 1-A.
 Alpha  occ. eigenvalues --  -10.63419 -10.62745 -10.62663 -10.61639  -0.92746
 Alpha  occ. eigenvalues --   -0.84254  -0.69736  -0.64693  -0.54453  -0.52419
 Alpha  occ. eigenvalues --   -0.47307  -0.45454  -0.40540  -0.37192  -0.27764
 Alpha virt. eigenvalues --    0.01241   0.06906   0.07349   0.07940   0.09107
 Alpha virt. eigenvalues --    0.11735   0.12393   0.14371   0.15571   0.15724
 Alpha virt. eigenvalues --    0.18734   0.19536   0.21327   0.22401   0.24037

 Mulliken charges:
               1
     1  C   -0.182991
     2  C   -0.023846
     3  C   -0.045944
     4  C   -0.164150
     5  H    0.079997
     6  H    0.069712
     7  H    0.053181
     8  H    0.067468
     9  H    0.059095
    10  H    0.087477
 Sum of Mulliken charges =   0.00000

 Dipole moment (field-independent basis, Debye):
    X=              0.0946    Y=             -0.0942    Z=              0.3831  Tot=              0.4057
 Quadrupole moment (field-independent basis, Debye-Ang):
   XX=            -23.8335   YY=            -23.3884   ZZ=            -29.3301
   XY=             -0.3417   XZ=             -0.7219   YZ=             -0.0906

 1\1\GINC-NODE18\SP\RB2PLYPD3-FC\def2QZVP\C4H6\BOITTIER\26-Aug-2020\0\\
 #p B2PLYPD3/Def2QZVP\\butadiene\\0,1\C,0,-3.856044,0.201773,-0.022179\
 C,0,-2.70699,-0.473645,0.084319\C,0,-1.358347,0.122525,0.035945\C,0,-0
 .263985,-0.68439,-0.027563\H,0,-4.851364,-0.310948,0.046593\H,0,-3.914
 606,1.235154,-0.150824\H,0,-2.681366,-1.549914,0.285496\H,0,-1.420014,
 1.13793,0.215133\H,0,-0.523108,-1.806641,-0.052071\H,0,0.768389,-0.288
 848,0.234365\\Version=ES64L-G09RevD.01\State=1-A\HF=-155.6801623\MP2=-
 155.9077221\RMSD=5.135e-09\PG=C01 [X(C4H6)]\\@

 Normal termination of Gaussian 09 at Wed Aug 26 14:40:59 2020.
