 Gaussian 09, Revision D.01,
 Gaussian 09:  ES64L-G09RevD.01 24-Apr-2013

 --------------------
 #p B2PLYPD3/Def2QZVP
 --------------------

 ---------
 butadiene
 ---------
 Symbolic Z-matrix:
 Charge =  0 Multiplicity = 1

                         Standard orientation:
 ---------------------------------------------------------------------
 Center     Atomic      Atomic             Coordinates (Angstroms)
 Number     Number       Type             X           Y           Z
 ---------------------------------------------------------------------
      1          6           0       -1.836601   -0.105437    0.044195
      2          6           0       -0.588321    0.368096   -0.036065
      3          6           0        0.579742   -0.413482   -0.035828
      4          6           0        1.802575    0.118829    0.020408
      5          1           0       -2.543956    0.648987   -0.026471
      6          1           0       -2.000182   -1.152040   -0.021149
      7          1           0       -0.356745    1.410166   -0.076725
      8          1           0        0.500384   -1.426927    0.083811
      9          1           0        1.848625    1.193031    0.158477
     10          1           0        2.807502   -0.481253   -0.074196
 ---------------------------------------------------------------------

 SCF Done:  E(RB2PLYPD3) =  -155.681013596     A.U. after   12 cycles
 E2(B2PLYPD3) =    -0.2262446403D+00 E(B2PLYPD3) =    -0.15590725823578D+03

 The electronic state is 1-A.
 Alpha  occ. eigenvalues --  -10.62461 -10.61724 -10.61140 -10.60739  -0.94195
 Alpha  occ. eigenvalues --   -0.85065  -0.70326  -0.65208  -0.55176  -0.53548
 Alpha  occ. eigenvalues --   -0.46288  -0.45876  -0.41996  -0.38315  -0.27283
 Alpha virt. eigenvalues --    0.01292   0.06953   0.07589   0.08044   0.09672
 Alpha virt. eigenvalues --    0.11866   0.12457   0.14690   0.15332   0.16284
 Alpha virt. eigenvalues --    0.18378   0.20007   0.21848   0.22918   0.24505

 Mulliken charges:
               1
     1  C   -0.191087
     2  C   -0.022795
     3  C   -0.021630
     4  C   -0.177846
     5  H    0.087465
     6  H    0.079307
     7  H    0.046736
     8  H    0.060528
     9  H    0.057797
    10  H    0.081525
 Sum of Mulliken charges =   0.00000

 Dipole moment (field-independent basis, Debye):
    X=              0.0844    Y=             -0.0255    Z=             -0.0179  Tot=              0.0899
 Quadrupole moment (field-independent basis, Debye-Ang):
   XX=            -24.0808   YY=            -23.0781   ZZ=            -29.0837
   XY=             -0.0252   XZ=              0.2735   YZ=              0.0609

 1\1\GINC-NODE28\SP\RB2PLYPD3-FC\def2QZVP\C4H6\BOITTIER\26-Aug-2020\0\\
 #p B2PLYPD3/Def2QZVP\\butadiene\\0,1\C,0,-3.83403,0.221423,-0.022349\C
 ,0,-2.6937,-0.47135,0.07034\C,0,-1.401862,0.081758,0.048814\C,0,-0.298
 058,-0.667693,0.006644\H,0,-4.667663,-0.387886,0.068746\H,0,-3.802048,
 1.281611,0.014851\H,0,-2.657466,-1.536793,0.138968\H,0,-1.294147,1.088
 99,-0.098029\H,0,-0.451016,-1.735301,-0.102487\H,0,0.800546,-0.260409,
 0.084843\\Version=ES64L-G09RevD.01\State=1-A\HF=-155.6810136\MP2=-155.
 9072582\RMSD=5.587e-09\PG=C01 [X(C4H6)]\\@

 Normal termination of Gaussian 09 at Wed Aug 26 14:59:54 2020.
