 Gaussian 09, Revision D.01,
 Gaussian 09:  ES64L-G09RevD.01 24-Apr-2013

 --------------------
 #p B2PLYPD3/Def2QZVP
 --------------------

 ---------
 butadiene
 ---------
 Symbolic Z-matrix:
 Charge =  0 Multiplicity = 1

                         Standard orientation:
 ---------------------------------------------------------------------
 Center     Atomic      Atomic             Coordinates (Angstroms)
 Number     Number       Type             X           Y           Z
 ---------------------------------------------------------------------
      1          6           0       -1.843882   -0.115730   -0.013993
      2          6           0       -0.623637    0.416266    0.001357
      3          6           0        0.621486   -0.395259    0.045248
      4          6           0        1.860527    0.108218   -0.043361
      5          1           0       -2.761751    0.460474   -0.002876
      6          1           0       -1.981341   -1.198302   -0.055034
      7          1           0       -0.516494    1.536252    0.073483
      8          1           0        0.454258   -1.470772    0.020613
      9          1           0        2.081075    1.182125   -0.004578
     10          1           0        2.637286   -0.590749    0.032883
 ---------------------------------------------------------------------

 SCF Done:  E(RB2PLYPD3) =  -155.695924348     A.U. after   11 cycles
 E2(B2PLYPD3) =    -0.2260863238D+00 E(B2PLYPD3) =    -0.15592201067137D+03

 The electronic state is 1-A.
 Alpha  occ. eigenvalues --  -10.63148 -10.62976 -10.61646 -10.61415  -0.92398
 Alpha  occ. eigenvalues --   -0.85040  -0.69889  -0.63479  -0.54571  -0.53613
 Alpha  occ. eigenvalues --   -0.46751  -0.45635  -0.40575  -0.37739  -0.27963
 Alpha virt. eigenvalues --    0.01824   0.07032   0.07285   0.08046   0.09342
 Alpha virt. eigenvalues --    0.11574   0.12376   0.14614   0.15642   0.16310
 Alpha virt. eigenvalues --    0.18874   0.19887   0.21935   0.22759   0.23785

 Mulliken charges:
               1
     1  C   -0.171074
     2  C   -0.026726
     3  C   -0.042026
     4  C   -0.170574
     5  H    0.086492
     6  H    0.059241
     7  H    0.050467
     8  H    0.056329
     9  H    0.072565
    10  H    0.085307
 Sum of Mulliken charges =   0.00000

 Dipole moment (field-independent basis, Debye):
    X=             -0.0448    Y=             -0.0244    Z=              0.0926  Tot=              0.1057
 Quadrupole moment (field-independent basis, Debye-Ang):
   XX=            -23.4888   YY=            -23.0485   ZZ=            -29.3689
   XY=              0.2278   XZ=              0.1547   YZ=              0.1204

 1\1\GINC-NODE24\SP\RB2PLYPD3-FC\def2QZVP\C4H6\BOITTIER\26-Aug-2020\0\\
 #p B2PLYPD3/Def2QZVP\\butadiene\\0,1\C,0,-3.84749,0.228358,0.034583\C,
 0,-2.741306,-0.512304,0.029174\C,0,-1.371883,0.064002,-0.028963\C,0,-0
 .241829,-0.650094,0.069061\H,0,-4.853201,-0.175576,0.033578\H,0,-3.790
 188,1.318678,0.056078\H,0,-2.835184,-1.634597,-0.022736\H,0,-1.345177,
 1.152377,-0.023753\H,0,-0.215819,-1.74662,0.049692\H,0,0.646589,-0.101
 836,-0.019533\\Version=ES64L-G09RevD.01\State=1-A\HF=-155.6959243\MP2=
 -155.9220107\RMSD=6.683e-09\PG=C01 [X(C4H6)]\\@

 Normal termination of Gaussian 09 at Wed Aug 26 09:23:35 2020.
