 Gaussian 09, Revision D.01,
 Gaussian 09:  ES64L-G09RevD.01 24-Apr-2013

 --------------------
 #p B2PLYPD3/Def2QZVP
 --------------------

 ---------
 butadiene
 ---------
 Symbolic Z-matrix:
 Charge =  0 Multiplicity = 1

                         Standard orientation:
 ---------------------------------------------------------------------
 Center     Atomic      Atomic             Coordinates (Angstroms)
 Number     Number       Type             X           Y           Z
 ---------------------------------------------------------------------
      1          6           0        1.844179    0.061886    0.050883
      2          6           0        0.608023   -0.352300   -0.064160
      3          6           0       -0.604728    0.429441   -0.011739
      4          6           0       -1.819366   -0.129142    0.007621
      5          1           0        2.666293   -0.477187   -0.036053
      6          1           0        1.960020    1.116916    0.128147
      7          1           0        0.472883   -1.414372   -0.108196
      8          1           0       -0.500935    1.545632   -0.106408
      9          1           0       -1.943452   -1.214955    0.221636
     10          1           0       -2.823452    0.384661    0.005246
 ---------------------------------------------------------------------

 SCF Done:  E(RB2PLYPD3) =  -155.684875066     A.U. after   11 cycles
 E2(B2PLYPD3) =    -0.2255603426D+00 E(B2PLYPD3) =    -0.15591043540902D+03

 The electronic state is 1-A.
 Alpha  occ. eigenvalues --  -10.63261 -10.62584 -10.61820 -10.59790  -0.93458
 Alpha  occ. eigenvalues --   -0.85433  -0.70636  -0.63909  -0.56200  -0.53385
 Alpha  occ. eigenvalues --   -0.48094  -0.44182  -0.40572  -0.38370  -0.27990
 Alpha virt. eigenvalues --    0.01641   0.07049   0.07419   0.08015   0.09744
 Alpha virt. eigenvalues --    0.11546   0.12802   0.14502   0.15689   0.16736
 Alpha virt. eigenvalues --    0.18794   0.19940   0.22098   0.22397   0.23569

 Mulliken charges:
               1
     1  C   -0.168958
     2  C   -0.013827
     3  C   -0.037654
     4  C   -0.161361
     5  H    0.093122
     6  H    0.049056
     7  H    0.048566
     8  H    0.053395
     9  H    0.058929
    10  H    0.078733
 Sum of Mulliken charges =   0.00000

 Dipole moment (field-independent basis, Debye):
    X=             -0.0265    Y=             -0.0332    Z=              0.0380  Tot=              0.0570
 Quadrupole moment (field-independent basis, Debye-Ang):
   XX=            -22.9238   YY=            -23.5859   ZZ=            -29.0328
   XY=              0.0200   XZ=             -0.2966   YZ=             -0.1521

 1\1\GINC-NODE13\SP\RB2PLYPD3-FC\def2QZVP\C4H6\BOITTIER\26-Aug-2020\0\\
 #p B2PLYPD3/Def2QZVP\\butadiene\\0,1\C,0,-3.852725,0.175495,-0.0264\C,
 0,-2.71068,-0.452656,0.092032\C,0,-1.377456,0.098108,0.030341\C,0,-0.2
 8286,-0.669607,0.015927\H,0,-4.758008,-0.206322,0.066914\H,0,-3.777527
 ,1.23333,-0.114758\H,0,-2.768246,-1.521224,0.147223\H,0,-1.278964,1.21
 5714,0.113248\H,0,-0.356258,-1.762201,-0.186658\H,0,0.797144,-0.344393
 ,0.01204\\Version=ES64L-G09RevD.01\State=1-A\HF=-155.6848751\MP2=-155.
 9104354\RMSD=7.993e-09\PG=C01 [X(C4H6)]\\@

 Normal termination of Gaussian 09 at Wed Aug 26 11:35:06 2020.
