 Gaussian 09, Revision D.01,
 Gaussian 09:  ES64L-G09RevD.01 24-Apr-2013

 --------------------
 #p B2PLYPD3/Def2QZVP
 --------------------

 ---------
 butadiene
 ---------
 Symbolic Z-matrix:
 Charge =  0 Multiplicity = 1

                         Standard orientation:
 ---------------------------------------------------------------------
 Center     Atomic      Atomic             Coordinates (Angstroms)
 Number     Number       Type             X           Y           Z
 ---------------------------------------------------------------------
      1          6           0       -1.834600   -0.119213   -0.016339
      2          6           0       -0.600696    0.418438    0.007812
      3          6           0        0.601993   -0.392701    0.006316
      4          6           0        1.835017    0.105372   -0.017335
      5          1           0       -2.759041    0.478836    0.036144
      6          1           0       -1.936356   -1.199102   -0.064417
      7          1           0       -0.455594    1.491935    0.059874
      8          1           0        0.465702   -1.444847    0.104077
      9          1           0        1.993683    1.174530   -0.028330
     10          1           0        2.681320   -0.572730    0.009932
 ---------------------------------------------------------------------

 SCF Done:  E(RB2PLYPD3) =  -155.699872369     A.U. after   11 cycles
 E2(B2PLYPD3) =    -0.2258983860D+00 E(B2PLYPD3) =    -0.15592577075517D+03

 The electronic state is 1-A.
 Alpha  occ. eigenvalues --  -10.62649 -10.62087 -10.61947 -10.61374  -0.93096
 Alpha  occ. eigenvalues --   -0.84761  -0.69908  -0.64358  -0.54340  -0.53948
 Alpha  occ. eigenvalues --   -0.46531  -0.45722  -0.41391  -0.38034  -0.27597
 Alpha virt. eigenvalues --    0.01724   0.07026   0.07412   0.08048   0.09508
 Alpha virt. eigenvalues --    0.11724   0.12429   0.14653   0.15748   0.16110
 Alpha virt. eigenvalues --    0.18686   0.20386   0.21489   0.22906   0.24067

 Mulliken charges:
               1
     1  C   -0.175521
     2  C   -0.034982
     3  C   -0.024582
     4  C   -0.181477
     5  H    0.086188
     6  H    0.064485
     7  H    0.055353
     8  H    0.056639
     9  H    0.067894
    10  H    0.086003
 Sum of Mulliken charges =   0.00000

 Dipole moment (field-independent basis, Debye):
    X=             -0.0082    Y=             -0.0105    Z=              0.1157  Tot=              0.1165
 Quadrupole moment (field-independent basis, Debye-Ang):
   XX=            -23.6581   YY=            -23.0562   ZZ=            -29.2855
   XY=              0.0704   XZ=              0.0102   YZ=              0.0088

 1\1\GINC-NODE11\SP\RB2PLYPD3-FC\def2QZVP\C4H6\BOITTIER\26-Aug-2020\0\\
 #p B2PLYPD3/Def2QZVP\\butadiene\\0,1\C,0,-3.835254,0.23374,0.031798\C,
 0,-2.718301,-0.517621,0.025279\C,0,-1.38931,0.063583,0.00536\C,0,-0.26
 5933,-0.64733,0.045478\H,0,-4.852383,-0.189471,-0.004938\H,0,-3.740904
 ,1.315242,0.048471\H,0,-2.768877,-1.600751,0.004512\H,0,-1.334439,1.11
 9829,-0.123002\H,0,-0.302162,-1.726823,0.087639\H,0,0.688453,-0.133639
 ,0.000051\\Version=ES64L-G09RevD.01\State=1-A\HF=-155.6998724\MP2=-155
 .9257708\RMSD=4.969e-09\PG=C01 [X(C4H6)]\\@

 Normal termination of Gaussian 09 at Wed Aug 26 20:44:14 2020.
