 Gaussian 09, Revision D.01,
 Gaussian 09:  ES64L-G09RevD.01 24-Apr-2013

 --------------------
 #p B2PLYPD3/Def2QZVP
 --------------------

 ---------
 butadiene
 ---------
 Symbolic Z-matrix:
 Charge =  0 Multiplicity = 1

                         Standard orientation:
 ---------------------------------------------------------------------
 Center     Atomic      Atomic             Coordinates (Angstroms)
 Number     Number       Type             X           Y           Z
 ---------------------------------------------------------------------
      1          6           0        1.872478   -0.114828    0.030610
      2          6           0        0.624822    0.415612   -0.023952
      3          6           0       -0.607043   -0.373495   -0.035964
      4          6           0       -1.876996    0.098045    0.056115
      5          1           0        2.905447    0.436101    0.140578
      6          1           0        1.890476   -1.196935   -0.084749
      7          1           0        0.491149    1.507345   -0.134292
      8          1           0       -0.442137   -1.419961   -0.057713
      9          1           0       -2.214954    1.043717   -0.056161
     10          1           0       -2.709552   -0.522275    0.031481
 ---------------------------------------------------------------------

 SCF Done:  E(RB2PLYPD3) =  -155.678456005     A.U. after   12 cycles
 E2(B2PLYPD3) =    -0.2271674566D+00 E(B2PLYPD3) =    -0.15590562346187D+03

 The electronic state is 1-A.
 Alpha  occ. eigenvalues --  -10.63385 -10.63170 -10.63150 -10.60781  -0.92515
 Alpha  occ. eigenvalues --   -0.84620  -0.71163  -0.64407  -0.54794  -0.53341
 Alpha  occ. eigenvalues --   -0.47273  -0.45335  -0.41196  -0.37290  -0.27448
 Alpha virt. eigenvalues --    0.00890   0.06823   0.07562   0.07934   0.09311
 Alpha virt. eigenvalues --    0.11351   0.12778   0.14640   0.15756   0.16359
 Alpha virt. eigenvalues --    0.18736   0.19938   0.22186   0.22849   0.23879

 Mulliken charges:
               1
     1  C   -0.169333
     2  C   -0.031151
     3  C   -0.041517
     4  C   -0.160068
     5  H    0.090018
     6  H    0.059038
     7  H    0.057736
     8  H    0.059869
     9  H    0.064668
    10  H    0.070739
 Sum of Mulliken charges =   0.00000

 Dipole moment (field-independent basis, Debye):
    X=             -0.0233    Y=              0.0127    Z=             -0.1955  Tot=              0.1973
 Quadrupole moment (field-independent basis, Debye-Ang):
   XX=            -22.5969   YY=            -23.6631   ZZ=            -29.3582
   XY=             -0.3119   XZ=              0.3177   YZ=              0.0110

 1\1\GINC-NODE01\SP\RB2PLYPD3-FC\def2QZVP\C4H6\BOITTIER\26-Aug-2020\0\\
 #p B2PLYPD3/Def2QZVP\\butadiene\\0,1\C,0,-3.872154,0.23347,0.050473\C,
 0,-2.738827,-0.511337,0.007792\C,0,-1.386471,0.045844,-0.023966\C,0,-0
 .220018,-0.641537,0.078525\H,0,-4.985994,-0.122428,0.174316\H,0,-3.698
 245,1.298549,-0.090776\H,0,-2.801722,-1.611733,-0.076441\H,0,-1.363002
 ,1.104156,-0.070678\H,0,-0.055947,-1.634579,-0.011284\H,0,0.709343,-0.
 179761,0.038465\\Version=ES64L-G09RevD.01\State=1-A\HF=-155.678456\MP2
 =-155.9056235\RMSD=4.013e-09\PG=C01 [X(C4H6)]\\@

 Normal termination of Gaussian 09 at Wed Aug 26 12:52:31 2020.
