 Gaussian 09, Revision D.01,
 Gaussian 09:  ES64L-G09RevD.01 24-Apr-2013

 --------------------
 #p B2PLYPD3/Def2QZVP
 --------------------

 ---------
 butadiene
 ---------
 Symbolic Z-matrix:
 Charge =  0 Multiplicity = 1

                         Standard orientation:
 ---------------------------------------------------------------------
 Center     Atomic      Atomic             Coordinates (Angstroms)
 Number     Number       Type             X           Y           Z
 ---------------------------------------------------------------------
      1          6           0        1.841447    0.106161    0.022046
      2          6           0        0.602089   -0.382776   -0.032415
      3          6           0       -0.615604    0.409804   -0.020332
      4          6           0       -1.828199   -0.123913    0.009970
      5          1           0        2.706857   -0.539662    0.107177
      6          1           0        2.040697    1.136263   -0.024193
      7          1           0        0.486285   -1.461757   -0.064568
      8          1           0       -0.534081    1.506608   -0.020639
      9          1           0       -1.984371   -1.192734    0.042524
     10          1           0       -2.713788    0.495629    0.084087
 ---------------------------------------------------------------------

 SCF Done:  E(RB2PLYPD3) =  -155.700202110     A.U. after   11 cycles
 E2(B2PLYPD3) =    -0.2253175000D+00 E(B2PLYPD3) =    -0.15592551960986D+03

 The electronic state is 1-A.
 Alpha  occ. eigenvalues --  -10.62571 -10.62470 -10.61353 -10.61073  -0.93064
 Alpha  occ. eigenvalues --   -0.85169  -0.70199  -0.64085  -0.54620  -0.54292
 Alpha  occ. eigenvalues --   -0.46635  -0.45619  -0.41190  -0.38136  -0.27769
 Alpha virt. eigenvalues --    0.01857   0.07004   0.07475   0.07998   0.09670
 Alpha virt. eigenvalues --    0.11671   0.12497   0.14749   0.15908   0.16217
 Alpha virt. eigenvalues --    0.18812   0.20546   0.21703   0.22737   0.23847

 Mulliken charges:
               1
     1  C   -0.177407
     2  C   -0.029940
     3  C   -0.031328
     4  C   -0.170569
     5  H    0.082960
     6  H    0.068594
     7  H    0.055426
     8  H    0.054089
     9  H    0.065174
    10  H    0.083002
 Sum of Mulliken charges =   0.00000

 Dipole moment (field-independent basis, Debye):
    X=             -0.0252    Y=              0.0131    Z=              0.0750  Tot=              0.0802
 Quadrupole moment (field-independent basis, Debye-Ang):
   XX=            -23.4128   YY=            -23.1008   ZZ=            -29.1827
   XY=              0.1258   XZ=             -0.0878   YZ=             -0.0545

 1\1\GINC-NODE36\SP\RB2PLYPD3-FC\def2QZVP\C4H6\BOITTIER\26-Aug-2020\0\\
 #p B2PLYPD3/Def2QZVP\\butadiene\\0,1\C,0,-3.84606,0.214361,-0.003854\C
 ,0,-2.712779,-0.484987,0.064111\C,0,-1.373953,0.078652,0.033096\C,0,-0
 .27525,-0.662134,0.017435\H,0,-4.812521,-0.269771,-0.073412\H,0,-3.859
 44,1.2643,0.016112\H,0,-2.789905,-1.566259,0.123671\H,0,-1.259814,1.17
 2197,0.005566\H,0,-0.311079,-1.742188,0.012089\H,0,0.705844,-0.211428,
 -0.071521\\Version=ES64L-G09RevD.01\State=1-A\HF=-155.7002021\MP2=-155
 .9255196\RMSD=3.622e-09\PG=C01 [X(C4H6)]\\@

 Normal termination of Gaussian 09 at Wed Aug 26 15:35:17 2020.
