 Gaussian 09, Revision D.01,
 Gaussian 09:  ES64L-G09RevD.01 24-Apr-2013

 --------------------
 #p B2PLYPD3/Def2QZVP
 --------------------

 ---------
 butadiene
 ---------
 Symbolic Z-matrix:
 Charge =  0 Multiplicity = 1

                         Standard orientation:
 ---------------------------------------------------------------------
 Center     Atomic      Atomic             Coordinates (Angstroms)
 Number     Number       Type             X           Y           Z
 ---------------------------------------------------------------------
      1          6           0       -1.825515   -0.152139   -0.004231
      2          6           0       -0.623150    0.405454    0.028059
      3          6           0        0.600838   -0.334304    0.013302
      4          6           0        1.856892    0.073719   -0.040533
      5          1           0       -2.664456    0.530070   -0.112138
      6          1           0       -1.998345   -1.233590   -0.197808
      7          1           0       -0.734537    1.609760    0.212361
      8          1           0        0.457947   -1.448928    0.215234
      9          1           0        2.197885    1.121929   -0.177465
     10          1           0        2.687117   -0.535629    0.080230
 ---------------------------------------------------------------------

 SCF Done:  E(RB2PLYPD3) =  -155.675556681     A.U. after   11 cycles
 E2(B2PLYPD3) =    -0.2270188143D+00 E(B2PLYPD3) =    -0.15590257549482D+03

 The electronic state is 1-A.
 Alpha  occ. eigenvalues --  -10.63752 -10.63171 -10.61804 -10.61345  -0.93169
 Alpha  occ. eigenvalues --   -0.85441  -0.70719  -0.61888  -0.55205  -0.53670
 Alpha  occ. eigenvalues --   -0.46681  -0.44027  -0.40210  -0.37932  -0.28110
 Alpha virt. eigenvalues --    0.01434   0.06639   0.07143   0.07632   0.09774
 Alpha virt. eigenvalues --    0.11135   0.12511   0.14748   0.15478   0.16405
 Alpha virt. eigenvalues --    0.18767   0.19483   0.21990   0.22232   0.23290

 Mulliken charges:
               1
     1  C   -0.158815
     2  C   -0.030971
     3  C   -0.027681
     4  C   -0.168997
     5  H    0.078781
     6  H    0.062807
     7  H    0.045443
     8  H    0.051578
     9  H    0.059821
    10  H    0.088033
 Sum of Mulliken charges =   0.00000

 Dipole moment (field-independent basis, Debye):
    X=              0.0249    Y=             -0.0179    Z=              0.0100  Tot=              0.0323
 Quadrupole moment (field-independent basis, Debye-Ang):
   XX=            -23.1590   YY=            -23.5556   ZZ=            -29.1778
   XY=             -0.0665   XZ=              0.5549   YZ=             -0.0778

 1\1\GINC-NODE27\SP\RB2PLYPD3-FC\def2QZVP\C4H6\BOITTIER\26-Aug-2020\0\\
 #p B2PLYPD3/Def2QZVP\\butadiene\\0,1\C,0,-3.823911,0.251985,0.026398\C
 ,0,-2.737325,-0.507322,0.005922\C,0,-1.403083,0.007825,0.000786\C,0,-0
 .237071,-0.61156,0.062679\H,0,-4.768273,-0.270733,0.152179\H,0,-3.8045
 14,1.351296,0.193785\H,0,-3.057943,-1.677793,-0.148768\H,0,-1.350691,1
 .12517,-0.228072\H,0,-0.083193,-1.699614,0.224639\H,0,0.685938,-0.1593
 52,-0.074163\\Version=ES64L-G09RevD.01\State=1-A\HF=-155.6755567\MP2=-
 155.9025755\RMSD=5.724e-09\PG=C01 [X(C4H6)]\\@

 Normal termination of Gaussian 09 at Wed Aug 26 12:59:32 2020.
