 Gaussian 09, Revision D.01,
 Gaussian 09:  ES64L-G09RevD.01 24-Apr-2013

 --------------------
 #p B2PLYPD3/Def2QZVP
 --------------------

 ---------
 butadiene
 ---------
 Symbolic Z-matrix:
 Charge =  0 Multiplicity = 1

                         Standard orientation:
 ---------------------------------------------------------------------
 Center     Atomic      Atomic             Coordinates (Angstroms)
 Number     Number       Type             X           Y           Z
 ---------------------------------------------------------------------
      1          6           0       -1.840883    0.110050    0.032431
      2          6           0       -0.609384   -0.398185   -0.032388
      3          6           0        0.617315    0.361530   -0.029315
      4          6           0        1.846014   -0.099424    0.007451
      5          1           0       -2.778712   -0.448803   -0.072326
      6          1           0       -1.970708    1.189450    0.157085
      7          1           0       -0.535853   -1.491207   -0.033380
      8          1           0        0.465214    1.450141   -0.103687
      9          1           0        2.117028   -1.125508    0.150000
     10          1           0        2.624657    0.582101    0.033235
 ---------------------------------------------------------------------

 SCF Done:  E(RB2PLYPD3) =  -155.696087399     A.U. after   11 cycles
 E2(B2PLYPD3) =    -0.2252663156D+00 E(B2PLYPD3) =    -0.15592135371476D+03

 The electronic state is 1-A.
 Alpha  occ. eigenvalues --  -10.62525 -10.62363 -10.61859 -10.60625  -0.93241
 Alpha  occ. eigenvalues --   -0.85442  -0.70658  -0.63688  -0.55101  -0.54151
 Alpha  occ. eigenvalues --   -0.47324  -0.45244  -0.40561  -0.38308  -0.27941
 Alpha virt. eigenvalues --    0.01637   0.07002   0.07506   0.08000   0.09950
 Alpha virt. eigenvalues --    0.11558   0.12497   0.14868   0.15717   0.16457
 Alpha virt. eigenvalues --    0.18910   0.19946   0.22128   0.22337   0.23700

 Mulliken charges:
               1
     1  C   -0.168452
     2  C   -0.030900
     3  C   -0.026441
     4  C   -0.171439
     5  H    0.087722
     6  H    0.055544
     7  H    0.052113
     8  H    0.048619
     9  H    0.068819
    10  H    0.084415
 Sum of Mulliken charges =   0.00000

 Dipole moment (field-independent basis, Debye):
    X=              0.0016    Y=             -0.0029    Z=              0.0915  Tot=              0.0916
 Quadrupole moment (field-independent basis, Debye-Ang):
   XX=            -23.0973   YY=            -23.3851   ZZ=            -29.0794
   XY=             -0.1383   XZ=              0.3354   YZ=             -0.0144

 1\1\GINC-NODE37\SP\RB2PLYPD3-FC\def2QZVP\C4H6\BOITTIER\26-Aug-2020\0\\
 #p B2PLYPD3/Def2QZVP\\butadiene\\0,1\C,0,-3.844463,0.226619,0.047458\C
 ,0,-2.724017,-0.495729,0.003772\C,0,-1.381057,0.031719,-0.011159\C,0,-
 0.254775,-0.640473,0.04522\H,0,-4.867362,-0.158215,-0.044161\H,0,-3.77
 8663,1.315165,0.138208\H,0,-2.847495,-1.58374,0.036796\H,0,-1.335757,1
 .12712,-0.119721\H,0,-0.171803,-1.693564,0.220524\H,0,0.633397,-0.1089
 58,0.053422\\Version=ES64L-G09RevD.01\State=1-A\HF=-155.6960874\MP2=-1
 55.9213537\RMSD=5.819e-09\PG=C01 [X(C4H6)]\\@

 Normal termination of Gaussian 09 at Wed Aug 26 10:20:54 2020.
