 Gaussian 09, Revision D.01,
 Gaussian 09:  ES64L-G09RevD.01 24-Apr-2013

 --------------------
 #p B2PLYPD3/Def2QZVP
 --------------------

 ---------
 butadiene
 ---------
 Symbolic Z-matrix:
 Charge =  0 Multiplicity = 1

                         Standard orientation:
 ---------------------------------------------------------------------
 Center     Atomic      Atomic             Coordinates (Angstroms)
 Number     Number       Type             X           Y           Z
 ---------------------------------------------------------------------
      1          6           0       -1.837829    0.099325    0.011233
      2          6           0       -0.604837   -0.388426   -0.025140
      3          6           0        0.601059    0.420607   -0.027215
      4          6           0        1.823439   -0.120146    0.016858
      5          1           0       -2.719322   -0.532948    0.084617
      6          1           0       -1.968510    1.166903    0.051380
      7          1           0       -0.442784   -1.453579   -0.028511
      8          1           0        0.522852    1.487041   -0.069544
      9          1           0        1.971625   -1.201243   -0.007519
     10          1           0        2.745147    0.465673    0.115166
 ---------------------------------------------------------------------

 SCF Done:  E(RB2PLYPD3) =  -155.700099451     A.U. after   11 cycles
 E2(B2PLYPD3) =    -0.2255804661D+00 E(B2PLYPD3) =    -0.15592567991704D+03

 The electronic state is 1-A.
 Alpha  occ. eigenvalues --  -10.62446 -10.62276 -10.61782 -10.61296  -0.93169
 Alpha  occ. eigenvalues --   -0.84939  -0.69906  -0.64430  -0.54606  -0.53980
 Alpha  occ. eigenvalues --   -0.46789  -0.45276  -0.41357  -0.38152  -0.27699
 Alpha virt. eigenvalues --    0.01845   0.07012   0.07458   0.08058   0.09548
 Alpha virt. eigenvalues --    0.11672   0.12560   0.14565   0.15865   0.16224
 Alpha virt. eigenvalues --    0.18769   0.20506   0.21593   0.22959   0.23751

 Mulliken charges:
               1
     1  C   -0.175489
     2  C   -0.027207
     3  C   -0.034359
     4  C   -0.172166
     5  H    0.087126
     6  H    0.064163
     7  H    0.055486
     8  H    0.059609
     9  H    0.061227
    10  H    0.081610
 Sum of Mulliken charges =   0.00000

 Dipole moment (field-independent basis, Debye):
    X=              0.0471    Y=              0.0009    Z=              0.0977  Tot=              0.1084
 Quadrupole moment (field-independent basis, Debye-Ang):
   XX=            -23.4677   YY=            -23.1485   ZZ=            -29.2172
   XY=             -0.0547   XZ=             -0.0519   YZ=              0.0297

 1\1\GINC-NODE20\SP\RB2PLYPD3-FC\def2QZVP\C4H6\BOITTIER\26-Aug-2020\0\\
 #p B2PLYPD3/Def2QZVP\\butadiene\\0,1\C,0,-3.840681,0.210815,0.033321\C
 ,0,-2.715065,-0.490664,0.013133\C,0,-1.383851,0.088976,-0.011588\C,0,-
 0.277833,-0.66034,0.050206\H,0,-4.820803,-0.250965,0.124449\H,0,-3.777
 997,1.285254,0.041355\H,0,-2.746299,-1.567244,0.041826\H,0,-1.270084,1
 .15045,-0.085891\H,0,-0.32565,-1.750739,0.058361\H,0,0.734242,-0.24635
 1,0.132134\\Version=ES64L-G09RevD.01\State=1-A\HF=-155.7000995\MP2=-15
 5.9256799\RMSD=4.314e-09\PG=C01 [X(C4H6)]\\@

 Normal termination of Gaussian 09 at Wed Aug 26 21:52:10 2020.
