 Gaussian 09, Revision D.01,
 Gaussian 09:  ES64L-G09RevD.01 24-Apr-2013

 --------------------
 #p B2PLYPD3/Def2QZVP
 --------------------

 ---------
 butadiene
 ---------
 Symbolic Z-matrix:
 Charge =  0 Multiplicity = 1

                         Standard orientation:
 ---------------------------------------------------------------------
 Center     Atomic      Atomic             Coordinates (Angstroms)
 Number     Number       Type             X           Y           Z
 ---------------------------------------------------------------------
      1          6           0       -1.838124   -0.104359   -0.025213
      2          6           0       -0.590142    0.376626    0.002259
      3          6           0        0.597625   -0.413243    0.024780
      4          6           0        1.819782    0.113852   -0.042530
      5          1           0       -2.643439    0.579934    0.027378
      6          1           0       -2.055863   -1.135763   -0.069900
      7          1           0       -0.492184    1.441032    0.176935
      8          1           0        0.538807   -1.494172    0.108241
      9          1           0        1.946502    1.218435   -0.070988
     10          1           0        2.771332   -0.446723    0.072549
 ---------------------------------------------------------------------

 SCF Done:  E(RB2PLYPD3) =  -155.696149426     A.U. after   11 cycles
 E2(B2PLYPD3) =    -0.2258891005D+00 E(B2PLYPD3) =    -0.15592203852632D+03

 The electronic state is 1-A.
 Alpha  occ. eigenvalues --  -10.62365 -10.62252 -10.62029 -10.60920  -0.93412
 Alpha  occ. eigenvalues --   -0.84972  -0.70276  -0.64112  -0.54616  -0.54398
 Alpha  occ. eigenvalues --   -0.46479  -0.45265  -0.41464  -0.38123  -0.27590
 Alpha virt. eigenvalues --    0.01548   0.07071   0.07457   0.07904   0.09700
 Alpha virt. eigenvalues --    0.11632   0.12475   0.14721   0.15582   0.16539
 Alpha virt. eigenvalues --    0.18779   0.19943   0.21817   0.22522   0.24035

 Mulliken charges:
               1
     1  C   -0.183852
     2  C   -0.024370
     3  C   -0.037405
     4  C   -0.161255
     5  H    0.084590
     6  H    0.071527
     7  H    0.058293
     8  H    0.057578
     9  H    0.054251
    10  H    0.080643
 Sum of Mulliken charges =   0.00000

 Dipole moment (field-independent basis, Debye):
    X=              0.0045    Y=             -0.0263    Z=              0.2387  Tot=              0.2402
 Quadrupole moment (field-independent basis, Debye-Ang):
   XX=            -23.4537   YY=            -23.1866   ZZ=            -29.1673
   XY=              0.0462   XZ=              0.1206   YZ=              0.0805

 1\1\GINC-NODE37\SP\RB2PLYPD3-FC\def2QZVP\C4H6\BOITTIER\26-Aug-2020\0\\
 #p B2PLYPD3/Def2QZVP\\butadiene\\0,1\C,0,-3.840746,0.2161,0.040897\C,0
 ,-2.699805,-0.482181,0.026117\C,0,-1.38939,0.080207,-0.015393\C,0,-0.2
 81777,-0.656436,0.065713\H,0,-4.756252,-0.313153,0.004906\H,0,-3.86915
 6,1.270632,0.059764\H,0,-2.795669,-1.550804,-0.121944\H,0,-1.253065,1.
 151685,-0.125778\H,0,-0.355781,-1.764748,0.12174\H,0,0.754654,-0.27928
 7,-0.06275\\Version=ES64L-G09RevD.01\State=1-A\HF=-155.6961494\MP2=-15
 5.9220385\RMSD=7.374e-09\PG=C01 [X(C4H6)]\\@

 Normal termination of Gaussian 09 at Wed Aug 26 10:47:31 2020.
