 Gaussian 09, Revision D.01,
 Gaussian 09:  ES64L-G09RevD.01 24-Apr-2013

 --------------------
 #p B2PLYPD3/Def2QZVP
 --------------------

 ---------
 butadiene
 ---------
 Symbolic Z-matrix:
 Charge =  0 Multiplicity = 1

                         Standard orientation:
 ---------------------------------------------------------------------
 Center     Atomic      Atomic             Coordinates (Angstroms)
 Number     Number       Type             X           Y           Z
 ---------------------------------------------------------------------
      1          6           0       -1.846467   -0.101404   -0.019526
      2          6           0       -0.603824    0.382569    0.026712
      3          6           0        0.610644   -0.405792    0.007627
      4          6           0        1.846847    0.108931   -0.003951
      5          1           0       -2.693020    0.563105   -0.020876
      6          1           0       -2.088351   -1.151976    0.048179
      7          1           0       -0.449042    1.470260   -0.038855
      8          1           0        0.474579   -1.480843   -0.033444
      9          1           0        1.984476    1.178382    0.007837
     10          1           0        2.728166   -0.484748   -0.028017
 ---------------------------------------------------------------------

 SCF Done:  E(RB2PLYPD3) =  -155.700376169     A.U. after   11 cycles
 E2(B2PLYPD3) =    -0.2256993682D+00 E(B2PLYPD3) =    -0.15592607553687D+03

 The electronic state is 1-A.
 Alpha  occ. eigenvalues --  -10.62679 -10.62538 -10.61487 -10.61418  -0.92977
 Alpha  occ. eigenvalues --   -0.84959  -0.70610  -0.63944  -0.54978  -0.53799
 Alpha  occ. eigenvalues --   -0.47010  -0.45620  -0.40941  -0.38145  -0.27690
 Alpha virt. eigenvalues --    0.01544   0.07017   0.07442   0.08094   0.09666
 Alpha virt. eigenvalues --    0.11640   0.12490   0.14812   0.15810   0.16167
 Alpha virt. eigenvalues --    0.18862   0.20354   0.21891   0.22830   0.23664

 Mulliken charges:
               1
     1  C   -0.175371
     2  C   -0.027733
     3  C   -0.029972
     4  C   -0.174540
     5  H    0.083274
     6  H    0.067446
     7  H    0.051328
     8  H    0.053803
     9  H    0.062562
    10  H    0.089203
 Sum of Mulliken charges =   0.00000

 Dipole moment (field-independent basis, Debye):
    X=              0.0132    Y=             -0.0201    Z=             -0.0285  Tot=              0.0373
 Quadrupole moment (field-independent basis, Debye-Ang):
   XX=            -23.2239   YY=            -23.2310   ZZ=            -29.2471
   XY=              0.2429   XZ=             -0.1087   YZ=             -0.0628

 1\1\GINC-NODE24\SP\RB2PLYPD3-FC\def2QZVP\C4H6\BOITTIER\26-Aug-2020\0\\
 #p B2PLYPD3/Def2QZVP\\butadiene\\0,1\C,0,-3.850445,0.219604,0.037024\C
 ,0,-2.71666,-0.483526,0.011163\C,0,-1.379052,0.071083,0.006322\C,0,-0.
 256987,-0.659091,0.039292\H,0,-4.803683,-0.279472,0.059036\H,0,-3.8975
 5,1.293654,-0.067811\H,0,-2.76196,-1.578293,0.114902\H,0,-1.31727,1.15
 3722,0.009649\H,0,-0.31611,-1.735496,0.065041\H,0,0.717652,-0.235061,0
 .04524\\Version=ES64L-G09RevD.01\State=1-A\HF=-155.7003762\MP2=-155.92
 60755\RMSD=3.849e-09\PG=C01 [X(C4H6)]\\@

 Normal termination of Gaussian 09 at Wed Aug 26 21:54:41 2020.
