 Gaussian 09, Revision D.01,
 Gaussian 09:  ES64L-G09RevD.01 24-Apr-2013

 --------------------
 #p B2PLYPD3/Def2QZVP
 --------------------

 ---------
 butadiene
 ---------
 Symbolic Z-matrix:
 Charge =  0 Multiplicity = 1

                         Standard orientation:
 ---------------------------------------------------------------------
 Center     Atomic      Atomic             Coordinates (Angstroms)
 Number     Number       Type             X           Y           Z
 ---------------------------------------------------------------------
      1          6           0       -1.833926   -0.119898    0.003961
      2          6           0       -0.608001    0.419154   -0.016505
      3          6           0        0.607240   -0.387482   -0.012509
      4          6           0        1.838457    0.095375    0.018086
      5          1           0       -2.711048    0.482584    0.056332
      6          1           0       -1.973392   -1.203965    0.054819
      7          1           0       -0.473475    1.491150   -0.075895
      8          1           0        0.455870   -1.466792   -0.039889
      9          1           0        1.963370    1.195823    0.071111
     10          1           0        2.716053   -0.541692   -0.024678
 ---------------------------------------------------------------------

 SCF Done:  E(RB2PLYPD3) =  -155.700080691     A.U. after   11 cycles
 E2(B2PLYPD3) =    -0.2256945164D+00 E(B2PLYPD3) =    -0.15592577520730D+03

 The electronic state is 1-A.
 Alpha  occ. eigenvalues --  -10.62653 -10.62305 -10.61586 -10.61581  -0.93014
 Alpha  occ. eigenvalues --   -0.84982  -0.69946  -0.63913  -0.54727  -0.53693
 Alpha  occ. eigenvalues --   -0.46942  -0.45299  -0.41027  -0.38128  -0.27808
 Alpha virt. eigenvalues --    0.01864   0.07039   0.07325   0.08086   0.09579
 Alpha virt. eigenvalues --    0.11699   0.12439   0.14580   0.15782   0.16172
 Alpha virt. eigenvalues --    0.18735   0.20302   0.21567   0.22923   0.23849

 Mulliken charges:
               1
     1  C   -0.173656
     2  C   -0.036018
     3  C   -0.021739
     4  C   -0.176792
     5  H    0.086930
     6  H    0.064621
     7  H    0.055873
     8  H    0.050191
     9  H    0.059754
    10  H    0.090837
 Sum of Mulliken charges =   0.00000

 Dipole moment (field-independent basis, Debye):
    X=             -0.0401    Y=             -0.0090    Z=              0.0207  Tot=              0.0460
 Quadrupole moment (field-independent basis, Debye-Ang):
   XX=            -23.5290   YY=            -23.1294   ZZ=            -29.2670
   XY=              0.0113   XZ=             -0.2133   YZ=              0.0227

 1\1\GINC-NODE07\SP\RB2PLYPD3-FC\def2QZVP\C4H6\BOITTIER\26-Aug-2020\0\\
 #p B2PLYPD3/Def2QZVP\\butadiene\\0,1\C,0,-3.834875,0.232794,0.010607\C
 ,0,-2.725709,-0.516861,0.051314\C,0,-1.385328,0.057846,0.027271\C,0,-0
 .260966,-0.639039,0.015277\H,0,-4.806077,-0.20361,-0.026663\H,0,-3.777
 405,1.322254,-0.073132\H,0,-2.785853,-1.593309,0.143203\H,0,-1.340261,
 1.147117,0.021837\H,0,-0.33591,-1.745112,-0.004378\H,0,0.716896,-0.169
 002,0.041912\\Version=ES64L-G09RevD.01\State=1-A\HF=-155.7000807\MP2=-
 155.9257752\RMSD=5.676e-09\PG=C01 [X(C4H6)]\\@

 Normal termination of Gaussian 09 at Wed Aug 26 21:16:25 2020.
