 Gaussian 09, Revision D.01,
 Gaussian 09:  ES64L-G09RevD.01 24-Apr-2013

 --------------------
 #p B2PLYPD3/Def2QZVP
 --------------------

 ---------
 butadiene
 ---------
 Symbolic Z-matrix:
 Charge =  0 Multiplicity = 1

                         Standard orientation:
 ---------------------------------------------------------------------
 Center     Atomic      Atomic             Coordinates (Angstroms)
 Number     Number       Type             X           Y           Z
 ---------------------------------------------------------------------
      1          6           0       -1.862400    0.101975    0.045488
      2          6           0       -0.614932   -0.387669   -0.048703
      3          6           0        0.618497    0.415644   -0.024396
      4          6           0        1.833964   -0.135837    0.026165
      5          1           0       -2.708844   -0.545102    0.019645
      6          1           0       -1.972076    1.190142    0.057445
      7          1           0       -0.450821   -1.428079   -0.133096
      8          1           0        0.573247    1.525984   -0.080409
      9          1           0        1.969528   -1.237123    0.147631
     10          1           0        2.738187    0.529498   -0.002534
 ---------------------------------------------------------------------

 SCF Done:  E(RB2PLYPD3) =  -155.695524211     A.U. after   11 cycles
 E2(B2PLYPD3) =    -0.2263616614D+00 E(B2PLYPD3) =    -0.15592188587263D+03

 The electronic state is 1-A.
 Alpha  occ. eigenvalues --  -10.62958 -10.62507 -10.62322 -10.61585  -0.92639
 Alpha  occ. eigenvalues --   -0.84801  -0.69547  -0.63764  -0.54357  -0.53554
 Alpha  occ. eigenvalues --   -0.46378  -0.45474  -0.41110  -0.37737  -0.27778
 Alpha virt. eigenvalues --    0.01751   0.06964   0.07362   0.07902   0.09436
 Alpha virt. eigenvalues --    0.11690   0.12243   0.14462   0.15861   0.16001
 Alpha virt. eigenvalues --    0.18769   0.20481   0.20940   0.22484   0.24096

 Mulliken charges:
               1
     1  C   -0.177174
     2  C   -0.038528
     3  C   -0.028631
     4  C   -0.174947
     5  H    0.092051
     6  H    0.067895
     7  H    0.059114
     8  H    0.051439
     9  H    0.066603
    10  H    0.082177
 Sum of Mulliken charges =   0.00000

 Dipole moment (field-independent basis, Debye):
    X=              0.0300    Y=             -0.0212    Z=             -0.0387  Tot=              0.0533
 Quadrupole moment (field-independent basis, Debye-Ang):
   XX=            -23.7581   YY=            -23.0132   ZZ=            -29.3929
   XY=              0.1509   XZ=              0.1196   YZ=             -0.0848

 1\1\GINC-NODE21\SP\RB2PLYPD3-FC\def2QZVP\C4H6\BOITTIER\26-Aug-2020\0\\
 #p B2PLYPD3/Def2QZVP\\butadiene\\0,1\C,0,-3.865663,0.210443,0.060897\C
 ,0,-2.722358,-0.491278,-0.01151\C,0,-1.368247,0.086327,-0.014165\C,0,-
 0.266613,-0.665273,0.060318\H,0,-4.811571,-0.280565,0.057166\H,0,-3.78
 4967,1.300815,0.031632\H,0,-2.741447,-1.546805,-0.056281\H,0,-1.220524
 ,1.1848,-0.112015\H,0,-0.323565,-1.768042,0.223474\H,0,0.73915,-0.1683
 61,0.009012\\Version=ES64L-G09RevD.01\State=1-A\HF=-155.6955242\MP2=-1
 55.9218859\RMSD=5.996e-09\PG=C01 [X(C4H6)]\\@

 Normal termination of Gaussian 09 at Wed Aug 26 10:27:14 2020.
