 Gaussian 09, Revision D.01,
 Gaussian 09:  ES64L-G09RevD.01 24-Apr-2013

 --------------------
 #p B2PLYPD3/Def2QZVP
 --------------------

 ---------
 butadiene
 ---------
 Symbolic Z-matrix:
 Charge =  0 Multiplicity = 1

                         Standard orientation:
 ---------------------------------------------------------------------
 Center     Atomic      Atomic             Coordinates (Angstroms)
 Number     Number       Type             X           Y           Z
 ---------------------------------------------------------------------
      1          6           0       -1.848083    0.119060   -0.018169
      2          6           0       -0.614024   -0.405792    0.031996
      3          6           0        0.609273    0.386825    0.007094
      4          6           0        1.843070   -0.107925   -0.021462
      5          1           0       -2.733151   -0.510620    0.006363
      6          1           0       -1.984010    1.203823   -0.058381
      7          1           0       -0.500956   -1.481566    0.010763
      8          1           0        0.524320    1.467483    0.053769
      9          1           0        2.025143   -1.153277   -0.045339
     10          1           0        2.727240    0.521153    0.036077
 ---------------------------------------------------------------------

 SCF Done:  E(RB2PLYPD3) =  -155.700389425     A.U. after   11 cycles
 E2(B2PLYPD3) =    -0.2256721453D+00 E(B2PLYPD3) =    -0.15592606156995D+03

 The electronic state is 1-A.
 Alpha  occ. eigenvalues --  -10.62715 -10.62454 -10.61861 -10.61202  -0.92875
 Alpha  occ. eigenvalues --   -0.84989  -0.70082  -0.64150  -0.54543  -0.54071
 Alpha  occ. eigenvalues --   -0.46664  -0.45524  -0.41180  -0.38039  -0.27740
 Alpha virt. eigenvalues --    0.01692   0.06989   0.07503   0.07992   0.09635
 Alpha virt. eigenvalues --    0.11647   0.12455   0.14642   0.15817   0.16249
 Alpha virt. eigenvalues --    0.18878   0.20449   0.21584   0.22661   0.23850

 Mulliken charges:
               1
     1  C   -0.172528
     2  C   -0.040221
     3  C   -0.024538
     4  C   -0.174694
     5  H    0.087502
     6  H    0.066694
     7  H    0.057368
     8  H    0.053707
     9  H    0.063679
    10  H    0.083031
 Sum of Mulliken charges =   0.00000

 Dipole moment (field-independent basis, Debye):
    X=              0.0031    Y=             -0.0226    Z=              0.0278  Tot=              0.0359
 Quadrupole moment (field-independent basis, Debye-Ang):
   XX=            -23.3545   YY=            -23.1390   ZZ=            -29.2762
   XY=             -0.0335   XZ=              0.1622   YZ=              0.0649

 1\1\GINC-NODE12\SP\RB2PLYPD3-FC\def2QZVP\C4H6\BOITTIER\26-Aug-2020\0\\
 #p B2PLYPD3/Def2QZVP\\butadiene\\0,1\C,0,-3.849078,0.227415,-0.001327\
 C,0,-2.726545,-0.504933,0.065565\C,0,-1.382909,0.059201,0.024183\C,0,-
 0.255466,-0.64547,0.011621\H,0,-4.831093,-0.235896,0.036543\H,0,-3.792
 077,1.317801,-0.06925\H,0,-2.804567,-1.584006,0.071771\H,0,-1.27631,1.
 138778,0.043368\H,0,-0.260211,-1.706813,0.014614\H,0,0.725693,-0.18051
 7,0.055808\\Version=ES64L-G09RevD.01\State=1-A\HF=-155.7003894\MP2=-15
 5.9260616\RMSD=5.280e-09\PG=C01 [X(C4H6)]\\@

 Normal termination of Gaussian 09 at Wed Aug 26 19:21:00 2020.
