 Gaussian 09, Revision D.01,
 Gaussian 09:  ES64L-G09RevD.01 24-Apr-2013

 --------------------
 #p B2PLYPD3/Def2QZVP
 --------------------

 ---------
 butadiene
 ---------
 Symbolic Z-matrix:
 Charge =  0 Multiplicity = 1

                         Standard orientation:
 ---------------------------------------------------------------------
 Center     Atomic      Atomic             Coordinates (Angstroms)
 Number     Number       Type             X           Y           Z
 ---------------------------------------------------------------------
      1          6           0        1.826140   -0.109595    0.014718
      2          6           0        0.602315    0.414634   -0.025814
      3          6           0       -0.597557   -0.394180   -0.011754
      4          6           0       -1.830833    0.105537    0.001832
      5          1           0        2.722592    0.482419    0.026617
      6          1           0        1.970169   -1.200498    0.016376
      7          1           0        0.456740    1.485895    0.014554
      8          1           0       -0.450917   -1.454275   -0.017397
      9          1           0       -2.037618    1.171716    0.031333
     10          1           0       -2.661355   -0.583634    0.054626
 ---------------------------------------------------------------------

 SCF Done:  E(RB2PLYPD3) =  -155.700868843     A.U. after   11 cycles
 E2(B2PLYPD3) =    -0.2255002984D+00 E(B2PLYPD3) =    -0.15592636914143D+03

 The electronic state is 1-A.
 Alpha  occ. eigenvalues --  -10.62339 -10.62129 -10.61570 -10.61377  -0.93221
 Alpha  occ. eigenvalues --   -0.84934  -0.70110  -0.64251  -0.54664  -0.53928
 Alpha  occ. eigenvalues --   -0.46722  -0.45586  -0.41157  -0.38272  -0.27683
 Alpha virt. eigenvalues --    0.01853   0.07025   0.07374   0.08127   0.09610
 Alpha virt. eigenvalues --    0.11731   0.12397   0.14778   0.15779   0.16189
 Alpha virt. eigenvalues --    0.18725   0.20347   0.21759   0.22826   0.23998

 Mulliken charges:
               1
     1  C   -0.173043
     2  C   -0.030724
     3  C   -0.027222
     4  C   -0.179138
     5  H    0.085794
     6  H    0.060446
     7  H    0.055803
     8  H    0.056113
     9  H    0.068925
    10  H    0.083046
 Sum of Mulliken charges =   0.00000

 Dipole moment (field-independent basis, Debye):
    X=              0.0321    Y=              0.0022    Z=              0.0897  Tot=              0.0953
 Quadrupole moment (field-independent basis, Debye-Ang):
   XX=            -23.6181   YY=            -23.0263   ZZ=            -29.2257
   XY=             -0.2012   XZ=             -0.0923   YZ=              0.0426

 1\1\GINC-NODE29\SP\RB2PLYPD3-FC\def2QZVP\C4H6\BOITTIER\26-Aug-2020\0\\
 #p B2PLYPD3/Def2QZVP\\butadiene\\0,1\C,0,-3.826858,0.229493,0.033334\C
 ,0,-2.719979,-0.511188,0.012979\C,0,-1.392155,0.064034,0.004328\C,0,-0
 .271319,-0.652561,0.037302\H,0,-4.816585,-0.187495,0.061795\H,0,-3.768
 505,1.327798,-0.000422\H,0,-2.773078,-1.58913,0.088112\H,0,-1.342038,1
 .132313,-0.035742\H,0,-0.263348,-1.737076,0.101578\H,0,0.67161,-0.1259
 54,0.070202\\Version=ES64L-G09RevD.01\State=1-A\HF=-155.7008688\MP2=-1
 55.9263691\RMSD=2.690e-09\PG=C01 [X(C4H6)]\\@

 Normal termination of Gaussian 09 at Wed Aug 26 16:24:16 2020.
