 Gaussian 09, Revision D.01,
 Gaussian 09:  ES64L-G09RevD.01 24-Apr-2013

 --------------------
 #p B2PLYPD3/Def2QZVP
 --------------------

 ---------
 butadiene
 ---------
 Symbolic Z-matrix:
 Charge =  0 Multiplicity = 1

                         Standard orientation:
 ---------------------------------------------------------------------
 Center     Atomic      Atomic             Coordinates (Angstroms)
 Number     Number       Type             X           Y           Z
 ---------------------------------------------------------------------
      1          6           0       -1.882813    0.078047    0.045076
      2          6           0       -0.640662   -0.356701   -0.066536
      3          6           0        0.638932    0.452786   -0.056405
      4          6           0        1.841011   -0.160797    0.070465
      5          1           0       -2.670941   -0.577268    0.009898
      6          1           0       -1.982799    1.186163    0.168214
      7          1           0       -0.449339   -1.468198   -0.144046
      8          1           0        0.599935    1.543034   -0.040024
      9          1           0        2.032820   -1.233308    0.181742
     10          1           0        2.731517    0.469571   -0.131380
 ---------------------------------------------------------------------

 SCF Done:  E(RB2PLYPD3) =  -155.686197598     A.U. after   11 cycles
 E2(B2PLYPD3) =    -0.2266542861D+00 E(B2PLYPD3) =    -0.15591285188372D+03

 The electronic state is 1-A.
 Alpha  occ. eigenvalues --  -10.63641 -10.63080 -10.62423 -10.61080  -0.91980
 Alpha  occ. eigenvalues --   -0.85103  -0.69419  -0.63249  -0.54961  -0.53016
 Alpha  occ. eigenvalues --   -0.47524  -0.44721  -0.40477  -0.37105  -0.28069
 Alpha virt. eigenvalues --    0.01687   0.06989   0.07276   0.07952   0.09334
 Alpha virt. eigenvalues --    0.11597   0.12143   0.14423   0.15636   0.16134
 Alpha virt. eigenvalues --    0.19015   0.19612   0.21445   0.22272   0.23958

 Mulliken charges:
               1
     1  C   -0.181592
     2  C   -0.020346
     3  C   -0.053131
     4  C   -0.166126
     5  H    0.101982
     6  H    0.063555
     7  H    0.042409
     8  H    0.064386
     9  H    0.072858
    10  H    0.076003
 Sum of Mulliken charges =   0.00000

 Dipole moment (field-independent basis, Debye):
    X=              0.0732    Y=             -0.0342    Z=             -0.0220  Tot=              0.0838
 Quadrupole moment (field-independent basis, Debye-Ang):
   XX=            -23.7729   YY=            -23.0056   ZZ=            -29.3934
   XY=             -0.0351   XZ=             -0.3258   YZ=             -0.0246

 1\1\GINC-NODE07\SP\RB2PLYPD3-FC\def2QZVP\C4H6\BOITTIER\26-Aug-2020\0\\
 #p B2PLYPD3/Def2QZVP\\butadiene\\0,1\C,0,-3.889166,0.184095,0.069533\C
 ,0,-2.740466,-0.460355,-0.028326\C,0,-1.341285,0.118113,-0.048255\C,0,
 -0.260907,-0.687372,0.098551\H,0,-4.777955,-0.32752,0.058391\H,0,-3.79
 7345,1.296546,0.153812\H,0,-2.742544,-1.590195,-0.067003\H,0,-1.193204
 ,1.198865,-0.070117\H,0,-0.25447,-1.772417,0.247175\H,0,0.722764,-0.22
 5987,-0.126438\\Version=ES64L-G09RevD.01\State=1-A\HF=-155.6861976\MP2
 =-155.9128519\RMSD=9.029e-09\PG=C01 [X(C4H6)]\\@

 Normal termination of Gaussian 09 at Wed Aug 26 14:59:23 2020.
