 Gaussian 09, Revision D.01,
 Gaussian 09:  ES64L-G09RevD.01 24-Apr-2013

 --------------------
 #p B2PLYPD3/Def2QZVP
 --------------------

 ---------
 butadiene
 ---------
 Symbolic Z-matrix:
 Charge =  0 Multiplicity = 1

                         Standard orientation:
 ---------------------------------------------------------------------
 Center     Atomic      Atomic             Coordinates (Angstroms)
 Number     Number       Type             X           Y           Z
 ---------------------------------------------------------------------
      1          6           0        1.869183   -0.099118   -0.070027
      2          6           0        0.600808    0.386788    0.076512
      3          6           0       -0.636135   -0.392421    0.042451
      4          6           0       -1.870535    0.083298   -0.044963
      5          1           0        2.767596    0.545097   -0.214033
      6          1           0        2.193463   -1.150375    0.211323
      7          1           0        0.443415    1.491588    0.112470
      8          1           0       -0.389719   -1.476096   -0.049917
      9          1           0       -1.992463    1.168061   -0.009936
     10          1           0       -2.802221   -0.449554   -0.073743
 ---------------------------------------------------------------------

 SCF Done:  E(RB2PLYPD3) =  -155.683613946     A.U. after   12 cycles
 E2(B2PLYPD3) =    -0.2276922598D+00 E(B2PLYPD3) =    -0.15591130620610D+03

 The electronic state is 1-A.
 Alpha  occ. eigenvalues --  -10.63875 -10.63208 -10.63166 -10.61856  -0.92563
 Alpha  occ. eigenvalues --   -0.84475  -0.70491  -0.63203  -0.55195  -0.52391
 Alpha  occ. eigenvalues --   -0.47738  -0.44632  -0.40093  -0.37651  -0.27590
 Alpha virt. eigenvalues --    0.00797   0.06928   0.07238   0.08046   0.09138
 Alpha virt. eigenvalues --    0.11474   0.12517   0.14326   0.15577   0.16477
 Alpha virt. eigenvalues --    0.18847   0.19914   0.21872   0.22563   0.23345

 Mulliken charges:
               1
     1  C   -0.172871
     2  C   -0.036427
     3  C   -0.022302
     4  C   -0.160498
     5  H    0.078308
     6  H    0.067635
     7  H    0.049734
     8  H    0.049824
     9  H    0.053931
    10  H    0.092664
 Sum of Mulliken charges =   0.00000

 Dipole moment (field-independent basis, Debye):
    X=             -0.0358    Y=              0.0449    Z=              0.0785  Tot=              0.0972
 Quadrupole moment (field-independent basis, Debye-Ang):
   XX=            -22.6691   YY=            -23.8880   ZZ=            -29.3732
   XY=             -0.3918   XZ=              0.1549   YZ=             -0.1816

 1\1\GINC-NODE26\SP\RB2PLYPD3-FC\def2QZVP\C4H6\BOITTIER\26-Aug-2020\0\\
 #p B2PLYPD3/Def2QZVP\\butadiene\\0,1\C,0,-3.876059,0.222675,-0.048416\
 C,0,-2.718073,-0.484948,0.108716\C,0,-1.359128,0.052758,0.058743\C,0,-
 0.233489,-0.643448,-0.018252\H,0,-4.87806,-0.248271,-0.179186\H,0,-4.0
 00635,1.321215,0.210712\H,0,-2.766263,-1.598871,0.167892\H,0,-1.402524
 ,1.161116,-0.056418\H,0,-0.312862,-1.73118,0.039561\H,0,0.780145,-0.29
 1632,-0.057883\\Version=ES64L-G09RevD.01\State=1-A\HF=-155.6836139\MP2
 =-155.9113062\RMSD=2.810e-09\PG=C01 [X(C4H6)]\\@

 Normal termination of Gaussian 09 at Wed Aug 26 15:50:49 2020.
