 Gaussian 09, Revision D.01,
 Gaussian 09:  ES64L-G09RevD.01 24-Apr-2013

 --------------------
 #p B2PLYPD3/Def2QZVP
 --------------------

 ---------
 butadiene
 ---------
 Symbolic Z-matrix:
 Charge =  0 Multiplicity = 1

                         Standard orientation:
 ---------------------------------------------------------------------
 Center     Atomic      Atomic             Coordinates (Angstroms)
 Number     Number       Type             X           Y           Z
 ---------------------------------------------------------------------
      1          6           0       -1.841284   -0.131972    0.058540
      2          6           0       -0.625420    0.408115   -0.056779
      3          6           0        0.611319   -0.369762   -0.062175
      4          6           0        1.858313    0.090383    0.028647
      5          1           0       -2.757967    0.499012    0.002566
      6          1           0       -1.949521   -1.201106    0.020468
      7          1           0       -0.542656    1.515369    0.042360
      8          1           0        0.458046   -1.443202   -0.032873
      9          1           0        2.011212    1.135889    0.012635
     10          1           0        2.763313   -0.486550    0.145449
 ---------------------------------------------------------------------

 SCF Done:  E(RB2PLYPD3) =  -155.695483845     A.U. after   11 cycles
 E2(B2PLYPD3) =    -0.2260303041D+00 E(B2PLYPD3) =    -0.15592151414874D+03

 The electronic state is 1-A.
 Alpha  occ. eigenvalues --  -10.63039 -10.62666 -10.61930 -10.61284  -0.92882
 Alpha  occ. eigenvalues --   -0.85100  -0.70190  -0.63881  -0.54612  -0.53926
 Alpha  occ. eigenvalues --   -0.46985  -0.45250  -0.40731  -0.38073  -0.27891
 Alpha virt. eigenvalues --    0.01544   0.06975   0.07492   0.07951   0.09557
 Alpha virt. eigenvalues --    0.11653   0.12632   0.14515   0.15572   0.16352
 Alpha virt. eigenvalues --    0.18974   0.19619   0.21966   0.23165   0.23615

 Mulliken charges:
               1
     1  C   -0.168695
     2  C   -0.032304
     3  C   -0.027665
     4  C   -0.172065
     5  H    0.084319
     6  H    0.064912
     7  H    0.052488
     8  H    0.049466
     9  H    0.061130
    10  H    0.088413
 Sum of Mulliken charges =   0.00000

 Dipole moment (field-independent basis, Debye):
    X=              0.0067    Y=              0.0071    Z=              0.0886  Tot=              0.0891
 Quadrupole moment (field-independent basis, Debye-Ang):
   XX=            -23.1287   YY=            -23.4033   ZZ=            -29.2597
   XY=              0.0286   XZ=              0.4140   YZ=             -0.0073

 1\1\GINC-NODE12\SP\RB2PLYPD3-FC\def2QZVP\C4H6\BOITTIER\26-Aug-2020\0\\
 #p B2PLYPD3/Def2QZVP\\butadiene\\0,1\C,0,-3.842838,0.233262,-0.038491\
 C,0,-2.738787,-0.506681,0.091414\C,0,-1.385514,0.043665,0.071017\C,0,-
 0.238314,-0.629182,-0.007622\H,0,-4.854956,-0.226423,0.038241\H,0,-3.7
 63048,1.305557,-0.033036\H,0,-2.850717,-1.613884,0.026129\H,0,-1.34978
 7,1.126029,0.009068\H,0,-0.269639,-1.684384,0.040187\H,0,0.752472,-0.2
 22481,-0.143478\\Version=ES64L-G09RevD.01\State=1-A\HF=-155.6954838\MP
 2=-155.9215141\RMSD=5.052e-09\PG=C01 [X(C4H6)]\\@

 Normal termination of Gaussian 09 at Wed Aug 26 09:56:33 2020.
