 Gaussian 09, Revision D.01,
 Gaussian 09:  ES64L-G09RevD.01 24-Apr-2013

 --------------------
 #p B2PLYPD3/Def2QZVP
 --------------------

 ---------
 butadiene
 ---------
 Symbolic Z-matrix:
 Charge =  0 Multiplicity = 1

                         Standard orientation:
 ---------------------------------------------------------------------
 Center     Atomic      Atomic             Coordinates (Angstroms)
 Number     Number       Type             X           Y           Z
 ---------------------------------------------------------------------
      1          6           0       -1.852090    0.100909    0.051014
      2          6           0       -0.628482   -0.362975   -0.094090
      3          6           0        0.613565    0.412605   -0.079362
      4          6           0        1.850401   -0.110681    0.089047
      5          1           0       -2.733747   -0.646162    0.190829
      6          1           0       -2.129751    1.132088    0.021113
      7          1           0       -0.440289   -1.401496   -0.076414
      8          1           0        0.527779    1.519384    0.043539
      9          1           0        1.972705   -1.220330    0.038847
     10          1           0        2.902940    0.377371   -0.017569
 ---------------------------------------------------------------------

 SCF Done:  E(RB2PLYPD3) =  -155.679965246     A.U. after   11 cycles
 E2(B2PLYPD3) =    -0.2273537762D+00 E(B2PLYPD3) =    -0.15590731902178D+03

 The electronic state is 1-A.
 Alpha  occ. eigenvalues --  -10.63580 -10.63164 -10.62475 -10.62306  -0.92885
 Alpha  occ. eigenvalues --   -0.84646  -0.69633  -0.64013  -0.53970  -0.53420
 Alpha  occ. eigenvalues --   -0.47079  -0.44114  -0.39952  -0.38093  -0.28005
 Alpha virt. eigenvalues --    0.01207   0.06760   0.07378   0.07813   0.09360
 Alpha virt. eigenvalues --    0.11483   0.12393   0.14146   0.15431   0.16380
 Alpha virt. eigenvalues --    0.18933   0.19264   0.22056   0.22397   0.23741

 Mulliken charges:
               1
     1  C   -0.166821
     2  C   -0.031456
     3  C   -0.038853
     4  C   -0.156855
     5  H    0.073679
     6  H    0.078130
     7  H    0.063004
     8  H    0.056146
     9  H    0.043766
    10  H    0.079260
 Sum of Mulliken charges =   0.00000

 Dipole moment (field-independent basis, Debye):
    X=             -0.0431    Y=             -0.0153    Z=              0.0379  Tot=              0.0594
 Quadrupole moment (field-independent basis, Debye-Ang):
   XX=            -23.0829   YY=            -23.6297   ZZ=            -29.4087
   XY=             -0.3919   XZ=             -0.5292   YZ=             -0.0065

 1\1\GINC-NODE18\SP\RB2PLYPD3-FC\def2QZVP\C4H6\BOITTIER\26-Aug-2020\0\\
 #p B2PLYPD3/Def2QZVP\\butadiene\\0,1\C,0,-3.855596,0.208819,0.080622\C
 ,0,-2.73417,-0.468336,-0.051009\C,0,-1.37482,0.076037,-0.066791\C,0,-0
 .248123,-0.651108,0.116962\H,0,-4.853844,-0.365766,0.248951\H,0,-3.947
 472,1.271159,0.014956\H,0,-2.731759,-1.522537,0.002921\H,0,-1.263185,1
 .184154,0.0171\H,0,-0.323688,-1.765991,0.105737\H,0,0.872978,-0.360327
 ,-0.009451\\Version=ES64L-G09RevD.01\State=1-A\HF=-155.6799652\MP2=-15
 5.907319\RMSD=8.556e-09\PG=C01 [X(C4H6)]\\@

 Normal termination of Gaussian 09 at Wed Aug 26 15:25:46 2020.
