 Gaussian 09, Revision D.01,
 Gaussian 09:  ES64L-G09RevD.01 24-Apr-2013

 --------------------
 #p B2PLYPD3/Def2QZVP
 --------------------

 ---------
 butadiene
 ---------
 Symbolic Z-matrix:
 Charge =  0 Multiplicity = 1

                         Standard orientation:
 ---------------------------------------------------------------------
 Center     Atomic      Atomic             Coordinates (Angstroms)
 Number     Number       Type             X           Y           Z
 ---------------------------------------------------------------------
      1          6           0        1.818923    0.143301    0.035130
      2          6           0        0.621227   -0.453833   -0.033633
      3          6           0       -0.578817    0.379650   -0.075014
      4          6           0       -1.826987   -0.107080    0.035126
      5          1           0        2.798675   -0.480696   -0.091398
      6          1           0        1.789460    1.258548    0.347605
      7          1           0        0.417747   -1.524536   -0.090582
      8          1           0       -0.546676    1.564618   -0.204220
      9          1           0       -2.026488   -1.142487    0.222368
     10          1           0       -2.638795    0.552324    0.046576
 ---------------------------------------------------------------------

 SCF Done:  E(RB2PLYPD3) =  -155.675107507     A.U. after   11 cycles
 E2(B2PLYPD3) =    -0.2280225802D+00 E(B2PLYPD3) =    -0.15590313008725D+03

 The electronic state is 1-A.
 Alpha  occ. eigenvalues --  -10.63548 -10.63407 -10.63054 -10.60869  -0.92755
 Alpha  occ. eigenvalues --   -0.84509  -0.69113  -0.62934  -0.53841  -0.53233
 Alpha  occ. eigenvalues --   -0.46282  -0.44361  -0.41028  -0.37615  -0.27456
 Alpha virt. eigenvalues --    0.01570   0.06758   0.07103   0.07569   0.09067
 Alpha virt. eigenvalues --    0.11694   0.12042   0.14502   0.15650   0.15925
 Alpha virt. eigenvalues --    0.18495   0.19619   0.21052   0.22203   0.24315

 Mulliken charges:
               1
     1  C   -0.167765
     2  C   -0.042762
     3  C   -0.019493
     4  C   -0.183370
     5  H    0.084739
     6  H    0.073395
     7  H    0.066763
     8  H    0.041731
     9  H    0.060491
    10  H    0.086272
 Sum of Mulliken charges =   0.00000

 Dipole moment (field-independent basis, Debye):
    X=             -0.0587    Y=             -0.1020    Z=              0.1551  Tot=              0.1947
 Quadrupole moment (field-independent basis, Debye-Ang):
   XX=            -24.1794   YY=            -23.0936   ZZ=            -29.3783
   XY=             -0.2040   XZ=             -0.2647   YZ=              0.1871

 1\1\GINC-NODE17\SP\RB2PLYPD3-FC\def2QZVP\C4H6\BOITTIER\26-Aug-2020\0\\
 #p B2PLYPD3/Def2QZVP\\butadiene\\0,1\C,0,-3.812964,0.24682,-0.018731\C
 ,0,-2.737982,-0.547969,0.07344\C,0,-1.410164,0.06306,0.080934\C,0,-0.2
 67466,-0.639021,-0.010096\H,0,-4.885948,-0.190167,0.133071\H,0,-3.5908
 18,1.326424,-0.375647\H,0,-2.724883,-1.634678,0.173161\H,0,-1.233176,1
 .239447,0.162575\H,0,-0.253907,-1.699926,-0.155783\H,0,0.647236,-0.133
 213,-0.048267\\Version=ES64L-G09RevD.01\State=1-A\HF=-155.6751075\MP2=
 -155.9031301\RMSD=7.573e-09\PG=C01 [X(C4H6)]\\@

 Normal termination of Gaussian 09 at Wed Aug 26 15:09:39 2020.
