 Gaussian 09, Revision D.01,
 Gaussian 09:  ES64L-G09RevD.01 24-Apr-2013

 --------------------
 #p B2PLYPD3/Def2QZVP
 --------------------

 ---------
 butadiene
 ---------
 Symbolic Z-matrix:
 Charge =  0 Multiplicity = 1

                         Standard orientation:
 ---------------------------------------------------------------------
 Center     Atomic      Atomic             Coordinates (Angstroms)
 Number     Number       Type             X           Y           Z
 ---------------------------------------------------------------------
      1          6           0        1.830567   -0.116000    0.014044
      2          6           0        0.605727    0.404440   -0.026578
      3          6           0       -0.598466   -0.381399   -0.023984
      4          6           0       -1.841035    0.106483    0.031255
      5          1           0        2.734560    0.494185    0.035438
      6          1           0        1.939681   -1.209266    0.052604
      7          1           0        0.497689    1.498862   -0.050706
      8          1           0       -0.450802   -1.453038   -0.013202
      9          1           0       -2.011579    1.158540    0.061645
     10          1           0       -2.690303   -0.570423   -0.054201
 ---------------------------------------------------------------------

 SCF Done:  E(RB2PLYPD3) =  -155.699914550     A.U. after   11 cycles
 E2(B2PLYPD3) =    -0.2258580140D+00 E(B2PLYPD3) =    -0.15592577256385D+03

 The electronic state is 1-A.
 Alpha  occ. eigenvalues --  -10.62469 -10.62319 -10.61784 -10.61409  -0.93255
 Alpha  occ. eigenvalues --   -0.84949  -0.70148  -0.63939  -0.54438  -0.54084
 Alpha  occ. eigenvalues --   -0.46577  -0.45539  -0.41169  -0.38310  -0.27646
 Alpha virt. eigenvalues --    0.01622   0.06994   0.07389   0.07995   0.09774
 Alpha virt. eigenvalues --    0.11728   0.12407   0.14708   0.15780   0.16137
 Alpha virt. eigenvalues --    0.18751   0.20257   0.21604   0.22700   0.23954

 Mulliken charges:
               1
     1  C   -0.174137
     2  C   -0.025835
     3  C   -0.025703
     4  C   -0.179781
     5  H    0.088623
     6  H    0.060729
     7  H    0.048870
     8  H    0.051817
     9  H    0.068936
    10  H    0.086481
 Sum of Mulliken charges =   0.00000

 Dipole moment (field-independent basis, Debye):
    X=              0.0389    Y=              0.0161    Z=             -0.0047  Tot=              0.0424
 Quadrupole moment (field-independent basis, Debye-Ang):
   XX=            -23.5660   YY=            -23.1368   ZZ=            -29.2586
   XY=             -0.0081   XZ=              0.2369   YZ=              0.0305

 1\1\GINC-NODE18\SP\RB2PLYPD3-FC\def2QZVP\C4H6\BOITTIER\26-Aug-2020\0\\
 #p B2PLYPD3/Def2QZVP\\butadiene\\0,1\C,0,-3.832245,0.228799,0.035805\C
 ,0,-2.720652,-0.503616,0.009932\C,0,-1.395181,0.053494,-0.009685\C,0,-
 0.259829,-0.647412,0.059344\H,0,-4.830792,-0.208693,0.074437\H,0,-3.74
 358,1.324565,0.043429\H,0,-2.81051,-1.599925,0.016767\H,0,-1.348456,1.
 134126,-0.029217\H,0,-0.280329,-1.711741,0.119478\H,0,0.696505,-0.1362
 82,-0.045212\\Version=ES64L-G09RevD.01\State=1-A\HF=-155.6999145\MP2=-
 155.9257726\RMSD=4.680e-09\PG=C01 [X(C4H6)]\\@

 Normal termination of Gaussian 09 at Wed Aug 26 21:43:48 2020.
