 Gaussian 09, Revision D.01,
 Gaussian 09:  ES64L-G09RevD.01 24-Apr-2013

 --------------------
 #p B2PLYPD3/Def2QZVP
 --------------------

 ---------
 butadiene
 ---------
 Symbolic Z-matrix:
 Charge =  0 Multiplicity = 1

                         Standard orientation:
 ---------------------------------------------------------------------
 Center     Atomic      Atomic             Coordinates (Angstroms)
 Number     Number       Type             X           Y           Z
 ---------------------------------------------------------------------
      1          6           0       -1.841102   -0.127591   -0.017669
      2          6           0       -0.604588    0.414258    0.016383
      3          6           0        0.610168   -0.383222    0.023295
      4          6           0        1.841757    0.097455   -0.010339
      5          1           0       -2.710256    0.508083   -0.022133
      6          1           0       -2.032101   -1.161892   -0.063019
      7          1           0       -0.495895    1.504197    0.051802
      8          1           0        0.467538   -1.456592    0.089176
      9          1           0        2.035287    1.144901   -0.043289
     10          1           0        2.698012   -0.544098   -0.082555
 ---------------------------------------------------------------------

 SCF Done:  E(RB2PLYPD3) =  -155.700063469     A.U. after   11 cycles
 E2(B2PLYPD3) =    -0.2254495221D+00 E(B2PLYPD3) =    -0.15592551299111D+03

 The electronic state is 1-A.
 Alpha  occ. eigenvalues --  -10.62906 -10.62275 -10.61409 -10.60990  -0.92943
 Alpha  occ. eigenvalues --   -0.85010  -0.70535  -0.64203  -0.54703  -0.54239
 Alpha  occ. eigenvalues --   -0.46735  -0.45935  -0.41191  -0.38013  -0.27653
 Alpha virt. eigenvalues --    0.01671   0.07013   0.07501   0.08063   0.09626
 Alpha virt. eigenvalues --    0.11668   0.12500   0.14868   0.15849   0.16193
 Alpha virt. eigenvalues --    0.18834   0.20481   0.21910   0.22809   0.23671

 Mulliken charges:
               1
     1  C   -0.177529
     2  C   -0.037224
     3  C   -0.025275
     4  C   -0.174784
     5  H    0.082468
     6  H    0.071341
     7  H    0.056269
     8  H    0.055355
     9  H    0.064498
    10  H    0.084881
 Sum of Mulliken charges =   0.00000

 Dipole moment (field-independent basis, Debye):
    X=             -0.0165    Y=             -0.0119    Z=             -0.0440  Tot=              0.0485
 Quadrupole moment (field-independent basis, Debye-Ang):
   XX=            -23.3716   YY=            -23.0887   ZZ=            -29.2076
   XY=              0.2673   XZ=             -0.1283   YZ=              0.0320

 1\1\GINC-NODE24\SP\RB2PLYPD3-FC\def2QZVP\C4H6\BOITTIER\26-Aug-2020\0\\
 #p B2PLYPD3/Def2QZVP\\butadiene\\0,1\C,0,-3.840732,0.242304,0.034854\C
 ,0,-2.722058,-0.514034,0.019084\C,0,-1.383593,0.051222,-0.006408\C,0,-
 0.258597,-0.642219,0.043787\H,0,-4.810118,-0.226139,0.0544\H,0,-3.8422
 91,1.294941,0.051252\H,0,-2.811455,-1.606287,0.013916\H,0,-1.33079,1.1
 30506,-0.10214\H,0,-0.256739,-1.706082,0.106028\H,0,0.699332,-0.163563
 ,0.100696\\Version=ES64L-G09RevD.01\State=1-A\HF=-155.7000635\MP2=-155
 .925513\RMSD=5.464e-09\PG=C01 [X(C4H6)]\\@

 Normal termination of Gaussian 09 at Wed Aug 26 21:49:49 2020.
