 Gaussian 09, Revision D.01,
 Gaussian 09:  ES64L-G09RevD.01 24-Apr-2013

 --------------------
 #p B2PLYPD3/Def2QZVP
 --------------------

 ---------
 butadiene
 ---------
 Symbolic Z-matrix:
 Charge =  0 Multiplicity = 1

                         Standard orientation:
 ---------------------------------------------------------------------
 Center     Atomic      Atomic             Coordinates (Angstroms)
 Number     Number       Type             X           Y           Z
 ---------------------------------------------------------------------
      1          6           0       -1.827616    0.109492   -0.011794
      2          6           0       -0.601254   -0.413923    0.018826
      3          6           0        0.601768    0.374321    0.043240
      4          6           0        1.828391   -0.100873   -0.031217
      5          1           0       -2.785535   -0.404424   -0.033038
      6          1           0       -1.952208    1.177650   -0.042251
      7          1           0       -0.447540   -1.469622   -0.038752
      8          1           0        0.514432    1.488449    0.012097
      9          1           0        1.966561   -1.159044    0.054450
     10          1           0        2.696551    0.552889   -0.066839
 ---------------------------------------------------------------------

 SCF Done:  E(RB2PLYPD3) =  -155.697082657     A.U. after   11 cycles
 E2(B2PLYPD3) =    -0.2255072881D+00 E(B2PLYPD3) =    -0.15592258994551D+03

 The electronic state is 1-A.
 Alpha  occ. eigenvalues --  -10.62479 -10.62308 -10.61612 -10.61083  -0.93457
 Alpha  occ. eigenvalues --   -0.85192  -0.70349  -0.64011  -0.55093  -0.53958
 Alpha  occ. eigenvalues --   -0.47228  -0.44828  -0.40939  -0.38482  -0.27806
 Alpha virt. eigenvalues --    0.01770   0.07019   0.07455   0.08002   0.09731
 Alpha virt. eigenvalues --    0.11653   0.12705   0.14549   0.15820   0.16361
 Alpha virt. eigenvalues --    0.18758   0.20245   0.21927   0.22771   0.23853

 Mulliken charges:
               1
     1  C   -0.164185
     2  C   -0.038672
     3  C   -0.011093
     4  C   -0.178673
     5  H    0.083537
     6  H    0.059176
     7  H    0.056843
     8  H    0.043689
     9  H    0.062331
    10  H    0.087047
 Sum of Mulliken charges =   0.00000

 Dipole moment (field-independent basis, Debye):
    X=             -0.0417    Y=              0.0092    Z=             -0.0561  Tot=              0.0705
 Quadrupole moment (field-independent basis, Debye-Ang):
   XX=            -23.1700   YY=            -23.3665   ZZ=            -29.1512
   XY=             -0.0532   XZ=              0.1103   YZ=             -0.1025

 1\1\GINC-NODE20\SP\RB2PLYPD3-FC\def2QZVP\C4H6\BOITTIER\26-Aug-2020\0\\
 #p B2PLYPD3/Def2QZVP\\butadiene\\0,1\C,0,-3.830079,0.222753,0.001073\C
 ,0,-2.717264,-0.510477,0.054744\C,0,-1.392376,0.049753,0.053471\C,0,-0
 .271054,-0.640009,0.000349\H,0,-4.86466,-0.111592,-0.003937\H,0,-3.761
 346,1.294072,-0.069371\H,0,-2.755442,-1.578028,0.036838\H,0,-1.278755,
 1.159564,-0.019253\H,0,-0.324434,-1.701899,0.125634\H,0,0.700071,-0.15
 4199,-0.056925\\Version=ES64L-G09RevD.01\State=1-A\HF=-155.6970827\MP2
 =-155.9225899\RMSD=4.930e-09\PG=C01 [X(C4H6)]\\@

 Normal termination of Gaussian 09 at Wed Aug 26 10:29:52 2020.
