 Gaussian 09, Revision D.01,
 Gaussian 09:  ES64L-G09RevD.01 24-Apr-2013

 --------------------
 #p B2PLYPD3/Def2QZVP
 --------------------

 ---------
 butadiene
 ---------
 Symbolic Z-matrix:
 Charge =  0 Multiplicity = 1

                         Standard orientation:
 ---------------------------------------------------------------------
 Center     Atomic      Atomic             Coordinates (Angstroms)
 Number     Number       Type             X           Y           Z
 ---------------------------------------------------------------------
      1          6           0       -1.849383   -0.109828    0.021488
      2          6           0       -0.608892    0.394674   -0.015777
      3          6           0        0.617682   -0.426786   -0.048739
      4          6           0        1.859238    0.113659    0.043977
      5          1           0       -2.701372    0.558975    0.107024
      6          1           0       -2.049909   -1.175172   -0.019645
      7          1           0       -0.521511    1.505082   -0.078257
      8          1           0        0.441314   -1.457432   -0.031894
      9          1           0        1.976624    1.251195   -0.060156
     10          1           0        2.742982   -0.512963    0.077238
 ---------------------------------------------------------------------

 SCF Done:  E(RB2PLYPD3) =  -155.693122948     A.U. after   11 cycles
 E2(B2PLYPD3) =    -0.2268256692D+00 E(B2PLYPD3) =    -0.15591994861763D+03

 The electronic state is 1-A.
 Alpha  occ. eigenvalues --  -10.63025 -10.62850 -10.62680 -10.61609  -0.92415
 Alpha  occ. eigenvalues --   -0.84494  -0.69722  -0.63955  -0.54343  -0.53332
 Alpha  occ. eigenvalues --   -0.46478  -0.45349  -0.41223  -0.37569  -0.27583
 Alpha virt. eigenvalues --    0.01544   0.06932   0.07310   0.08021   0.09195
 Alpha virt. eigenvalues --    0.11628   0.12249   0.14481   0.15651   0.16265
 Alpha virt. eigenvalues --    0.18766   0.20029   0.21307   0.22917   0.24086

 Mulliken charges:
               1
     1  C   -0.181700
     2  C   -0.019033
     3  C   -0.052471
     4  C   -0.167116
     5  H    0.084717
     6  H    0.065414
     7  H    0.050488
     8  H    0.065930
     9  H    0.065770
    10  H    0.088002
 Sum of Mulliken charges =   0.00000

 Dipole moment (field-independent basis, Debye):
    X=             -0.0156    Y=             -0.0640    Z=             -0.0527  Tot=              0.0844
 Quadrupole moment (field-independent basis, Debye-Ang):
   XX=            -23.6501   YY=            -23.0231   ZZ=            -29.4719
   XY=              0.0475   XZ=             -0.1031   YZ=             -0.1076

 1\1\GINC-NODE04\SP\RB2PLYPD3-FC\def2QZVP\C4H6\BOITTIER\26-Aug-2020\0\\
 #p B2PLYPD3/Def2QZVP\\butadiene\\0,1\C,0,-3.855267,0.219155,-0.005653\
 C,0,-2.724399,-0.496655,0.053369\C,0,-1.37097,0.093725,0.06024\C,0,-0.
 245925,-0.662298,-0.009334\H,0,-4.813095,-0.289756,-0.069484\H,0,-3.86
 2603,1.30396,-0.003541\H,0,-2.836056,-1.601881,0.1561\H,0,-1.360925,1.
 138018,0.005733\H,0,-0.332742,-1.798047,0.136087\H,0,0.735208,-0.2048,
 -0.06261\\Version=ES64L-G09RevD.01\State=1-A\HF=-155.6931229\MP2=-155.
 9199486\RMSD=8.631e-09\PG=C01 [X(C4H6)]\\@

 Normal termination of Gaussian 09 at Wed Aug 26 09:21:26 2020.
