 Gaussian 09, Revision D.01,
 Gaussian 09:  ES64L-G09RevD.01 24-Apr-2013

 --------------------
 #p B2PLYPD3/Def2QZVP
 --------------------

 ---------
 butadiene
 ---------
 Symbolic Z-matrix:
 Charge =  0 Multiplicity = 1

                         Standard orientation:
 ---------------------------------------------------------------------
 Center     Atomic      Atomic             Coordinates (Angstroms)
 Number     Number       Type             X           Y           Z
 ---------------------------------------------------------------------
      1          6           0        1.836697   -0.118287    0.008080
      2          6           0        0.611515    0.423479   -0.026883
      3          6           0       -0.597483   -0.392547   -0.012113
      4          6           0       -1.842546    0.093225    0.018082
      5          1           0        2.697623    0.492885    0.002124
      6          1           0        1.971581   -1.189665    0.119354
      7          1           0        0.445221    1.471411   -0.028539
      8          1           0       -0.429835   -1.454929   -0.072843
      9          1           0       -1.994063    1.174755    0.083603
     10          1           0       -2.739624   -0.529671   -0.026697
 ---------------------------------------------------------------------

 SCF Done:  E(RB2PLYPD3) =  -155.699663633     A.U. after   11 cycles
 E2(B2PLYPD3) =    -0.2257133949D+00 E(B2PLYPD3) =    -0.15592537702815D+03

 The electronic state is 1-A.
 Alpha  occ. eigenvalues --  -10.62436 -10.62360 -10.61725 -10.61429  -0.92978
 Alpha  occ. eigenvalues --   -0.84787  -0.70232  -0.64444  -0.54802  -0.53667
 Alpha  occ. eigenvalues --   -0.47036  -0.45728  -0.41165  -0.37986  -0.27630
 Alpha virt. eigenvalues --    0.01692   0.07031   0.07418   0.08191   0.09453
 Alpha virt. eigenvalues --    0.11709   0.12489   0.14693   0.15821   0.16143
 Alpha virt. eigenvalues --    0.18777   0.20499   0.21567   0.23046   0.23718

 Mulliken charges:
               1
     1  C   -0.175020
     2  C   -0.037909
     3  C   -0.024652
     4  C   -0.179119
     5  H    0.087271
     6  H    0.067981
     7  H    0.059340
     8  H    0.054652
     9  H    0.060016
    10  H    0.087440
 Sum of Mulliken charges =   0.00000

 Dipole moment (field-independent basis, Debye):
    X=              0.0417    Y=              0.0163    Z=              0.0477  Tot=              0.0654
 Quadrupole moment (field-independent basis, Debye-Ang):
   XX=            -23.4684   YY=            -23.1393   ZZ=            -29.2502
   XY=             -0.1672   XZ=              0.2013   YZ=              0.0265

 1\1\GINC-NODE15\SP\RB2PLYPD3-FC\def2QZVP\C4H6\BOITTIER\26-Aug-2020\0\\
 #p B2PLYPD3/Def2QZVP\\butadiene\\0,1\C,0,-3.835181,0.236845,0.029451\C
 ,0,-2.729501,-0.520097,0.011715\C,0,-1.391933,0.061803,0.001873\C,0,-0
 .256159,-0.641759,0.047549\H,0,-4.793122,-0.206949,0.041945\H,0,-3.771
 899,1.317729,0.107624\H,0,-2.757056,-1.580341,0.042399\H,0,-1.363399,1
 .134601,-0.091613\H,0,-0.30402,-1.730288,0.146406\H,0,0.739201,-0.1945
 77,-0.016002\\Version=ES64L-G09RevD.01\State=1-A\HF=-155.6996636\MP2=-
 155.925377\RMSD=5.624e-09\PG=C01 [X(C4H6)]\\@

 Normal termination of Gaussian 09 at Wed Aug 26 20:46:01 2020.
