 Gaussian 09, Revision D.01,
 Gaussian 09:  ES64L-G09RevD.01 24-Apr-2013

 --------------------
 #p B2PLYPD3/Def2QZVP
 --------------------

 ---------
 butadiene
 ---------
 Symbolic Z-matrix:
 Charge =  0 Multiplicity = 1

                         Standard orientation:
 ---------------------------------------------------------------------
 Center     Atomic      Atomic             Coordinates (Angstroms)
 Number     Number       Type             X           Y           Z
 ---------------------------------------------------------------------
      1          6           0       -1.832056    0.083369   -0.026852
      2          6           0       -0.599098   -0.376970    0.018556
      3          6           0        0.596216    0.427203    0.024220
      4          6           0        1.817106   -0.129670   -0.039679
      5          1           0       -2.660606   -0.544785   -0.014033
      6          1           0       -2.031253    1.161773   -0.092406
      7          1           0       -0.456305   -1.455188    0.183746
      8          1           0        0.519644    1.515335    0.124322
      9          1           0        2.019734   -1.162083   -0.103745
     10          1           0        2.715780    0.461355    0.044644
 ---------------------------------------------------------------------

 SCF Done:  E(RB2PLYPD3) =  -155.697172177     A.U. after   11 cycles
 E2(B2PLYPD3) =    -0.2253549779D+00 E(B2PLYPD3) =    -0.15592252715453D+03

 The electronic state is 1-A.
 Alpha  occ. eigenvalues --  -10.62732 -10.62177 -10.61273 -10.60815  -0.93240
 Alpha  occ. eigenvalues --   -0.85116  -0.70596  -0.63965  -0.55225  -0.53994
 Alpha  occ. eigenvalues --   -0.47049  -0.45239  -0.41285  -0.38013  -0.27715
 Alpha virt. eigenvalues --    0.01794   0.07135   0.07393   0.08001   0.09650
 Alpha virt. eigenvalues --    0.11611   0.12524   0.14870   0.15668   0.16463
 Alpha virt. eigenvalues --    0.18817   0.20098   0.21917   0.22776   0.23747

 Mulliken charges:
               1
     1  C   -0.177893
     2  C   -0.024284
     3  C   -0.037100
     4  C   -0.171178
     5  H    0.089230
     6  H    0.060608
     7  H    0.055390
     8  H    0.060360
     9  H    0.068119
    10  H    0.076749
 Sum of Mulliken charges =   0.00000

 Dipole moment (field-independent basis, Debye):
    X=              0.0388    Y=             -0.0298    Z=              0.1506  Tot=              0.1584
 Quadrupole moment (field-independent basis, Debye-Ang):
   XX=            -23.3464   YY=            -23.1518   ZZ=            -29.1043
   XY=             -0.2571   XZ=              0.1185   YZ=             -0.0039

 1\1\GINC-NODE22\SP\RB2PLYPD3-FC\def2QZVP\C4H6\BOITTIER\26-Aug-2020\0\\
 #p B2PLYPD3/Def2QZVP\\butadiene\\0,1\C,0,-3.836252,0.200993,-0.006483\
 C,0,-2.708197,-0.475554,0.056249\C,0,-1.385942,0.096231,0.041904\C,0,-
 0.287668,-0.676197,-0.001818\H,0,-4.765691,-0.26436,0.022281\H,0,-3.83
 4983,1.295226,-0.104374\H,0,-2.764648,-1.556348,0.253554\H,0,-1.261946
 ,1.182484,0.109686\H,0,-0.277458,-1.729688,-0.034834\H,0,0.70415,-0.25
 729,0.067826\\Version=ES64L-G09RevD.01\State=1-A\HF=-155.6971722\MP2=-
 155.9225272\RMSD=7.008e-09\PG=C01 [X(C4H6)]\\@

 Normal termination of Gaussian 09 at Wed Aug 26 09:25:48 2020.
