 Gaussian 09, Revision D.01,
 Gaussian 09:  ES64L-G09RevD.01 24-Apr-2013

 --------------------
 #p B2PLYPD3/Def2QZVP
 --------------------

 ---------
 butadiene
 ---------
 Symbolic Z-matrix:
 Charge =  0 Multiplicity = 1

                         Standard orientation:
 ---------------------------------------------------------------------
 Center     Atomic      Atomic             Coordinates (Angstroms)
 Number     Number       Type             X           Y           Z
 ---------------------------------------------------------------------
      1          6           0       -1.838107    0.110103    0.036809
      2          6           0       -0.595186   -0.422806   -0.013997
      3          6           0        0.592603    0.365211   -0.056058
      4          6           0        1.846337   -0.089746    0.014437
      5          1           0       -2.759926   -0.458326   -0.042384
      6          1           0       -2.011164    1.205671    0.134343
      7          1           0       -0.437669   -1.443058   -0.143390
      8          1           0        0.465019    1.447463   -0.076703
      9          1           0        2.071252   -1.144351    0.201641
     10          1           0        2.638609    0.616032    0.039348
 ---------------------------------------------------------------------

 SCF Done:  E(RB2PLYPD3) =  -155.695072565     A.U. after   11 cycles
 E2(B2PLYPD3) =    -0.2262098357D+00 E(B2PLYPD3) =    -0.15592128240098D+03

 The electronic state is 1-A.
 Alpha  occ. eigenvalues --  -10.62390 -10.62259 -10.62173 -10.61339  -0.93315
 Alpha  occ. eigenvalues --   -0.84636  -0.70741  -0.64289  -0.54911  -0.53765
 Alpha  occ. eigenvalues --   -0.47043  -0.45249  -0.41295  -0.38199  -0.27381
 Alpha virt. eigenvalues --    0.01183   0.07004   0.07489   0.08097   0.09624
 Alpha virt. eigenvalues --    0.11635   0.12407   0.14862   0.15679   0.16306
 Alpha virt. eigenvalues --    0.18800   0.20234   0.21648   0.22390   0.23845

 Mulliken charges:
               1
     1  C   -0.171465
     2  C   -0.042694
     3  C   -0.019044
     4  C   -0.180031
     5  H    0.083386
     6  H    0.061666
     7  H    0.067957
     8  H    0.049517
     9  H    0.064942
    10  H    0.085765
 Sum of Mulliken charges =   0.00000

 Dipole moment (field-independent basis, Debye):
    X=             -0.0640    Y=              0.0149    Z=              0.0632  Tot=              0.0912
 Quadrupole moment (field-independent basis, Debye-Ang):
   XX=            -23.4442   YY=            -23.2368   ZZ=            -29.1979
   XY=             -0.2064   XZ=              0.4941   YZ=              0.0905

 1\1\GINC-NODE40\SP\RB2PLYPD3-FC\def2QZVP\C4H6\BOITTIER\26-Aug-2020\0\\
 #p B2PLYPD3/Def2QZVP\\butadiene\\0,1\C,0,-3.837575,0.238971,0.050355\C
 ,0,-2.715193,-0.516406,0.017345\C,0,-1.40163,0.036295,-0.034196\C,0,-0
 .254345,-0.641952,0.052538\H,0,-4.848806,-0.149952,-0.022337\H,0,-3.80
 4276,1.34943,0.124538\H,0,-2.749718,-1.550662,-0.090314\H,0,-1.325926,
 1.122737,-0.07764\H,0,-0.229554,-1.715793,0.26248\H,0,0.655197,-0.0951
 9,0.067435\\Version=ES64L-G09RevD.01\State=1-A\HF=-155.6950726\MP2=-15
 5.9212824\RMSD=7.330e-09\PG=C01 [X(C4H6)]\\@

 Normal termination of Gaussian 09 at Wed Aug 26 10:45:27 2020.
