 Gaussian 09, Revision D.01,
 Gaussian 09:  ES64L-G09RevD.01 24-Apr-2013

 --------------------
 #p B2PLYPD3/Def2QZVP
 --------------------

 ---------
 butadiene
 ---------
 Symbolic Z-matrix:
 Charge =  0 Multiplicity = 1

                         Standard orientation:
 ---------------------------------------------------------------------
 Center     Atomic      Atomic             Coordinates (Angstroms)
 Number     Number       Type             X           Y           Z
 ---------------------------------------------------------------------
      1          6           0        1.831791   -0.106508    0.052704
      2          6           0        0.581230    0.399119   -0.090587
      3          6           0       -0.587077   -0.400540   -0.025786
      4          6           0       -1.818035    0.082435    0.000115
      5          1           0        2.688227    0.464304    0.106859
      6          1           0        1.959394   -1.202936   -0.009683
      7          1           0        0.484509    1.515391    0.047252
      8          1           0       -0.495691   -1.422485   -0.022463
      9          1           0       -1.850146    1.219891    0.081047
     10          1           0       -2.833750   -0.421201    0.178313
 ---------------------------------------------------------------------

 SCF Done:  E(RB2PLYPD3) =  -155.680814273     A.U. after   11 cycles
 E2(B2PLYPD3) =    -0.2271391685D+00 E(B2PLYPD3) =    -0.15590795344132D+03

 The electronic state is 1-A.
 Alpha  occ. eigenvalues --  -10.63126 -10.62515 -10.61676 -10.61671  -0.93757
 Alpha  occ. eigenvalues --   -0.84749  -0.70097  -0.64341  -0.54985  -0.53684
 Alpha  occ. eigenvalues --   -0.47043  -0.43736  -0.41116  -0.38685  -0.27485
 Alpha virt. eigenvalues --    0.01253   0.07035   0.07362   0.07935   0.09396
 Alpha virt. eigenvalues --    0.11473   0.12842   0.14155   0.15494   0.16816
 Alpha virt. eigenvalues --    0.18785   0.19405   0.22043   0.22986   0.23435

 Mulliken charges:
               1
     1  C   -0.175358
     2  C   -0.025521
     3  C   -0.024674
     4  C   -0.156461
     5  H    0.090261
     6  H    0.059364
     7  H    0.049662
     8  H    0.059572
     9  H    0.039190
    10  H    0.083965
 Sum of Mulliken charges =   0.00000

 Dipole moment (field-independent basis, Debye):
    X=              0.0779    Y=             -0.0804    Z=              0.2694  Tot=              0.2917
 Quadrupole moment (field-independent basis, Debye-Ang):
   XX=            -23.2170   YY=            -23.5558   ZZ=            -29.2342
   XY=              0.2923   XZ=             -0.3116   YZ=              0.2161

 1\1\GINC-NODE10\SP\RB2PLYPD3-FC\def2QZVP\C4H6\BOITTIER\26-Aug-2020\0\\
 #p B2PLYPD3/Def2QZVP\\butadiene\\0,1\C,0,-3.83372,0.220984,0.070424\C,
 0,-2.695889,-0.508898,-0.042309\C,0,-1.401883,0.068216,-0.009394\C,0,-
 0.278639,-0.627831,0.0457\H,0,-4.77916,-0.182134,0.14711\H,0,-3.760905
 ,1.318176,-0.04445\H,0,-2.802405,-1.61641,0.148711\H,0,-1.306707,1.088
 805,-0.054919\H,0,-0.452731,-1.747159,0.180546\H,0,0.812094,-0.308502,
 0.205106\\Version=ES64L-G09RevD.01\State=1-A\HF=-155.6808143\MP2=-155.
 9079534\RMSD=9.860e-09\PG=C01 [X(C4H6)]\\@

 Normal termination of Gaussian 09 at Wed Aug 26 15:02:20 2020.
