 Gaussian 09, Revision D.01,
 Gaussian 09:  ES64L-G09RevD.01 24-Apr-2013

 --------------------
 #p B2PLYPD3/Def2QZVP
 --------------------

 ---------
 butadiene
 ---------
 Symbolic Z-matrix:
 Charge =  0 Multiplicity = 1

                         Standard orientation:
 ---------------------------------------------------------------------
 Center     Atomic      Atomic             Coordinates (Angstroms)
 Number     Number       Type             X           Y           Z
 ---------------------------------------------------------------------
      1          6           0        1.818560    0.113754   -0.003993
      2          6           0        0.603406   -0.417728    0.015248
      3          6           0       -0.592227    0.388900    0.003190
      4          6           0       -1.826591   -0.104623   -0.017277
      5          1           0        2.728432   -0.480791   -0.031384
      6          1           0        1.959220    1.215334   -0.085005
      7          1           0        0.500865   -1.491528    0.074326
      8          1           0       -0.478141    1.477871    0.099438
      9          1           0       -2.053812   -1.160951   -0.056607
     10          1           0       -2.675453    0.558246    0.016225
 ---------------------------------------------------------------------

 SCF Done:  E(RB2PLYPD3) =  -155.699890371     A.U. after   11 cycles
 E2(B2PLYPD3) =    -0.2255915999D+00 E(B2PLYPD3) =    -0.15592548197087D+03

 The electronic state is 1-A.
 Alpha  occ. eigenvalues --  -10.62445 -10.62278 -10.61709 -10.61240  -0.93274
 Alpha  occ. eigenvalues --   -0.84985  -0.69939  -0.63947  -0.54686  -0.53968
 Alpha  occ. eigenvalues --   -0.46578  -0.45093  -0.41188  -0.38319  -0.27736
 Alpha virt. eigenvalues --    0.01915   0.07047   0.07350   0.07981   0.09611
 Alpha virt. eigenvalues --    0.11658   0.12425   0.14725   0.15801   0.16233
 Alpha virt. eigenvalues --    0.18734   0.20384   0.21656   0.22634   0.23896

 Mulliken charges:
               1
     1  C   -0.167452
     2  C   -0.034883
     3  C   -0.025515
     4  C   -0.178515
     5  H    0.083309
     6  H    0.059563
     7  H    0.059314
     8  H    0.055372
     9  H    0.066833
    10  H    0.081973
 Sum of Mulliken charges =   0.00000

 Dipole moment (field-independent basis, Debye):
    X=              0.0141    Y=             -0.0369    Z=              0.0239  Tot=              0.0462
 Quadrupole moment (field-independent basis, Debye-Ang):
   XX=            -23.5431   YY=            -23.0768   ZZ=            -29.2148
   XY=              0.1208   XZ=             -0.2141   YZ=              0.0310

 1\1\GINC-NODE03\SP\RB2PLYPD3-FC\def2QZVP\C4H6\BOITTIER\26-Aug-2020\0\\
 #p B2PLYPD3/Def2QZVP\\butadiene\\0,1\C,0,-3.818979,0.228838,0.024187\C
 ,0,-2.720516,-0.514675,0.021089\C,0,-1.39835,0.061577,0.009096\C,0,-0.
 273899,-0.646936,0.044551\H,0,-4.821448,-0.18964,0.069284\H,0,-3.75704
 7,1.339557,0.072067\H,0,-2.814778,-1.590522,-0.005708\H,0,-1.313513,1.
 149842,-0.119821\H,0,-0.24186,-1.725328,0.115612\H,0,0.680935,-0.15040
 8,-0.008715\\Version=ES64L-G09RevD.01\State=1-A\HF=-155.6998904\MP2=-1
 55.925482\RMSD=2.989e-09\PG=C01 [X(C4H6)]\\@

 Normal termination of Gaussian 09 at Wed Aug 26 15:58:20 2020.
