 Gaussian 09, Revision D.01,
 Gaussian 09:  ES64L-G09RevD.01 24-Apr-2013

 --------------------
 #p B2PLYPD3/Def2QZVP
 --------------------

 ---------
 butadiene
 ---------
 Symbolic Z-matrix:
 Charge =  0 Multiplicity = 1

                         Standard orientation:
 ---------------------------------------------------------------------
 Center     Atomic      Atomic             Coordinates (Angstroms)
 Number     Number       Type             X           Y           Z
 ---------------------------------------------------------------------
      1          6           0        1.815572   -0.105196    0.039346
      2          6           0        0.589748    0.407233   -0.045521
      3          6           0       -0.612063   -0.393016   -0.077607
      4          6           0       -1.803304    0.105656    0.045080
      5          1           0        2.792169    0.496972   -0.105264
      6          1           0        1.879576   -1.263260    0.345466
      7          1           0        0.374953    1.470599   -0.060608
      8          1           0       -0.481203   -1.433438   -0.189007
      9          1           0       -1.924168    1.225553    0.205869
     10          1           0       -2.581041   -0.584491    0.035754
 ---------------------------------------------------------------------

 SCF Done:  E(RB2PLYPD3) =  -155.677404502     A.U. after   12 cycles
 E2(B2PLYPD3) =    -0.2263151466D+00 E(B2PLYPD3) =    -0.15590371964888D+03

 The electronic state is 1-A.
 Alpha  occ. eigenvalues --  -10.63380 -10.62286 -10.61245 -10.60965  -0.93806
 Alpha  occ. eigenvalues --   -0.85097  -0.69176  -0.63863  -0.54486  -0.52890
 Alpha  occ. eigenvalues --   -0.46856  -0.44768  -0.40808  -0.38121  -0.27885
 Alpha virt. eigenvalues --    0.01983   0.06831   0.07105   0.07963   0.09585
 Alpha virt. eigenvalues --    0.11792   0.12028   0.14502   0.15501   0.16084
 Alpha virt. eigenvalues --    0.18449   0.19765   0.20931   0.22159   0.24526

 Mulliken charges:
               1
     1  C   -0.176108
     2  C   -0.032114
     3  C   -0.020917
     4  C   -0.174806
     5  H    0.088263
     6  H    0.055962
     7  H    0.053501
     8  H    0.053893
     9  H    0.063795
    10  H    0.088532
 Sum of Mulliken charges =   0.00000

 Dipole moment (field-independent basis, Debye):
    X=             -0.0966    Y=             -0.0013    Z=              0.1092  Tot=              0.1458
 Quadrupole moment (field-independent basis, Debye-Ang):
   XX=            -24.1960   YY=            -23.2167   ZZ=            -29.0846
   XY=              0.2463   XZ=             -0.1837   YZ=             -0.1346

 1\1\GINC-NODE31\SP\RB2PLYPD3-FC\def2QZVP\C4H6\BOITTIER\26-Aug-2020\0\\
 #p B2PLYPD3/Def2QZVP\\butadiene\\0,1\C,0,-3.819115,0.221111,0.061044\C
 ,0,-2.707147,-0.507445,-0.010812\C,0,-1.379795,0.059905,-0.055814\C,0,
 -0.299066,-0.644723,0.07949\H,0,-4.889185,-0.195995,-0.073984\H,0,-3.6
 70876,1.377312,0.344139\H,0,-2.689511,-1.592231,-0.00444\H,0,-1.319234
 ,1.104353,-0.187998\H,0,-0.383859,-1.764505,0.262595\H,0,0.591285,-0.1
 07978,0.058409\\Version=ES64L-G09RevD.01\State=1-A\HF=-155.6774045\MP2
 =-155.9037196\RMSD=5.490e-09\PG=C01 [X(C4H6)]\\@

 Normal termination of Gaussian 09 at Wed Aug 26 11:55:28 2020.
