 Gaussian 09, Revision D.01,
 Gaussian 09:  ES64L-G09RevD.01 24-Apr-2013

 --------------------
 #p B2PLYPD3/Def2QZVP
 --------------------

 ---------
 butadiene
 ---------
 Symbolic Z-matrix:
 Charge =  0 Multiplicity = 1

                         Standard orientation:
 ---------------------------------------------------------------------
 Center     Atomic      Atomic             Coordinates (Angstroms)
 Number     Number       Type             X           Y           Z
 ---------------------------------------------------------------------
      1          6           0        1.855325   -0.094578   -0.049675
      2          6           0        0.613094    0.377134    0.074278
      3          6           0       -0.596355   -0.435551    0.036112
      4          6           0       -1.834718    0.132050   -0.086068
      5          1           0        2.664740    0.627320    0.010968
      6          1           0        1.990131   -1.168636   -0.307757
      7          1           0        0.430848    1.475372    0.185636
      8          1           0       -0.491966   -1.447530    0.335582
      9          1           0       -2.175353    1.190137   -0.131063
     10          1           0       -2.642469   -0.550993    0.058755
 ---------------------------------------------------------------------

 SCF Done:  E(RB2PLYPD3) =  -155.685960252     A.U. after   12 cycles
 E2(B2PLYPD3) =    -0.2272235113D+00 E(B2PLYPD3) =    -0.15591318376297D+03

 The electronic state is 1-A.
 Alpha  occ. eigenvalues --  -10.62953 -10.62569 -10.62265 -10.61758  -0.92598
 Alpha  occ. eigenvalues --   -0.84474  -0.70178  -0.63469  -0.54362  -0.53261
 Alpha  occ. eigenvalues --   -0.47427  -0.44970  -0.40826  -0.37117  -0.27555
 Alpha virt. eigenvalues --    0.01262   0.07088   0.07375   0.07744   0.09138
 Alpha virt. eigenvalues --    0.11394   0.12346   0.14825   0.15326   0.16034
 Alpha virt. eigenvalues --    0.18693   0.19803   0.21435   0.22204   0.23866

 Mulliken charges:
               1
     1  C   -0.184779
     2  C   -0.027615
     3  C   -0.050844
     4  C   -0.177573
     5  H    0.091494
     6  H    0.072294
     7  H    0.052314
     8  H    0.077163
     9  H    0.075727
    10  H    0.071817
 Sum of Mulliken charges =   0.00000

 Dipole moment (field-independent basis, Debye):
    X=             -0.1216    Y=              0.0676    Z=              0.1962  Tot=              0.2406
 Quadrupole moment (field-independent basis, Debye-Ang):
   XX=            -23.9494   YY=            -23.0641   ZZ=            -29.2360
   XY=             -0.4171   XZ=             -0.5949   YZ=             -0.0614

 1\1\GINC-NODE17\SP\RB2PLYPD3-FC\def2QZVP\C4H6\BOITTIER\26-Aug-2020\0\\
 #p B2PLYPD3/Def2QZVP\\butadiene\\0,1\C,0,-3.854618,0.216088,-0.034449\
 C,0,-2.720897,-0.473485,0.107615\C,0,-1.382318,0.101532,0.060253\C,0,-
 0.269433,-0.686962,-0.041756\H,0,-4.783344,-0.342893,0.0361\H,0,-3.788
 546,1.290666,-0.316043\H,0,-2.744419,-1.583784,0.243344\H,0,-1.299226,
 1.121759,0.337586\H,0,-0.129477,-1.790412,-0.062147\H,0,0.649968,-0.16
 1341,0.093921\\Version=ES64L-G09RevD.01\State=1-A\HF=-155.6859603\MP2=
 -155.9131838\RMSD=2.581e-09\PG=C01 [X(C4H6)]\\@

 Normal termination of Gaussian 09 at Wed Aug 26 12:54:26 2020.
