 Gaussian 09, Revision D.01,
 Gaussian 09:  ES64L-G09RevD.01 24-Apr-2013

 --------------------
 #p B2PLYPD3/Def2QZVP
 --------------------

 ---------
 butadiene
 ---------
 Symbolic Z-matrix:
 Charge =  0 Multiplicity = 1

                         Standard orientation:
 ---------------------------------------------------------------------
 Center     Atomic      Atomic             Coordinates (Angstroms)
 Number     Number       Type             X           Y           Z
 ---------------------------------------------------------------------
      1          6           0        1.842398    0.105009    0.003515
      2          6           0        0.606356   -0.385533   -0.000046
      3          6           0       -0.611354    0.405471   -0.001292
      4          6           0       -1.839665   -0.124113   -0.012563
      5          1           0        2.703797   -0.556885    0.018428
      6          1           0        2.035964    1.177494   -0.039005
      7          1           0        0.455462   -1.448551    0.033101
      8          1           0       -0.516507    1.495585   -0.000753
      9          1           0       -1.948754   -1.208111   -0.039955
     10          1           0       -2.716375    0.535464    0.090502
 ---------------------------------------------------------------------

 SCF Done:  E(RB2PLYPD3) =  -155.699999817     A.U. after   11 cycles
 E2(B2PLYPD3) =    -0.2258592753D+00 E(B2PLYPD3) =    -0.15592585909200D+03

 The electronic state is 1-A.
 Alpha  occ. eigenvalues --  -10.62545 -10.62327 -10.61834 -10.61589  -0.93025
 Alpha  occ. eigenvalues --   -0.84940  -0.69882  -0.63962  -0.54310  -0.53959
 Alpha  occ. eigenvalues --   -0.46510  -0.45581  -0.41108  -0.38143  -0.27732
 Alpha virt. eigenvalues --    0.01731   0.06973   0.07400   0.07981   0.09676
 Alpha virt. eigenvalues --    0.11728   0.12307   0.14685   0.15770   0.16080
 Alpha virt. eigenvalues --    0.18740   0.20329   0.21427   0.22768   0.24010

 Mulliken charges:
               1
     1  C   -0.175628
     2  C   -0.031084
     3  C   -0.026754
     4  C   -0.178195
     5  H    0.085396
     6  H    0.067187
     7  H    0.053623
     8  H    0.051809
     9  H    0.066042
    10  H    0.087602
 Sum of Mulliken charges =   0.00000

 Dipole moment (field-independent basis, Debye):
    X=              0.0130    Y=              0.0063    Z=              0.0535  Tot=              0.0554
 Quadrupole moment (field-independent basis, Debye-Ang):
   XX=            -23.6697   YY=            -23.0517   ZZ=            -29.2977
   XY=              0.0099   XZ=             -0.2159   YZ=              0.0113

 1\1\GINC-NODE13\SP\RB2PLYPD3-FC\def2QZVP\C4H6\BOITTIER\26-Aug-2020\0\\
 #p B2PLYPD3/Def2QZVP\\butadiene\\0,1\C,0,-3.846934,0.21548,0.01677\C,0
 ,-2.717617,-0.486498,0.034541\C,0,-1.378827,0.075359,0.013015\C,0,-0.2
 64011,-0.663432,0.03962\H,0,-4.812226,-0.283046,0.020925\H,0,-3.846796
 ,1.306061,0.028313\H,0,-2.75802,-1.559921,0.032092\H,0,-1.278629,1.164
 524,-0.018987\H,0,-0.348971,-1.748348,0.098288\H,0,0.715338,-0.173256,
 -0.082397\\Version=ES64L-G09RevD.01\State=1-A\HF=-155.6999998\MP2=-155
 .9258591\RMSD=4.209e-09\PG=C01 [X(C4H6)]\\@

 Normal termination of Gaussian 09 at Wed Aug 26 19:07:47 2020.
