 Gaussian 09, Revision D.01,
 Gaussian 09:  ES64L-G09RevD.01 24-Apr-2013

 --------------------
 #p B2PLYPD3/Def2QZVP
 --------------------

 ---------
 butadiene
 ---------
 Symbolic Z-matrix:
 Charge =  0 Multiplicity = 1

                         Standard orientation:
 ---------------------------------------------------------------------
 Center     Atomic      Atomic             Coordinates (Angstroms)
 Number     Number       Type             X           Y           Z
 ---------------------------------------------------------------------
      1          6           0       -1.831581    0.138478   -0.046620
      2          6           0       -0.636197   -0.458596    0.050489
      3          6           0        0.606061    0.363397    0.036484
      4          6           0        1.834781   -0.097780   -0.087557
      5          1           0       -2.733984   -0.398242   -0.091961
      6          1           0       -1.782150    1.288279   -0.162523
      7          1           0       -0.485176   -1.525109    0.310969
      8          1           0        0.495513    1.482121    0.273151
      9          1           0        2.049868   -1.092594   -0.189463
     10          1           0        2.617544    0.572553    0.143054
 ---------------------------------------------------------------------

 SCF Done:  E(RB2PLYPD3) =  -155.683106645     A.U. after   11 cycles
 E2(B2PLYPD3) =    -0.2262242010D+00 E(B2PLYPD3) =    -0.15590933084580D+03

 The electronic state is 1-A.
 Alpha  occ. eigenvalues --  -10.63201 -10.62909 -10.62250 -10.60012  -0.92596
 Alpha  occ. eigenvalues --   -0.85310  -0.69709  -0.63208  -0.55001  -0.53753
 Alpha  occ. eigenvalues --   -0.46917  -0.45184  -0.40872  -0.36994  -0.28189
 Alpha virt. eigenvalues --    0.02013   0.06915   0.07323   0.07867   0.09244
 Alpha virt. eigenvalues --    0.11627   0.12418   0.14571   0.15258   0.16307
 Alpha virt. eigenvalues --    0.18835   0.19392   0.21326   0.22220   0.24226

 Mulliken charges:
               1
     1  C   -0.167264
     2  C   -0.054112
     3  C   -0.014169
     4  C   -0.182252
     5  H    0.096289
     6  H    0.061199
     7  H    0.064669
     8  H    0.046550
     9  H    0.067155
    10  H    0.081935
 Sum of Mulliken charges =   0.00000

 Dipole moment (field-independent basis, Debye):
    X=             -0.0754    Y=             -0.1290    Z=              0.2985  Tot=              0.3338
 Quadrupole moment (field-independent basis, Debye-Ang):
   XX=            -23.8063   YY=            -23.2281   ZZ=            -29.0881
   XY=             -0.0294   XZ=              0.5683   YZ=              0.1068

 1\1\GINC-NODE14\SP\RB2PLYPD3-FC\def2QZVP\C4H6\BOITTIER\26-Aug-2020\0\\
 #p B2PLYPD3/Def2QZVP\\butadiene\\0,1\C,0,-3.827061,0.243739,-0.030437\
 C,0,-2.75397,-0.548448,0.095208\C,0,-1.38747,0.043498,0.058419\C,0,-0.
 258021,-0.62892,-0.041691\H,0,-4.809228,-0.128881,-0.061388\H,0,-3.578
 068,1.362285,-0.187839\H,0,-2.790962,-1.614627,0.395208\H,0,-1.301181,
 1.172325,0.25356\H,0,-0.219682,-1.649061,-0.106074\H,0,0.629753,-0.097
 154,0.168852\\Version=ES64L-G09RevD.01\State=1-A\HF=-155.6831066\MP2=-
 155.9093308\RMSD=8.907e-09\PG=C01 [X(C4H6)]\\@

 Normal termination of Gaussian 09 at Wed Aug 26 12:14:18 2020.
