 Gaussian 09, Revision D.01,
 Gaussian 09:  ES64L-G09RevD.01 24-Apr-2013

 --------------------
 #p B2PLYPD3/Def2QZVP
 --------------------

 ---------
 butadiene
 ---------
 Symbolic Z-matrix:
 Charge =  0 Multiplicity = 1

                         Standard orientation:
 ---------------------------------------------------------------------
 Center     Atomic      Atomic             Coordinates (Angstroms)
 Number     Number       Type             X           Y           Z
 ---------------------------------------------------------------------
      1          6           0       -1.841344    0.105375   -0.006585
      2          6           0       -0.603433   -0.411394   -0.014298
      3          6           0        0.599725    0.418143    0.003699
      4          6           0        1.834598   -0.113153    0.005180
      5          1           0       -2.727139   -0.535346    0.063934
      6          1           0       -1.987935    1.201535   -0.008397
      7          1           0       -0.416751   -1.470826    0.036533
      8          1           0        0.489630    1.493000   -0.000823
      9          1           0        1.994287   -1.185748   -0.042660
     10          1           0        2.710630    0.503560    0.023435
 ---------------------------------------------------------------------

 SCF Done:  E(RB2PLYPD3) =  -155.699758507     A.U. after   11 cycles
 E2(B2PLYPD3) =    -0.2261655054D+00 E(B2PLYPD3) =    -0.15592592401229D+03

 The electronic state is 1-A.
 Alpha  occ. eigenvalues --  -10.62666 -10.62606 -10.62011 -10.61508  -0.92801
 Alpha  occ. eigenvalues --   -0.84583  -0.69882  -0.64263  -0.54408  -0.53675
 Alpha  occ. eigenvalues --   -0.46569  -0.45590  -0.41314  -0.37941  -0.27534
 Alpha virt. eigenvalues --    0.01704   0.07022   0.07338   0.08107   0.09312
 Alpha virt. eigenvalues --    0.11699   0.12408   0.14613   0.15818   0.16137
 Alpha virt. eigenvalues --    0.18738   0.20488   0.21441   0.23129   0.23786

 Mulliken charges:
               1
     1  C   -0.174281
     2  C   -0.034981
     3  C   -0.029596
     4  C   -0.178396
     5  H    0.085895
     6  H    0.066123
     7  H    0.059503
     8  H    0.057022
     9  H    0.063867
    10  H    0.084844
 Sum of Mulliken charges =   0.00000

 Dipole moment (field-independent basis, Debye):
    X=              0.0337    Y=              0.0001    Z=              0.0575  Tot=              0.0667
 Quadrupole moment (field-independent basis, Debye-Ang):
   XX=            -23.6266   YY=            -23.0098   ZZ=            -29.3682
   XY=             -0.1713   XZ=             -0.2330   YZ=             -0.0403

 1\1\GINC-NODE35\SP\RB2PLYPD3-FC\def2QZVP\C4H6\BOITTIER\26-Aug-2020\0\\
 #p B2PLYPD3/Def2QZVP\\butadiene\\0,1\C,0,-3.842373,0.223353,0.016239\C
 ,0,-2.719119,-0.509966,0.024998\C,0,-1.385106,0.087016,0.016846\C,0,-0
 .267429,-0.659742,0.035253\H,0,-4.829486,-0.243032,0.106917\H,0,-3.787
 224,1.327294,-0.020274\H,0,-2.727891,-1.583576,0.109347\H,0,-1.297959,
 1.163296,-0.021699\H,0,-0.305695,-1.74445,0.021395\H,0,0.706221,-0.212
 412,0.034064\\Version=ES64L-G09RevD.01\State=1-A\HF=-155.6997585\MP2=-
 155.925924\RMSD=3.701e-09\PG=C01 [X(C4H6)]\\@

 Normal termination of Gaussian 09 at Wed Aug 26 20:30:17 2020.
