 Gaussian 09, Revision D.01,
 Gaussian 09:  ES64L-G09RevD.01 24-Apr-2013

 --------------------
 #p B2PLYPD3/Def2QZVP
 --------------------

 ---------
 butadiene
 ---------
 Symbolic Z-matrix:
 Charge =  0 Multiplicity = 1

                         Standard orientation:
 ---------------------------------------------------------------------
 Center     Atomic      Atomic             Coordinates (Angstroms)
 Number     Number       Type             X           Y           Z
 ---------------------------------------------------------------------
      1          6           0        1.836659   -0.115229   -0.016022
      2          6           0        0.607618    0.417810    0.002169
      3          6           0       -0.594128   -0.388333    0.008758
      4          6           0       -1.831284    0.098704   -0.017215
      5          1           0        2.747340    0.475417    0.047181
      6          1           0        1.935307   -1.204030   -0.058905
      7          1           0        0.432572    1.492156    0.054558
      8          1           0       -0.478808   -1.459758    0.101165
      9          1           0       -2.021153    1.150874   -0.010929
     10          1           0       -2.728446   -0.532370    0.000790
 ---------------------------------------------------------------------

 SCF Done:  E(RB2PLYPD3) =  -155.699871016     A.U. after   11 cycles
 E2(B2PLYPD3) =    -0.2258382523D+00 E(B2PLYPD3) =    -0.15592570926790D+03

 The electronic state is 1-A.
 Alpha  occ. eigenvalues --  -10.62694 -10.62286 -10.61872 -10.61381  -0.93146
 Alpha  occ. eigenvalues --   -0.84823  -0.70099  -0.64192  -0.54699  -0.53720
 Alpha  occ. eigenvalues --   -0.46859  -0.45364  -0.41168  -0.38135  -0.27666
 Alpha virt. eigenvalues --    0.01704   0.07025   0.07389   0.08043   0.09581
 Alpha virt. eigenvalues --    0.11666   0.12537   0.14619   0.15814   0.16162
 Alpha virt. eigenvalues --    0.18763   0.20390   0.21719   0.22763   0.23835

 Mulliken charges:
               1
     1  C   -0.172472
     2  C   -0.036164
     3  C   -0.021059
     4  C   -0.176990
     5  H    0.088705
     6  H    0.064654
     7  H    0.055300
     8  H    0.054077
     9  H    0.061840
    10  H    0.082109
 Sum of Mulliken charges =   0.00000

 Dipole moment (field-independent basis, Debye):
    X=             -0.0016    Y=              0.0157    Z=              0.1294  Tot=              0.1304
 Quadrupole moment (field-independent basis, Debye-Ang):
   XX=            -23.3748   YY=            -23.2235   ZZ=            -29.2603
   XY=             -0.1549   XZ=              0.0309   YZ=              0.0383

 1\1\GINC-NODE34\SP\RB2PLYPD3-FC\def2QZVP\C4H6\BOITTIER\26-Aug-2020\0\\
 #p B2PLYPD3/Def2QZVP\\butadiene\\0,1\C,0,-3.835113,0.231238,0.005018\C
 ,0,-2.72279,-0.514672,0.041888\C,0,-1.394965,0.060405,0.025438\C,0,-0.
 266509,-0.64312,0.016749\H,0,-4.837402,-0.182542,0.085016\H,0,-3.73522
 8,1.318052,-0.071898\H,0,-2.744886,-1.600814,0.127986\H,0,-1.314086,1.
 137339,0.084259\H,0,-0.270196,-1.711572,0.056101\H,0,0.730123,-0.18464
 1,0.016637\\Version=ES64L-G09RevD.01\State=1-A\HF=-155.699871\MP2=-155
 .9257093\RMSD=5.132e-09\PG=C01 [X(C4H6)]\\@

 Normal termination of Gaussian 09 at Wed Aug 26 14:37:10 2020.
