 Gaussian 09, Revision D.01,
 Gaussian 09:  ES64L-G09RevD.01 24-Apr-2013

 --------------------
 #p B2PLYPD3/Def2QZVP
 --------------------

 ---------
 butadiene
 ---------
 Symbolic Z-matrix:
 Charge =  0 Multiplicity = 1

                         Standard orientation:
 ---------------------------------------------------------------------
 Center     Atomic      Atomic             Coordinates (Angstroms)
 Number     Number       Type             X           Y           Z
 ---------------------------------------------------------------------
      1          6           0       -1.838092   -0.117259   -0.021898
      2          6           0       -0.600569    0.421285    0.010807
      3          6           0        0.593228   -0.396027    0.034262
      4          6           0        1.837588    0.088315   -0.012264
      5          1           0       -2.712353    0.507461    0.000937
      6          1           0       -1.964960   -1.208535    0.016064
      7          1           0       -0.448351    1.495043    0.008809
      8          1           0        0.429408   -1.441912   -0.037099
      9          1           0        1.996919    1.185220   -0.017900
     10          1           0        2.746412   -0.515170   -0.036253
 ---------------------------------------------------------------------

 SCF Done:  E(RB2PLYPD3) =  -155.698721303     A.U. after   11 cycles
 E2(B2PLYPD3) =    -0.2262642307D+00 E(B2PLYPD3) =    -0.15592498553383D+03

 The electronic state is 1-A.
 Alpha  occ. eigenvalues --  -10.62730 -10.62225 -10.61896 -10.61892  -0.93058
 Alpha  occ. eigenvalues --   -0.84548  -0.70089  -0.64329  -0.54702  -0.53500
 Alpha  occ. eigenvalues --   -0.46751  -0.45350  -0.41336  -0.38113  -0.27489
 Alpha virt. eigenvalues --    0.01533   0.07024   0.07347   0.08131   0.09427
 Alpha virt. eigenvalues --    0.11682   0.12490   0.14563   0.15746   0.16184
 Alpha virt. eigenvalues --    0.18734   0.20341   0.21603   0.23127   0.23689

 Mulliken charges:
               1
     1  C   -0.177849
     2  C   -0.032958
     3  C   -0.026543
     4  C   -0.173695
     5  H    0.088011
     6  H    0.066000
     7  H    0.055916
     8  H    0.058164
     9  H    0.056751
    10  H    0.086203
 Sum of Mulliken charges =   0.00000

 Dipole moment (field-independent basis, Debye):
    X=             -0.0002    Y=              0.0003    Z=             -0.0248  Tot=              0.0248
 Quadrupole moment (field-independent basis, Debye-Ang):
   XX=            -23.4761   YY=            -23.1576   ZZ=            -29.3450
   XY=              0.1153   XZ=             -0.2296   YZ=              0.0479

 1\1\GINC-NODE30\SP\RB2PLYPD3-FC\def2QZVP\C4H6\BOITTIER\26-Aug-2020\0\\
 #p B2PLYPD3/Def2QZVP\\butadiene\\0,1\C,0,-3.836524,0.237275,0.038475\C
 ,0,-2.718865,-0.519811,0.023597\C,0,-1.395392,0.063767,-0.015857\C,0,-
 0.260985,-0.639323,0.047149\H,0,-4.810595,-0.216823,0.02802\H,0,-3.761
 037,1.332004,-0.027028\H,0,-2.766255,-1.602877,0.052804\H,0,-1.364446,
 1.123409,0.028923\H,0,-0.305626,-1.746349,0.080593\H,0,0.743167,-0.212
 404,0.05941\\Version=ES64L-G09RevD.01\State=1-A\HF=-155.6987213\MP2=-1
 55.9249855\RMSD=5.906e-09\PG=C01 [X(C4H6)]\\@

 Normal termination of Gaussian 09 at Wed Aug 26 20:15:24 2020.
