 Gaussian 09, Revision D.01,
 Gaussian 09:  ES64L-G09RevD.01 24-Apr-2013

 --------------------
 #p B2PLYPD3/Def2QZVP
 --------------------

 ---------
 butadiene
 ---------
 Symbolic Z-matrix:
 Charge =  0 Multiplicity = 1

                         Standard orientation:
 ---------------------------------------------------------------------
 Center     Atomic      Atomic             Coordinates (Angstroms)
 Number     Number       Type             X           Y           Z
 ---------------------------------------------------------------------
      1          6           0        1.830317   -0.112069    0.014764
      2          6           0        0.597352    0.412748   -0.027865
      3          6           0       -0.594214   -0.401267   -0.027360
      4          6           0       -1.835337    0.109607    0.016641
      5          1           0        2.728662    0.489366    0.053927
      6          1           0        2.007294   -1.167606    0.045543
      7          1           0        0.469908    1.505131   -0.013189
      8          1           0       -0.459183   -1.479769   -0.033608
      9          1           0       -2.038539    1.160850    0.028874
     10          1           0       -2.696849   -0.562085    0.061368
 ---------------------------------------------------------------------

 SCF Done:  E(RB2PLYPD3) =  -155.700335278     A.U. after   11 cycles
 E2(B2PLYPD3) =    -0.2260138005D+00 E(B2PLYPD3) =    -0.15592634907858D+03

 The electronic state is 1-A.
 Alpha  occ. eigenvalues --  -10.62733 -10.62578 -10.61570 -10.61452  -0.93020
 Alpha  occ. eigenvalues --   -0.84661  -0.70281  -0.64165  -0.54487  -0.54034
 Alpha  occ. eigenvalues --   -0.46383  -0.45660  -0.41342  -0.38174  -0.27440
 Alpha virt. eigenvalues --    0.01597   0.07008   0.07385   0.08028   0.09509
 Alpha virt. eigenvalues --    0.11668   0.12462   0.14800   0.15929   0.16144
 Alpha virt. eigenvalues --    0.18764   0.20544   0.21790   0.22869   0.23643

 Mulliken charges:
               1
     1  C   -0.173894
     2  C   -0.029427
     3  C   -0.030005
     4  C   -0.178425
     5  H    0.082173
     6  H    0.064302
     7  H    0.055677
     8  H    0.057553
     9  H    0.070256
    10  H    0.081790
 Sum of Mulliken charges =   0.00000

 Dipole moment (field-independent basis, Debye):
    X=              0.0272    Y=             -0.0068    Z=              0.0924  Tot=              0.0966
 Quadrupole moment (field-independent basis, Debye-Ang):
   XX=            -23.5144   YY=            -23.0347   ZZ=            -29.3083
   XY=             -0.2997   XZ=              0.0258   YZ=             -0.0032

 1\1\GINC-NODE37\SP\RB2PLYPD3-FC\def2QZVP\C4H6\BOITTIER\26-Aug-2020\0\\
 #p B2PLYPD3/Def2QZVP\\butadiene\\0,1\C,0,-3.831116,0.231069,0.035922\C
 ,0,-2.715003,-0.511283,0.010291\C,0,-1.394736,0.070881,-0.010474\C,0,-
 0.267741,-0.656806,0.050105\H,0,-4.824106,-0.19466,0.090755\H,0,-3.812
 079,1.301613,0.036296\H,0,-2.789309,-1.607694,0.056323\H,0,-1.330396,1
 .155276,-0.047698\H,0,-0.260056,-1.726705,0.092645\H,0,0.70218,-0.1529
 22,0.077064\\Version=ES64L-G09RevD.01\State=1-A\HF=-155.7003353\MP2=-1
 55.9263491\RMSD=3.020e-09\PG=C01 [X(C4H6)]\\@

 Normal termination of Gaussian 09 at Wed Aug 26 21:05:58 2020.
