 Gaussian 09, Revision D.01,
 Gaussian 09:  ES64L-G09RevD.01 24-Apr-2013

 --------------------
 #p B2PLYPD3/Def2QZVP
 --------------------

 ---------
 butadiene
 ---------
 Symbolic Z-matrix:
 Charge =  0 Multiplicity = 1

                         Standard orientation:
 ---------------------------------------------------------------------
 Center     Atomic      Atomic             Coordinates (Angstroms)
 Number     Number       Type             X           Y           Z
 ---------------------------------------------------------------------
      1          6           0       -1.874336    0.101311   -0.021208
      2          6           0       -0.599707   -0.366620    0.067919
      3          6           0        0.629574    0.410736   -0.000694
      4          6           0        1.853801   -0.109097   -0.065567
      5          1           0       -2.702273   -0.603804    0.031634
      6          1           0       -2.197523    1.158197   -0.164668
      7          1           0       -0.486171   -1.499567    0.000181
      8          1           0        0.602930    1.554567    0.128956
      9          1           0        1.934326   -1.211431   -0.052749
     10          1           0        2.792722    0.384058    0.173947
 ---------------------------------------------------------------------

 SCF Done:  E(RB2PLYPD3) =  -155.684726598     A.U. after   11 cycles
 E2(B2PLYPD3) =    -0.2278249932D+00 E(B2PLYPD3) =    -0.15591255159127D+03

 The electronic state is 1-A.
 Alpha  occ. eigenvalues --  -10.63973 -10.63513 -10.62674 -10.61835  -0.92466
 Alpha  occ. eigenvalues --   -0.84654  -0.70085  -0.62724  -0.54453  -0.53279
 Alpha  occ. eigenvalues --   -0.46828  -0.44302  -0.40294  -0.37865  -0.27720
 Alpha virt. eigenvalues --    0.00913   0.06933   0.07229   0.07696   0.09363
 Alpha virt. eigenvalues --    0.11293   0.12510   0.14414   0.15654   0.16342
 Alpha virt. eigenvalues --    0.19008   0.19805   0.21540   0.22183   0.23541

 Mulliken charges:
               1
     1  C   -0.168275
     2  C   -0.043458
     3  C   -0.023607
     4  C   -0.153922
     5  H    0.083477
     6  H    0.072525
     7  H    0.052035
     8  H    0.051169
     9  H    0.045550
    10  H    0.084507
 Sum of Mulliken charges =   0.00000

 Dipole moment (field-independent basis, Debye):
    X=             -0.0513    Y=             -0.0051    Z=              0.1459  Tot=              0.1547
 Quadrupole moment (field-independent basis, Debye-Ang):
   XX=            -23.0865   YY=            -23.5209   ZZ=            -29.4597
   XY=             -0.1055   XZ=              0.9115   YZ=              0.1079

 1\1\GINC-NODE29\SP\RB2PLYPD3-FC\def2QZVP\C4H6\BOITTIER\26-Aug-2020\0\\
 #p B2PLYPD3/Def2QZVP\\butadiene\\0,1\C,0,-3.881135,0.209773,-0.011998\
 C,0,-2.709036,-0.472791,0.096959\C,0,-1.361958,0.075244,0.025119\C,0,-
 0.247739,-0.652561,-0.019395\H,0,-4.820338,-0.337908,0.046323\H,0,-4.0
 12845,1.303977,-0.177552\H,0,-2.795903,-1.609179,0.050882\H,0,-1.18798
 2,1.208301,0.133669\H,0,-0.362173,-1.751454,0.014216\H,0,0.761867,-0.3
 2729,0.219427\\Version=ES64L-G09RevD.01\State=1-A\HF=-155.6847266\MP2=
 -155.9125516\RMSD=8.695e-09\PG=C01 [X(C4H6)]\\@

 Normal termination of Gaussian 09 at Wed Aug 26 14:52:42 2020.
