 Gaussian 09, Revision D.01,
 Gaussian 09:  ES64L-G09RevD.01 24-Apr-2013

 --------------------
 #p B2PLYPD3/Def2QZVP
 --------------------

 ---------
 butadiene
 ---------
 Symbolic Z-matrix:
 Charge =  0 Multiplicity = 1

                         Standard orientation:
 ---------------------------------------------------------------------
 Center     Atomic      Atomic             Coordinates (Angstroms)
 Number     Number       Type             X           Y           Z
 ---------------------------------------------------------------------
      1          6           0        1.823556   -0.093279   -0.052132
      2          6           0        0.580712    0.381421    0.064310
      3          6           0       -0.593611   -0.456557    0.031137
      4          6           0       -1.812588    0.124913   -0.018541
      5          1           0        2.687499    0.510104   -0.110081
      6          1           0        2.075943   -1.123959    0.169591
      7          1           0        0.438711    1.527766    0.005676
      8          1           0       -0.613724   -1.562972   -0.155115
      9          1           0       -1.787908    1.293697   -0.062023
     10          1           0       -2.788930   -0.383629    0.003308
 ---------------------------------------------------------------------

 SCF Done:  E(RB2PLYPD3) =  -155.679245767     A.U. after   11 cycles
 E2(B2PLYPD3) =    -0.2280428807D+00 E(B2PLYPD3) =    -0.15590728864813D+03

 The electronic state is 1-A.
 Alpha  occ. eigenvalues --  -10.63558 -10.63258 -10.62816 -10.61103  -0.93009
 Alpha  occ. eigenvalues --   -0.84534  -0.69549  -0.63011  -0.54903  -0.53208
 Alpha  occ. eigenvalues --   -0.45997  -0.43733  -0.41492  -0.37998  -0.27349
 Alpha virt. eigenvalues --    0.01403   0.06832   0.07236   0.07766   0.08842
 Alpha virt. eigenvalues --    0.11555   0.12718   0.14071   0.15548   0.16544
 Alpha virt. eigenvalues --    0.18512   0.19647   0.21666   0.22997   0.23766

 Mulliken charges:
               1
     1  C   -0.170470
     2  C   -0.026643
     3  C   -0.034909
     4  C   -0.165862
     5  H    0.076794
     6  H    0.067026
     7  H    0.050792
     8  H    0.067347
     9  H    0.045018
    10  H    0.090907
 Sum of Mulliken charges =   0.00000

 Dipole moment (field-independent basis, Debye):
    X=             -0.0285    Y=             -0.0725    Z=             -0.0616  Tot=              0.0993
 Quadrupole moment (field-independent basis, Debye-Ang):
   XX=            -23.4113   YY=            -23.3701   ZZ=            -29.4155
   XY=              0.3000   XZ=              0.2425   YZ=             -0.1348

 1\1\GINC-NODE03\SP\RB2PLYPD3-FC\def2QZVP\C4H6\BOITTIER\26-Aug-2020\0\\
 #p B2PLYPD3/Def2QZVP\\butadiene\\0,1\C,0,-3.831386,0.196751,-0.030972\
 C,0,-2.692628,-0.489716,0.093743\C,0,-1.387853,0.124594,0.043468\C,0,-
 0.292312,-0.665803,0.004182\H,0,-4.789308,-0.243853,-0.076578\H,0,-3.8
 95018,1.259934,0.170908\H,0,-2.757555,-1.643909,0.057244\H,0,-1.171555
 ,1.20595,-0.164218\H,0,-0.525185,-1.812055,-0.01661\H,0,0.759145,-0.33
 9232,0.015452\\Version=ES64L-G09RevD.01\State=1-A\HF=-155.6792458\MP2=
 -155.9072886\RMSD=8.014e-09\PG=C01 [X(C4H6)]\\@

 Normal termination of Gaussian 09 at Wed Aug 26 16:02:56 2020.
