 Gaussian 09, Revision D.01,
 Gaussian 09:  ES64L-G09RevD.01 24-Apr-2013

 --------------------
 #p B2PLYPD3/Def2QZVP
 --------------------

 ---------
 butadiene
 ---------
 Symbolic Z-matrix:
 Charge =  0 Multiplicity = 1

                         Standard orientation:
 ---------------------------------------------------------------------
 Center     Atomic      Atomic             Coordinates (Angstroms)
 Number     Number       Type             X           Y           Z
 ---------------------------------------------------------------------
      1          6           0       -1.856252   -0.096424    0.008592
      2          6           0       -0.601607    0.363786   -0.019330
      3          6           0        0.624124   -0.417200   -0.047057
      4          6           0        1.838178    0.133381    0.033304
      5          1           0       -2.752638    0.513812   -0.002352
      6          1           0       -2.016719   -1.125726    0.198526
      7          1           0       -0.522911    1.481169   -0.094843
      8          1           0        0.551255   -1.489934   -0.070073
      9          1           0        1.981691    1.192533    0.131011
     10          1           0        2.732666   -0.473114   -0.015325
 ---------------------------------------------------------------------

 SCF Done:  E(RB2PLYPD3) =  -155.697090651     A.U. after   11 cycles
 E2(B2PLYPD3) =    -0.2258323739D+00 E(B2PLYPD3) =    -0.15592292302537D+03

 The electronic state is 1-A.
 Alpha  occ. eigenvalues --  -10.62916 -10.62698 -10.61600 -10.61192  -0.92891
 Alpha  occ. eigenvalues --   -0.85085  -0.70310  -0.63957  -0.54695  -0.54158
 Alpha  occ. eigenvalues --   -0.47023  -0.45164  -0.40997  -0.38033  -0.27725
 Alpha virt. eigenvalues --    0.01537   0.07013   0.07541   0.07900   0.09622
 Alpha virt. eigenvalues --    0.11587   0.12513   0.14683   0.15871   0.16402
 Alpha virt. eigenvalues --    0.18887   0.20231   0.21826   0.22353   0.23583

 Mulliken charges:
               1
     1  C   -0.175209
     2  C   -0.023961
     3  C   -0.043019
     4  C   -0.165830
     5  H    0.085025
     6  H    0.060646
     7  H    0.047579
     8  H    0.061159
     9  H    0.069768
    10  H    0.083843
 Sum of Mulliken charges =   0.00000

 Dipole moment (field-independent basis, Debye):
    X=              0.0803    Y=             -0.0224    Z=              0.1050  Tot=              0.1340
 Quadrupole moment (field-independent basis, Debye-Ang):
   XX=            -23.1773   YY=            -23.2996   ZZ=            -29.2051
   XY=             -0.0443   XZ=             -0.1541   YZ=             -0.0940

 1\1\GINC-NODE15\SP\RB2PLYPD3-FC\def2QZVP\C4H6\BOITTIER\26-Aug-2020\0\\
 #p B2PLYPD3/Def2QZVP\\butadiene\\0,1\C,0,-3.864706,0.200141,0.004541\C
 ,0,-2.708902,-0.469571,0.052581\C,0,-1.366159,0.087333,0.057411\C,0,-0
 .266305,-0.668031,0.000222\H,0,-4.853365,-0.244524,0.033562\H,0,-3.844
 609,1.234467,-0.221411\H,0,-2.825123,-1.580361,0.166951\H,0,-1.251683,
 1.15658,0.043074\H,0,-0.309052,-1.738756,-0.060319\H,0,0.719996,-0.224
 654,0.03086\\Version=ES64L-G09RevD.01\State=1-A\HF=-155.6970907\MP2=-1
 55.922923\RMSD=5.970e-09\PG=C01 [X(C4H6)]\\@

 Normal termination of Gaussian 09 at Wed Aug 26 09:33:07 2020.
