 Gaussian 09, Revision D.01,
 Gaussian 09:  ES64L-G09RevD.01 24-Apr-2013

 --------------------
 #p B2PLYPD3/Def2QZVP
 --------------------

 ---------
 butadiene
 ---------
 Symbolic Z-matrix:
 Charge =  0 Multiplicity = 1

                         Standard orientation:
 ---------------------------------------------------------------------
 Center     Atomic      Atomic             Coordinates (Angstroms)
 Number     Number       Type             X           Y           Z
 ---------------------------------------------------------------------
      1          6           0       -1.847115    0.096836    0.035435
      2          6           0       -0.619069   -0.390357   -0.046278
      3          6           0        0.611564    0.418040   -0.039848
      4          6           0        1.832588   -0.129008    0.055326
      5          1           0       -2.690732   -0.524023    0.140536
      6          1           0       -1.957056    1.198475   -0.019838
      7          1           0       -0.484696   -1.490598   -0.127153
      8          1           0        0.495167    1.512577   -0.046222
      9          1           0        2.049101   -1.181480    0.012481
     10          1           0        2.720409    0.511984    0.012389
 ---------------------------------------------------------------------

 SCF Done:  E(RB2PLYPD3) =  -155.696395793     A.U. after   11 cycles
 E2(B2PLYPD3) =    -0.2259637310D+00 E(B2PLYPD3) =    -0.15592235952363D+03

 The electronic state is 1-A.
 Alpha  occ. eigenvalues --  -10.63126 -10.62670 -10.61730 -10.61267  -0.92698
 Alpha  occ. eigenvalues --   -0.85030  -0.69891  -0.63566  -0.54934  -0.53415
 Alpha  occ. eigenvalues --   -0.47164  -0.45019  -0.40957  -0.37758  -0.27856
 Alpha virt. eigenvalues --    0.01853   0.07018   0.07271   0.08021   0.09443
 Alpha virt. eigenvalues --    0.11642   0.12410   0.14615   0.15695   0.16325
 Alpha virt. eigenvalues --    0.18805   0.19867   0.21856   0.22930   0.23800

 Mulliken charges:
               1
     1  C   -0.178251
     2  C   -0.023187
     3  C   -0.040064
     4  C   -0.167014
     5  H    0.094372
     6  H    0.061120
     7  H    0.049998
     8  H    0.056430
     9  H    0.069741
    10  H    0.076856
 Sum of Mulliken charges =   0.00000

 Dipole moment (field-independent basis, Debye):
    X=              0.0215    Y=             -0.0378    Z=             -0.0841  Tot=              0.0947
 Quadrupole moment (field-independent basis, Debye-Ang):
   XX=            -23.5530   YY=            -23.0906   ZZ=            -29.3004
   XY=             -0.1050   XZ=             -0.3085   YZ=             -0.0469

 1\1\GINC-NODE18\SP\RB2PLYPD3-FC\def2QZVP\C4H6\BOITTIER\26-Aug-2020\0\\
 #p B2PLYPD3/Def2QZVP\\butadiene\\0,1\C,0,-3.849986,0.209788,0.057116\C
 ,0,-2.728472,-0.490068,-0.010252\C,0,-1.373826,0.086639,-0.028958\C,0,
 -0.26882,-0.665559,0.082303\H,0,-4.78982,-0.247881,0.181428\H,0,-3.762
 871,1.311281,-0.031619\H,0,-2.792089,-1.598595,-0.057655\H,0,-1.29404,
 1.183755,-0.068598\H,0,-0.2429,-1.740557,0.071424\H,0,0.718452,-0.1940
 83,0.019495\\Version=ES64L-G09RevD.01\State=1-A\HF=-155.6963958\MP2=-1
 55.9223595\RMSD=7.420e-09\PG=C01 [X(C4H6)]\\@

 Normal termination of Gaussian 09 at Wed Aug 26 11:09:33 2020.
