 Gaussian 09, Revision D.01,
 Gaussian 09:  ES64L-G09RevD.01 24-Apr-2013

 --------------------
 #p B2PLYPD3/Def2QZVP
 --------------------

 ---------
 butadiene
 ---------
 Symbolic Z-matrix:
 Charge =  0 Multiplicity = 1

                         Standard orientation:
 ---------------------------------------------------------------------
 Center     Atomic      Atomic             Coordinates (Angstroms)
 Number     Number       Type             X           Y           Z
 ---------------------------------------------------------------------
      1          6           0       -1.829158   -0.121734    0.025979
      2          6           0       -0.608057    0.409432   -0.035667
      3          6           0        0.600701   -0.381865   -0.016523
      4          6           0        1.834587    0.096837    0.021912
      5          1           0       -2.690171    0.520660   -0.002803
      6          1           0       -1.938958   -1.211811    0.043980
      7          1           0       -0.514193    1.489752   -0.012074
      8          1           0        0.435829   -1.445039   -0.039365
      9          1           0        2.029405    1.182398    0.052907
     10          1           0        2.689653   -0.551977   -0.016856
 ---------------------------------------------------------------------

 SCF Done:  E(RB2PLYPD3) =  -155.700359578     A.U. after   11 cycles
 E2(B2PLYPD3) =    -0.2254878361D+00 E(B2PLYPD3) =    -0.15592584741360D+03

 The electronic state is 1-A.
 Alpha  occ. eigenvalues --  -10.62266 -10.62130 -10.61526 -10.61443  -0.93269
 Alpha  occ. eigenvalues --   -0.85098  -0.70079  -0.63998  -0.54722  -0.53929
 Alpha  occ. eigenvalues --   -0.46705  -0.45511  -0.41138  -0.38297  -0.27775
 Alpha virt. eigenvalues --    0.01836   0.07029   0.07378   0.08069   0.09766
 Alpha virt. eigenvalues --    0.11745   0.12351   0.14723   0.15793   0.16102
 Alpha virt. eigenvalues --    0.18748   0.20414   0.21458   0.22730   0.24074

 Mulliken charges:
               1
     1  C   -0.177485
     2  C   -0.027002
     3  C   -0.027605
     4  C   -0.175929
     5  H    0.088551
     6  H    0.064554
     7  H    0.052483
     8  H    0.051870
     9  H    0.063614
    10  H    0.086949
 Sum of Mulliken charges =   0.00000

 Dipole moment (field-independent basis, Debye):
    X=             -0.0165    Y=              0.0118    Z=             -0.0131  Tot=              0.0241
 Quadrupole moment (field-independent basis, Debye-Ang):
   XX=            -23.6241   YY=            -23.0651   ZZ=            -29.2179
   XY=             -0.0010   XZ=             -0.0489   YZ=              0.0620

 1\1\GINC-NODE38\SP\RB2PLYPD3-FC\def2QZVP\C4H6\BOITTIER\26-Aug-2020\0\\
 #p B2PLYPD3/Def2QZVP\\butadiene\\0,1\C,0,-3.829134,0.23365,-0.008138\C
 ,0,-2.723552,-0.507062,0.069696\C,0,-1.392062,0.05271,0.032231\C,0,-0.
 264733,-0.641323,0.008673\H,0,-4.791715,-0.242115,0.035745\H,0,-3.7407
 82,1.324827,-0.054792\H,0,-2.825938,-1.586855,0.074486\H,0,-1.362613,1
 .128418,0.027001\H,0,-0.268783,-1.744653,0.006394\H,0,0.693346,-0.1564
 16,0.032139\\Version=ES64L-G09RevD.01\State=1-A\HF=-155.7003596\MP2=-1
 55.9258474\RMSD=5.250e-09\PG=C01 [X(C4H6)]\\@

 Normal termination of Gaussian 09 at Wed Aug 26 18:32:31 2020.
