 Gaussian 09, Revision D.01,
 Gaussian 09:  ES64L-G09RevD.01 24-Apr-2013

 --------------------
 #p B2PLYPD3/Def2QZVP
 --------------------

 ---------
 butadiene
 ---------
 Symbolic Z-matrix:
 Charge =  0 Multiplicity = 1

                         Standard orientation:
 ---------------------------------------------------------------------
 Center     Atomic      Atomic             Coordinates (Angstroms)
 Number     Number       Type             X           Y           Z
 ---------------------------------------------------------------------
      1          6           0        1.843043   -0.104566    0.027900
      2          6           0        0.599344    0.375228   -0.043476
      3          6           0       -0.603917   -0.402609   -0.032805
      4          6           0       -1.849775    0.115726    0.006631
      5          1           0        2.682881    0.603506    0.034693
      6          1           0        2.162116   -1.141987    0.083550
      7          1           0        0.454996    1.446944   -0.073723
      8          1           0       -0.495946   -1.464772   -0.005864
      9          1           0       -1.985606    1.170692    0.185828
     10          1           0       -2.750618   -0.517058    0.026015
 ---------------------------------------------------------------------

 SCF Done:  E(RB2PLYPD3) =  -155.697204121     A.U. after   11 cycles
 E2(B2PLYPD3) =    -0.2262034378D+00 E(B2PLYPD3) =    -0.15592340755934D+03

 The electronic state is 1-A.
 Alpha  occ. eigenvalues --  -10.62488 -10.62380 -10.61921 -10.61857  -0.93138
 Alpha  occ. eigenvalues --   -0.84679  -0.70503  -0.64260  -0.54672  -0.53772
 Alpha  occ. eigenvalues --   -0.46750  -0.45443  -0.41095  -0.38175  -0.27459
 Alpha virt. eigenvalues --    0.01246   0.06907   0.07519   0.07997   0.09700
 Alpha virt. eigenvalues --    0.11594   0.12371   0.14912   0.15886   0.16148
 Alpha virt. eigenvalues --    0.18879   0.20587   0.21648   0.22299   0.23560

 Mulliken charges:
               1
     1  C   -0.173181
     2  C   -0.029877
     3  C   -0.033751
     4  C   -0.174674
     5  H    0.076081
     6  H    0.071082
     7  H    0.057018
     8  H    0.059264
     9  H    0.064891
    10  H    0.083146
 Sum of Mulliken charges =   0.00000

 Dipole moment (field-independent basis, Debye):
    X=              0.0378    Y=             -0.0406    Z=              0.1856  Tot=              0.1937
 Quadrupole moment (field-independent basis, Debye-Ang):
   XX=            -23.3963   YY=            -23.2136   ZZ=            -29.2624
   XY=             -0.2622   XZ=             -0.1990   YZ=              0.0608

 1\1\GINC-NODE35\SP\RB2PLYPD3-FC\def2QZVP\C4H6\BOITTIER\26-Aug-2020\0\\
 #p B2PLYPD3/Def2QZVP\\butadiene\\0,1\C,0,-3.846892,0.222525,0.047095\C
 ,0,-2.711352,-0.477536,-0.003379\C,0,-1.386708,0.068502,-0.01536\C,0,-
 0.255735,-0.665999,0.046247\H,0,-4.801437,-0.320415,0.075385\H,0,-3.97
 1888,1.301956,0.065834\H,0,-2.76433,-1.55803,0.003846\H,0,-1.299705,1.
 132881,-0.025434\H,0,-0.313444,-1.721251,0.262184\H,0,0.745186,-0.2072
 33,0.046926\\Version=ES64L-G09RevD.01\State=1-A\HF=-155.6972041\MP2=-1
 55.9234076\RMSD=5.611e-09\PG=C01 [X(C4H6)]\\@

 Normal termination of Gaussian 09 at Wed Aug 26 07:41:02 2020.
