 Gaussian 09, Revision D.01,
 Gaussian 09:  ES64L-G09RevD.01 24-Apr-2013

 --------------------
 #p B2PLYPD3/Def2QZVP
 --------------------

 ---------
 butadiene
 ---------
 Symbolic Z-matrix:
 Charge =  0 Multiplicity = 1

                         Standard orientation:
 ---------------------------------------------------------------------
 Center     Atomic      Atomic             Coordinates (Angstroms)
 Number     Number       Type             X           Y           Z
 ---------------------------------------------------------------------
      1          6           0       -1.849919    0.088778   -0.025875
      2          6           0       -0.609294   -0.362417    0.018210
      3          6           0        0.617059    0.422212   -0.009316
      4          6           0        1.851224   -0.134218   -0.002520
      5          1           0       -2.731245   -0.587508    0.089949
      6          1           0       -2.049232    1.136169   -0.005718
      7          1           0       -0.416213   -1.417062    0.037879
      8          1           0        0.478422    1.453351   -0.010938
      9          1           0        1.986111   -1.190847   -0.117406
     10          1           0        2.677737    0.519765    0.123234
 ---------------------------------------------------------------------

 SCF Done:  E(RB2PLYPD3) =  -155.695330392     A.U. after   11 cycles
 E2(B2PLYPD3) =    -0.2255874635D+00 E(B2PLYPD3) =    -0.15592091785524D+03

 The electronic state is 1-A.
 Alpha  occ. eigenvalues --  -10.62307 -10.62035 -10.61627 -10.61470  -0.93057
 Alpha  occ. eigenvalues --   -0.85004  -0.70500  -0.64717  -0.54727  -0.53787
 Alpha  occ. eigenvalues --   -0.46905  -0.46543  -0.40926  -0.37890  -0.27672
 Alpha virt. eigenvalues --    0.01475   0.06933   0.07590   0.08179   0.09646
 Alpha virt. eigenvalues --    0.11777   0.12363   0.14840   0.15805   0.15969
 Alpha virt. eigenvalues --    0.18870   0.20557   0.21435   0.22819   0.23900

 Mulliken charges:
               1
     1  C   -0.174132
     2  C   -0.021372
     3  C   -0.042862
     4  C   -0.183852
     5  H    0.081500
     6  H    0.063280
     7  H    0.051531
     8  H    0.061288
     9  H    0.075773
    10  H    0.088845
 Sum of Mulliken charges =   0.00000

 Dipole moment (field-independent basis, Debye):
    X=              0.0553    Y=              0.0397    Z=              0.1087  Tot=              0.1283
 Quadrupole moment (field-independent basis, Debye-Ang):
   XX=            -23.5897   YY=            -23.1224   ZZ=            -29.1730
   XY=             -0.2314   XZ=             -0.1384   YZ=              0.1312

 1\1\GINC-NODE29\SP\RB2PLYPD3-FC\def2QZVP\C4H6\BOITTIER\26-Aug-2020\0\\
 #p B2PLYPD3/Def2QZVP\\butadiene\\0,1\C,0,-3.857436,0.204018,-0.001063\
 C,0,-2.718215,-0.462218,0.05348\C,0,-1.370704,0.087835,0.008778\C,0,-0
 .25693,-0.681546,0.028393\H,0,-4.845721,-0.299703,0.129595\H,0,-3.8647
 58,1.270364,-0.004403\H,0,-2.718181,-1.533697,0.096796\H,0,-1.321351,1
 .126788,-0.015954\H,0,-0.314998,-1.747461,-0.062785\H,0,0.674323,-0.18
 4554,0.139735\\Version=ES64L-G09RevD.01\State=1-A\HF=-155.6953304\MP2=
 -155.9209179\RMSD=6.160e-09\PG=C01 [X(C4H6)]\\@

 Normal termination of Gaussian 09 at Wed Aug 26 09:17:49 2020.
