 Gaussian 09, Revision D.01,
 Gaussian 09:  ES64L-G09RevD.01 24-Apr-2013

 --------------------
 #p B2PLYPD3/Def2QZVP
 --------------------

 ---------
 butadiene
 ---------
 Symbolic Z-matrix:
 Charge =  0 Multiplicity = 1

                         Standard orientation:
 ---------------------------------------------------------------------
 Center     Atomic      Atomic             Coordinates (Angstroms)
 Number     Number       Type             X           Y           Z
 ---------------------------------------------------------------------
      1          6           0        1.823207   -0.113354    0.005778
      2          6           0        0.596212    0.406276   -0.018893
      3          6           0       -0.593744   -0.385370   -0.019070
      4          6           0       -1.834574    0.102800    0.003477
      5          1           0        2.735448    0.496688    0.064856
      6          1           0        1.975812   -1.193808   -0.002416
      7          1           0        0.503006    1.484415   -0.006272
      8          1           0       -0.439237   -1.460622    0.038875
      9          1           0       -2.009450    1.159645    0.045130
     10          1           0       -2.712188   -0.548431    0.032080
 ---------------------------------------------------------------------

 SCF Done:  E(RB2PLYPD3) =  -155.700284222     A.U. after   11 cycles
 E2(B2PLYPD3) =    -0.2257826345D+00 E(B2PLYPD3) =    -0.15592606685676D+03

 The electronic state is 1-A.
 Alpha  occ. eigenvalues --  -10.62344 -10.62252 -10.61745 -10.61478  -0.93424
 Alpha  occ. eigenvalues --   -0.84863  -0.70202  -0.64165  -0.54563  -0.54066
 Alpha  occ. eigenvalues --   -0.46594  -0.45310  -0.41266  -0.38456  -0.27573
 Alpha virt. eigenvalues --    0.01632   0.07000   0.07414   0.07992   0.09756
 Alpha virt. eigenvalues --    0.11690   0.12473   0.14714   0.15812   0.16236
 Alpha virt. eigenvalues --    0.18743   0.20440   0.21683   0.22796   0.23745

 Mulliken charges:
               1
     1  C   -0.173003
     2  C   -0.026522
     3  C   -0.026178
     4  C   -0.177659
     5  H    0.083208
     6  H    0.061204
     7  H    0.054105
     8  H    0.053148
     9  H    0.066707
    10  H    0.084990
 Sum of Mulliken charges =   0.00000

 Dipole moment (field-independent basis, Debye):
    X=              0.0295    Y=              0.0150    Z=              0.1304  Tot=              0.1345
 Quadrupole moment (field-independent basis, Debye-Ang):
   XX=            -23.4513   YY=            -23.1766   ZZ=            -29.2325
   XY=             -0.1080   XZ=             -0.0203   YZ=              0.0224

 1\1\GINC-NODE01\SP\RB2PLYPD3-FC\def2QZVP\C4H6\BOITTIER\26-Aug-2020\0\\
 #p B2PLYPD3/Def2QZVP\\butadiene\\0,1\C,0,-3.8252,0.228605,0.026876\C,0
 ,-2.712939,-0.50554,0.019846\C,0,-1.399106,0.056694,-0.000965\C,0,-0.2
 67377,-0.647667,0.038315\H,0,-4.832786,-0.203802,0.101839\H,0,-3.77926
 1,1.318113,-0.013093\H,0,-2.816856,-1.581865,0.064052\H,0,-1.355764,1.
 143353,0.025325\H,0,-0.28702,-1.717039,0.111087\H,0,0.713919,-0.165946
 ,0.049726\\Version=ES64L-G09RevD.01\State=1-A\HF=-155.7002842\MP2=-155
 .9260669\RMSD=2.757e-09\PG=C01 [X(C4H6)]\\@

 Normal termination of Gaussian 09 at Wed Aug 26 20:06:49 2020.
