 Gaussian 09, Revision D.01,
 Gaussian 09:  ES64L-G09RevD.01 24-Apr-2013

 --------------------
 #p B2PLYPD3/Def2QZVP
 --------------------

 ---------
 butadiene
 ---------
 Symbolic Z-matrix:
 Charge =  0 Multiplicity = 1

                         Standard orientation:
 ---------------------------------------------------------------------
 Center     Atomic      Atomic             Coordinates (Angstroms)
 Number     Number       Type             X           Y           Z
 ---------------------------------------------------------------------
      1          6           0       -1.833859    0.090093   -0.027004
      2          6           0       -0.563949   -0.394510    0.006443
      3          6           0        0.598427    0.460646    0.029641
      4          6           0        1.796516   -0.162691   -0.032546
      5          1           0       -2.682811   -0.599814    0.242039
      6          1           0       -2.077644    1.169216   -0.168811
      7          1           0       -0.322811   -1.410296   -0.084737
      8          1           0        0.592008    1.504968    0.075210
      9          1           0        1.879665   -1.166296    0.009192
     10          1           0        2.628783    0.540992    0.067907
 ---------------------------------------------------------------------

 SCF Done:  E(RB2PLYPD3) =  -155.678954820     A.U. after   12 cycles
 E2(B2PLYPD3) =    -0.2271352514D+00 E(B2PLYPD3) =    -0.15590609007117D+03

 The electronic state is 1-A.
 Alpha  occ. eigenvalues --  -10.62485 -10.62378 -10.62013 -10.60878  -0.93385
 Alpha  occ. eigenvalues --   -0.84280  -0.69720  -0.65751  -0.54763  -0.53133
 Alpha  occ. eigenvalues --   -0.47157  -0.45499  -0.41969  -0.37445  -0.26838
 Alpha virt. eigenvalues --    0.01242   0.06992   0.07522   0.08001   0.08839
 Alpha virt. eigenvalues --    0.11993   0.12220   0.14981   0.15275   0.16248
 Alpha virt. eigenvalues --    0.18562   0.19785   0.21476   0.23667   0.24327

 Mulliken charges:
               1
     1  C   -0.188254
     2  C   -0.039931
     3  C   -0.027548
     4  C   -0.180528
     5  H    0.077353
     6  H    0.071229
     7  H    0.071957
     8  H    0.066723
     9  H    0.077075
    10  H    0.071922
 Sum of Mulliken charges =   0.00000

 Dipole moment (field-independent basis, Debye):
    X=              0.1341    Y=              0.0511    Z=              0.1580  Tot=              0.2135
 Quadrupole moment (field-independent basis, Debye-Ang):
   XX=            -24.6626   YY=            -22.6542   ZZ=            -29.2305
   XY=             -0.2588   XZ=             -0.0702   YZ=             -0.1636

 1\1\GINC-NODE33\SP\RB2PLYPD3-FC\def2QZVP\C4H6\BOITTIER\26-Aug-2020\0\\
 #p B2PLYPD3/Def2QZVP\\butadiene\\0,1\C,0,-3.838011,0.211112,-0.005489\
 C,0,-2.678801,-0.497539,0.046219\C,0,-1.378847,0.129405,0.043186\C,0,-
 0.31617,-0.705458,0.003773\H,0,-4.798223,-0.301578,0.284716\H,0,-3.879
 715,1.31142,-0.183337\H,0,-2.629058,-1.542789,-0.010891\H,0,-1.192828,
 1.157998,0.054183\H,0,-0.4189,-1.705305,0.078825\H,0,0.63178,-0.164034
 ,0.082376\\Version=ES64L-G09RevD.01\State=1-A\HF=-155.6789548\MP2=-155
 .9060901\RMSD=4.143e-09\PG=C01 [X(C4H6)]\\@

 Normal termination of Gaussian 09 at Wed Aug 26 12:52:11 2020.
