 Gaussian 09, Revision D.01,
 Gaussian 09:  ES64L-G09RevD.01 24-Apr-2013

 --------------------
 #p B2PLYPD3/Def2QZVP
 --------------------

 ---------
 butadiene
 ---------
 Symbolic Z-matrix:
 Charge =  0 Multiplicity = 1

                         Standard orientation:
 ---------------------------------------------------------------------
 Center     Atomic      Atomic             Coordinates (Angstroms)
 Number     Number       Type             X           Y           Z
 ---------------------------------------------------------------------
      1          6           0        1.821963   -0.127625   -0.019298
      2          6           0        0.600290    0.430748    0.005328
      3          6           0       -0.595902   -0.398027    0.038963
      4          6           0       -1.836817    0.095646   -0.043343
      5          1           0        2.768224    0.444061   -0.002780
      6          1           0        1.941071   -1.178471   -0.123474
      7          1           0        0.499394    1.563192    0.158265
      8          1           0       -0.419409   -1.448170    0.127957
      9          1           0       -2.009773    1.153613   -0.085010
     10          1           0       -2.716710   -0.538677    0.035136
 ---------------------------------------------------------------------

 SCF Done:  E(RB2PLYPD3) =  -155.695787076     A.U. after   11 cycles
 E2(B2PLYPD3) =    -0.2263472446D+00 E(B2PLYPD3) =    -0.15592213432047D+03

 The electronic state is 1-A.
 Alpha  occ. eigenvalues --  -10.63337 -10.62494 -10.61704 -10.61441  -0.92914
 Alpha  occ. eigenvalues --   -0.84630  -0.69970  -0.63969  -0.54449  -0.53714
 Alpha  occ. eigenvalues --   -0.46539  -0.45426  -0.41187  -0.37885  -0.27598
 Alpha virt. eigenvalues --    0.01691   0.07079   0.07274   0.07916   0.09289
 Alpha virt. eigenvalues --    0.11624   0.12527   0.14637   0.15676   0.16284
 Alpha virt. eigenvalues --    0.18747   0.20047   0.21939   0.22857   0.23567

 Mulliken charges:
               1
     1  C   -0.176741
     2  C   -0.026634
     3  C   -0.037289
     4  C   -0.172403
     5  H    0.081420
     6  H    0.065309
     7  H    0.055219
     8  H    0.060830
     9  H    0.067012
    10  H    0.083277
 Sum of Mulliken charges =   0.00000

 Dipole moment (field-independent basis, Debye):
    X=              0.0453    Y=             -0.0408    Z=              0.1239  Tot=              0.1381
 Quadrupole moment (field-independent basis, Debye-Ang):
   XX=            -23.4734   YY=            -23.1599   ZZ=            -29.3055
   XY=             -0.2764   XZ=             -0.1482   YZ=              0.0831

 1\1\GINC-NODE39\SP\RB2PLYPD3-FC\def2QZVP\C4H6\BOITTIER\26-Aug-2020\0\\
 #p B2PLYPD3/Def2QZVP\\butadiene\\0,1\C,0,-3.822228,0.239055,-0.001979\
 C,0,-2.721527,-0.529589,0.048166\C,0,-1.395096,0.069939,0.052878\C,0,-
 0.264216,-0.642778,-0.006304\H,0,-4.856167,-0.151046,0.034096\H,0,-3.7
 49845,1.28923,-0.147611\H,0,-2.82637,-1.654756,0.245664\H,0,-1.378478,
 1.137348,0.100123\H,0,-0.285531,-1.715387,-0.005963\H,0,0.716164,-0.17
 5411,0.049891\\Version=ES64L-G09RevD.01\State=1-A\HF=-155.6957871\MP2=
 -155.9221343\RMSD=3.368e-09\PG=C01 [X(C4H6)]\\@

 Normal termination of Gaussian 09 at Wed Aug 26 09:06:30 2020.
