 Gaussian 09, Revision D.01,
 Gaussian 09:  ES64L-G09RevD.01 24-Apr-2013

 --------------------
 #p B2PLYPD3/Def2QZVP
 --------------------

 ---------
 butadiene
 ---------
 Symbolic Z-matrix:
 Charge =  0 Multiplicity = 1

                         Standard orientation:
 ---------------------------------------------------------------------
 Center     Atomic      Atomic             Coordinates (Angstroms)
 Number     Number       Type             X           Y           Z
 ---------------------------------------------------------------------
      1          6           0       -1.834035    0.088466    0.008256
      2          6           0       -0.585147   -0.374633   -0.030468
      3          6           0        0.597041    0.411029   -0.038360
      4          6           0        1.822544   -0.114435    0.025134
      5          1           0       -2.702468   -0.531223    0.027290
      6          1           0       -2.030153    1.152671    0.070565
      7          1           0       -0.445461   -1.463136    0.095453
      8          1           0        0.490430    1.533234   -0.000289
      9          1           0        1.921667   -1.213901   -0.061684
     10          1           0        2.763567    0.459790    0.081293
 ---------------------------------------------------------------------

 SCF Done:  E(RB2PLYPD3) =  -155.695576468     A.U. after   11 cycles
 E2(B2PLYPD3) =    -0.2264141360D+00 E(B2PLYPD3) =    -0.15592199060365D+03

 The electronic state is 1-A.
 Alpha  occ. eigenvalues --  -10.62818 -10.62473 -10.62119 -10.61337  -0.93480
 Alpha  occ. eigenvalues --   -0.84838  -0.70337  -0.63429  -0.54929  -0.53645
 Alpha  occ. eigenvalues --   -0.46818  -0.44743  -0.41060  -0.38466  -0.27535
 Alpha virt. eigenvalues --    0.01446   0.07061   0.07225   0.07923   0.09692
 Alpha virt. eigenvalues --    0.11619   0.12587   0.14544   0.15660   0.16347
 Alpha virt. eigenvalues --    0.18691   0.20034   0.21876   0.22715   0.23803

 Mulliken charges:
               1
     1  C   -0.176770
     2  C   -0.021509
     3  C   -0.025407
     4  C   -0.169599
     5  H    0.087669
     6  H    0.060559
     7  H    0.050229
     8  H    0.047909
     9  H    0.059585
    10  H    0.087334
 Sum of Mulliken charges =   0.00000

 Dipole moment (field-independent basis, Debye):
    X=              0.0213    Y=              0.0114    Z=              0.1436  Tot=              0.1457
 Quadrupole moment (field-independent basis, Debye-Ang):
   XX=            -23.2364   YY=            -23.3957   ZZ=            -29.2620
   XY=             -0.0155   XZ=             -0.1391   YZ=              0.0803

 1\1\GINC-NODE05\SP\RB2PLYPD3-FC\def2QZVP\C4H6\BOITTIER\26-Aug-2020\0\\
 #p B2PLYPD3/Def2QZVP\\butadiene\\0,1\C,0,-3.83961,0.205806,0.034109\C,
 0,-2.696254,-0.478139,0.008854\C,0,-1.39071,0.078272,-0.020422\C,0,-0.
 281239,-0.659895,0.05823\H,0,-4.806354,-0.244382,0.070032\H,0,-3.83816
 5,1.289234,0.066642\H,0,-2.756738,-1.569985,0.16513\H,0,-1.290799,1.20
 1718,-0.013695\H,0,-0.384595,-1.760967,0.002138\H,0,0.74894,-0.26556,0
 .09877\\Version=ES64L-G09RevD.01\State=1-A\HF=-155.6955765\MP2=-155.92
 19906\RMSD=3.869e-09\PG=C01 [X(C4H6)]\\@

 Normal termination of Gaussian 09 at Wed Aug 26 12:14:34 2020.
