 Gaussian 09, Revision D.01,
 Gaussian 09:  ES64L-G09RevD.01 24-Apr-2013

 --------------------
 #p B2PLYPD3/Def2QZVP
 --------------------

 ---------
 butadiene
 ---------
 Symbolic Z-matrix:
 Charge =  0 Multiplicity = 1

                         Standard orientation:
 ---------------------------------------------------------------------
 Center     Atomic      Atomic             Coordinates (Angstroms)
 Number     Number       Type             X           Y           Z
 ---------------------------------------------------------------------
      1          6           0       -1.794734   -0.151432    0.065519
      2          6           0       -0.615832    0.429248   -0.094163
      3          6           0        0.614709   -0.370070   -0.063317
      4          6           0        1.832739    0.110668    0.045221
      5          1           0       -2.635122    0.497134    0.066649
      6          1           0       -1.956831   -1.211195    0.193737
      7          1           0       -0.620798    1.574943   -0.171263
      8          1           0        0.365558   -1.480918   -0.117820
      9          1           0        1.974841    1.166096    0.346286
     10          1           0        2.651057   -0.656540   -0.037156
 ---------------------------------------------------------------------

 SCF Done:  E(RB2PLYPD3) =  -155.685483852     A.U. after   11 cycles
 E2(B2PLYPD3) =    -0.2263427168D+00 E(B2PLYPD3) =    -0.15591182656907D+03

 The electronic state is 1-A.
 Alpha  occ. eigenvalues --  -10.62877 -10.62765 -10.61744 -10.61020  -0.93004
 Alpha  occ. eigenvalues --   -0.85315  -0.69265  -0.62765  -0.54142  -0.53542
 Alpha  occ. eigenvalues --   -0.45933  -0.45693  -0.40420  -0.37889  -0.27988
 Alpha virt. eigenvalues --    0.02133   0.06951   0.07055   0.07796   0.09501
 Alpha virt. eigenvalues --    0.11629   0.12094   0.14817   0.15654   0.15952
 Alpha virt. eigenvalues --    0.18655   0.20265   0.20635   0.22389   0.24001

 Mulliken charges:
               1
     1  C   -0.172337
     2  C   -0.031869
     3  C   -0.021253
     4  C   -0.184676
     5  H    0.080708
     6  H    0.067706
     7  H    0.047805
     8  H    0.048125
     9  H    0.080161
    10  H    0.085632
 Sum of Mulliken charges =   0.00000

 Dipole moment (field-independent basis, Debye):
    X=             -0.1835    Y=             -0.0202    Z=              0.1855  Tot=              0.2617
 Quadrupole moment (field-independent basis, Debye-Ang):
   XX=            -24.3742   YY=            -22.8842   ZZ=            -29.1710
   XY=              0.0278   XZ=              0.0590   YZ=              0.2175

 1\1\GINC-NODE11\SP\RB2PLYPD3-FC\def2QZVP\C4H6\BOITTIER\26-Aug-2020\0\\
 #p B2PLYPD3/Def2QZVP\\butadiene\\0,1\C,0,-3.796773,0.248283,-0.049118\
 C,0,-2.736865,-0.525245,0.126231\C,0,-1.385653,0.045349,0.073894\C,0,-
 0.270994,-0.643787,-0.021573\H,0,-4.737634,-0.243047,-0.032792\H,0,-3.
 771624,1.316273,-0.205888\H,0,-2.941769,-1.649941,0.234212\H,0,-1.4364
 27,1.183704,0.098396\H,0,-0.317077,-1.715419,-0.294048\H,0,0.669267,-0
 .029667,0.040117\\Version=ES64L-G09RevD.01\State=1-A\HF=-155.6854839\M
 P2=-155.9118266\RMSD=9.149e-09\PG=C01 [X(C4H6)]\\@

 Normal termination of Gaussian 09 at Wed Aug 26 12:39:45 2020.
