 Gaussian 09, Revision D.01,
 Gaussian 09:  ES64L-G09RevD.01 24-Apr-2013

 --------------------
 #p B2PLYPD3/Def2QZVP
 --------------------

 ---------
 butadiene
 ---------
 Symbolic Z-matrix:
 Charge =  0 Multiplicity = 1

                         Standard orientation:
 ---------------------------------------------------------------------
 Center     Atomic      Atomic             Coordinates (Angstroms)
 Number     Number       Type             X           Y           Z
 ---------------------------------------------------------------------
      1          6           0       -1.843836    0.087937   -0.025041
      2          6           0       -0.633285   -0.347685   -0.004877
      3          6           0        0.603820    0.416370   -0.054460
      4          6           0        1.825465   -0.144191    0.020788
      5          1           0       -2.643675   -0.567832    0.280229
      6          1           0       -2.036136    1.133684    0.004115
      7          1           0       -0.445756   -1.462328   -0.068713
      8          1           0        0.701504    1.550101    0.041921
      9          1           0        2.048702   -1.188378   -0.053997
     10          1           0        2.662377    0.460164    0.177982
 ---------------------------------------------------------------------

 SCF Done:  E(RB2PLYPD3) =  -155.683687226     A.U. after   11 cycles
 E2(B2PLYPD3) =    -0.2257567339D+00 E(B2PLYPD3) =    -0.15590944396033D+03

 The electronic state is 1-A.
 Alpha  occ. eigenvalues --  -10.63266 -10.62558 -10.61207 -10.60432  -0.93250
 Alpha  occ. eigenvalues --   -0.85864  -0.70417  -0.63181  -0.54728  -0.54587
 Alpha  occ. eigenvalues --   -0.46656  -0.45108  -0.40651  -0.38085  -0.28129
 Alpha virt. eigenvalues --    0.01692   0.07062   0.07306   0.07878   0.09687
 Alpha virt. eigenvalues --    0.11551   0.12542   0.14781   0.15336   0.16455
 Alpha virt. eigenvalues --    0.18795   0.19532   0.22332   0.22636   0.23854

 Mulliken charges:
               1
     1  C   -0.159533
     2  C   -0.021381
     3  C   -0.034164
     4  C   -0.170780
     5  H    0.080532
     6  H    0.064101
     7  H    0.051683
     8  H    0.046667
     9  H    0.063759
    10  H    0.079115
 Sum of Mulliken charges =   0.00000

 Dipole moment (field-independent basis, Debye):
    X=              0.1680    Y=             -0.0079    Z=              0.3025  Tot=              0.3461
 Quadrupole moment (field-independent basis, Debye-Ang):
   XX=            -23.5203   YY=            -23.2890   ZZ=            -28.9836
   XY=             -0.0866   XZ=             -0.3233   YZ=              0.1471

 1\1\GINC-NODE34\SP\RB2PLYPD3-FC\def2QZVP\C4H6\BOITTIER\26-Aug-2020\0\\
 #p B2PLYPD3/Def2QZVP\\butadiene\\0,1\C,0,-3.847443,0.191039,0.007777\C
 ,0,-2.731189,-0.448374,0.034888\C,0,-1.380154,0.087393,-0.030876\C,0,-
 0.274487,-0.675925,0.053703\H,0,-4.747882,-0.309503,0.326574\H,0,-3.85
 4531,1.254655,0.017011\H,0,-2.740956,-1.57964,-0.007686\H,0,-1.086064,
 1.188371,0.04353\H,0,-0.23687,-1.744252,-0.001218\H,0,0.655598,-0.2237
 84,0.198229\\Version=ES64L-G09RevD.01\State=1-A\HF=-155.6836872\MP2=-1
 55.909444\RMSD=8.734e-09\PG=C01 [X(C4H6)]\\@

 Normal termination of Gaussian 09 at Wed Aug 26 14:20:48 2020.
