 Gaussian 09, Revision D.01,
 Gaussian 09:  ES64L-G09RevD.01 24-Apr-2013

 --------------------
 #p B2PLYPD3/Def2QZVP
 --------------------

 ---------
 butadiene
 ---------
 Symbolic Z-matrix:
 Charge =  0 Multiplicity = 1

                         Standard orientation:
 ---------------------------------------------------------------------
 Center     Atomic      Atomic             Coordinates (Angstroms)
 Number     Number       Type             X           Y           Z
 ---------------------------------------------------------------------
      1          6           0        1.860504   -0.097632   -0.038167
      2          6           0        0.627310    0.347094    0.003495
      3          6           0       -0.624895   -0.435393   -0.012948
      4          6           0       -1.839644    0.139426   -0.008999
      5          1           0        2.731614    0.573471    0.014518
      6          1           0        2.004379   -1.134944    0.062102
      7          1           0        0.572559    1.556547    0.208465
      8          1           0       -0.583503   -1.536174    0.098787
      9          1           0       -2.059236    1.221611   -0.113512
     10          1           0       -2.805462   -0.401478    0.069350
 ---------------------------------------------------------------------

 SCF Done:  E(RB2PLYPD3) =  -155.679014502     A.U. after   11 cycles
 E2(B2PLYPD3) =    -0.2269801385D+00 E(B2PLYPD3) =    -0.15590599464000D+03

 The electronic state is 1-A.
 Alpha  occ. eigenvalues --  -10.63801 -10.63735 -10.62575 -10.61001  -0.92508
 Alpha  occ. eigenvalues --   -0.85227  -0.69657  -0.62593  -0.54434  -0.53677
 Alpha  occ. eigenvalues --   -0.47217  -0.43798  -0.40344  -0.37353  -0.28190
 Alpha virt. eigenvalues --    0.01731   0.06716   0.07117   0.07633   0.09473
 Alpha virt. eigenvalues --    0.11348   0.12444   0.14216   0.15627   0.16518
 Alpha virt. eigenvalues --    0.18666   0.20092   0.21727   0.22330   0.23597

 Mulliken charges:
               1
     1  C   -0.169356
     2  C   -0.018443
     3  C   -0.049822
     4  C   -0.156596
     5  H    0.088180
     6  H    0.062345
     7  H    0.038640
     8  H    0.061672
     9  H    0.067365
    10  H    0.076016
 Sum of Mulliken charges =   0.00000

 Dipole moment (field-independent basis, Debye):
    X=             -0.1108    Y=             -0.0663    Z=              0.2865  Tot=              0.3142
 Quadrupole moment (field-independent basis, Debye-Ang):
   XX=            -23.0240   YY=            -23.4818   ZZ=            -29.3752
   XY=             -0.0512   XZ=              0.2602   YZ=             -0.1319

 1\1\GINC-NODE39\SP\RB2PLYPD3-FC\def2QZVP\C4H6\BOITTIER\26-Aug-2020\0\\
 #p B2PLYPD3/Def2QZVP\\butadiene\\0,1\C,0,-3.868009,0.190457,-0.006862\
 C,0,-2.727636,-0.45541,0.045005\C,0,-1.361199,0.103194,0.007802\C,0,-0
 .261206,-0.668659,0.025265\H,0,-4.839822,-0.322011,0.063451\H,0,-3.833
 805,1.239312,0.067317\H,0,-2.877253,-1.651236,0.280384\H,0,-1.215194,1
 .197521,0.091758\H,0,-0.228399,-1.774647,-0.052086\H,0,0.782586,-0.297
 261,0.089153\\Version=ES64L-G09RevD.01\State=1-A\HF=-155.6790145\MP2=-
 155.9059946\RMSD=9.303e-09\PG=C01 [X(C4H6)]\\@

 Normal termination of Gaussian 09 at Wed Aug 26 11:57:06 2020.
