 Gaussian 09, Revision D.01,
 Gaussian 09:  ES64L-G09RevD.01 24-Apr-2013

 --------------------
 #p B2PLYPD3/Def2QZVP
 --------------------

 ---------
 butadiene
 ---------
 Symbolic Z-matrix:
 Charge =  0 Multiplicity = 1

                         Standard orientation:
 ---------------------------------------------------------------------
 Center     Atomic      Atomic             Coordinates (Angstroms)
 Number     Number       Type             X           Y           Z
 ---------------------------------------------------------------------
      1          6           0       -1.841489    0.094568   -0.015532
      2          6           0       -0.598314   -0.384742    0.026607
      3          6           0        0.610099    0.416004    0.016585
      4          6           0        1.835604   -0.123377   -0.033735
      5          1           0       -2.719094   -0.549941   -0.019685
      6          1           0       -2.009034    1.156334   -0.076408
      7          1           0       -0.442508   -1.430633    0.083239
      8          1           0        0.453537    1.480054    0.053056
      9          1           0        1.993051   -1.187415   -0.072692
     10          1           0        2.688649    0.516885    0.068940
 ---------------------------------------------------------------------

 SCF Done:  E(RB2PLYPD3) =  -155.700235835     A.U. after   11 cycles
 E2(B2PLYPD3) =    -0.2255001749D+00 E(B2PLYPD3) =    -0.15592573600973D+03

 The electronic state is 1-A.
 Alpha  occ. eigenvalues --  -10.62463 -10.62005 -10.61475 -10.61428  -0.93129
 Alpha  occ. eigenvalues --   -0.84905  -0.70359  -0.64520  -0.54579  -0.54065
 Alpha  occ. eigenvalues --   -0.46904  -0.45972  -0.41201  -0.38063  -0.27632
 Alpha virt. eigenvalues --    0.01651   0.07012   0.07493   0.08146   0.09637
 Alpha virt. eigenvalues --    0.11758   0.12436   0.14829   0.15836   0.16080
 Alpha virt. eigenvalues --    0.18814   0.20373   0.21664   0.22878   0.23864

 Mulliken charges:
               1
     1  C   -0.179485
     2  C   -0.024936
     3  C   -0.035750
     4  C   -0.177188
     5  H    0.086160
     6  H    0.062927
     7  H    0.055830
     8  H    0.057005
     9  H    0.069931
    10  H    0.085504
 Sum of Mulliken charges =   0.00000

 Dipole moment (field-independent basis, Debye):
    X=              0.0196    Y=             -0.0092    Z=              0.0598  Tot=              0.0636
 Quadrupole moment (field-independent basis, Debye-Ang):
   XX=            -23.5544   YY=            -23.0816   ZZ=            -29.2025
   XY=             -0.2120   XZ=              0.2767   YZ=              0.0329

 1\1\GINC-NODE36\SP\RB2PLYPD3-FC\def2QZVP\C4H6\BOITTIER\26-Aug-2020\0\\
 #p B2PLYPD3/Def2QZVP\\butadiene\\0,1\C,0,-3.846594,0.2125,0.00047\C,0,
 -2.711325,-0.483587,0.060672\C,0,-1.377409,0.083417,0.033621\C,0,-0.27
 0538,-0.671052,0.00297\H,0,-4.826813,-0.261496,0.010409\H,0,-3.818237,
 1.284938,-0.090064\H,0,-2.74834,-1.538403,0.146483\H,0,-1.337737,1.158
 789,0.040379\H,0,-0.309341,-1.746642,-0.006269\H,0,0.684859,-0.194045,
 0.091533\\Version=ES64L-G09RevD.01\State=1-A\HF=-155.7002358\MP2=-155.
 925736\RMSD=5.814e-09\PG=C01 [X(C4H6)]\\@

 Normal termination of Gaussian 09 at Wed Aug 26 19:07:16 2020.
