 Gaussian 09, Revision D.01,
 Gaussian 09:  ES64L-G09RevD.01 24-Apr-2013

 --------------------
 #p B2PLYPD3/Def2QZVP
 --------------------

 ---------
 butadiene
 ---------
 Symbolic Z-matrix:
 Charge =  0 Multiplicity = 1

                         Standard orientation:
 ---------------------------------------------------------------------
 Center     Atomic      Atomic             Coordinates (Angstroms)
 Number     Number       Type             X           Y           Z
 ---------------------------------------------------------------------
      1          6           0       -1.828191   -0.122695   -0.017437
      2          6           0       -0.599354    0.419441    0.025817
      3          6           0        0.607003   -0.389598    0.004112
      4          6           0        1.834113    0.093069   -0.001529
      5          1           0       -2.721839    0.504853   -0.014403
      6          1           0       -1.980592   -1.207296    0.038265
      7          1           0       -0.472719    1.492975   -0.038855
      8          1           0        0.443392   -1.435627   -0.024893
      9          1           0        1.963153    1.170523   -0.003086
     10          1           0        2.687177   -0.526726   -0.022802
 ---------------------------------------------------------------------

 SCF Done:  E(RB2PLYPD3) =  -155.699761104     A.U. after   11 cycles
 E2(B2PLYPD3) =    -0.2254198359D+00 E(B2PLYPD3) =    -0.15592518093962D+03

 The electronic state is 1-A.
 Alpha  occ. eigenvalues --  -10.62594 -10.61916 -10.61831 -10.60900  -0.93212
 Alpha  occ. eigenvalues --   -0.84999  -0.70098  -0.64374  -0.54908  -0.53835
 Alpha  occ. eigenvalues --   -0.46879  -0.45536  -0.41258  -0.38196  -0.27736
 Alpha virt. eigenvalues --    0.01860   0.07048   0.07415   0.08154   0.09565
 Alpha virt. eigenvalues --    0.11747   0.12485   0.14688   0.15788   0.16162
 Alpha virt. eigenvalues --    0.18717   0.20303   0.21699   0.23114   0.23961

 Mulliken charges:
               1
     1  C   -0.176074
     2  C   -0.035283
     3  C   -0.022301
     4  C   -0.177994
     5  H    0.083271
     6  H    0.066232
     7  H    0.056596
     8  H    0.054439
     9  H    0.061153
    10  H    0.089961
 Sum of Mulliken charges =   0.00000

 Dipole moment (field-independent basis, Debye):
    X=             -0.0105    Y=             -0.0206    Z=             -0.0365  Tot=              0.0432
 Quadrupole moment (field-independent basis, Debye-Ang):
   XX=            -23.5503   YY=            -23.0818   ZZ=            -29.2051
   XY=              0.0725   XZ=             -0.0924   YZ=             -0.0773

 1\1\GINC-NODE37\SP\RB2PLYPD3-FC\def2QZVP\C4H6\BOITTIER\26-Aug-2020\0\\
 #p B2PLYPD3/Def2QZVP\\butadiene\\0,1\C,0,-3.829151,0.237467,0.034435\C
 ,0,-2.719062,-0.51955,0.013195\C,0,-1.386,0.057727,0.010357\C,0,-0.266
 66,-0.638851,0.035933\H,0,-4.821729,-0.217464,0.050544\H,0,-3.782681,1
 .329168,-0.058941\H,0,-2.788834,-1.595396,0.115084\H,0,-1.357244,1.116
 455,0.002933\H,0,-0.335001,-1.721151,0.074887\H,0,0.684666,-0.183559,0
 .038208\\Version=ES64L-G09RevD.01\State=1-A\HF=-155.6997611\MP2=-155.9
 251809\RMSD=5.737e-09\PG=C01 [X(C4H6)]\\@

 Normal termination of Gaussian 09 at Wed Aug 26 21:13:12 2020.
