 Gaussian 09, Revision D.01,
 Gaussian 09:  ES64L-G09RevD.01 24-Apr-2013

 --------------------
 #p B2PLYPD3/Def2QZVP
 --------------------

 ---------
 butadiene
 ---------
 Symbolic Z-matrix:
 Charge =  0 Multiplicity = 1

                         Standard orientation:
 ---------------------------------------------------------------------
 Center     Atomic      Atomic             Coordinates (Angstroms)
 Number     Number       Type             X           Y           Z
 ---------------------------------------------------------------------
      1          6           0        1.858341    0.077498    0.014903
      2          6           0        0.608412   -0.378548   -0.057924
      3          6           0       -0.617460    0.440280   -0.067786
      4          6           0       -1.850865   -0.139694    0.058169
      5          1           0        2.795952   -0.470835    0.076592
      6          1           0        2.024081    1.165546    0.264553
      7          1           0        0.534457   -1.498532   -0.121234
      8          1           0       -0.585541    1.601386   -0.058410
      9          1           0       -2.024892   -1.239916    0.201646
     10          1           0       -2.734626    0.445135   -0.047320
 ---------------------------------------------------------------------

 SCF Done:  E(RB2PLYPD3) =  -155.683524283     A.U. after   11 cycles
 E2(B2PLYPD3) =    -0.2279166060D+00 E(B2PLYPD3) =    -0.15591144088859D+03

 The electronic state is 1-A.
 Alpha  occ. eigenvalues --  -10.64464 -10.63419 -10.62493 -10.61953  -0.92124
 Alpha  occ. eigenvalues --   -0.84443  -0.69699  -0.62853  -0.54479  -0.53107
 Alpha  occ. eigenvalues --   -0.46455  -0.44273  -0.40629  -0.37559  -0.27593
 Alpha virt. eigenvalues --    0.01214   0.07019   0.07083   0.07669   0.09193
 Alpha virt. eigenvalues --    0.11293   0.12413   0.14147   0.15913   0.16573
 Alpha virt. eigenvalues --    0.18802   0.19931   0.21996   0.22075   0.22904

 Mulliken charges:
               1
     1  C   -0.159684
     2  C   -0.028429
     3  C   -0.047966
     4  C   -0.165730
     5  H    0.085008
     6  H    0.046523
     7  H    0.055704
     8  H    0.060909
     9  H    0.067044
    10  H    0.086621
 Sum of Mulliken charges =   0.00000

 Dipole moment (field-independent basis, Debye):
    X=             -0.0812    Y=             -0.0430    Z=              0.2010  Tot=              0.2210
 Quadrupole moment (field-independent basis, Debye-Ang):
   XX=            -23.1752   YY=            -23.3502   ZZ=            -29.5105
   XY=             -0.0990   XZ=              0.4384   YZ=              0.0400

 1\1\GINC-NODE19\SP\RB2PLYPD3-FC\def2QZVP\C4H6\BOITTIER\26-Aug-2020\0\\
 #p B2PLYPD3/Def2QZVP\\butadiene\\0,1\C,0,-3.869174,0.184348,-0.008386\
 C,0,-2.717701,-0.479732,0.084944\C,0,-1.368069,0.113381,0.078056\C,0,-
 0.254301,-0.675714,-0.023794\H,0,-4.887847,-0.194178,-0.05951\H,0,-3.8
 42923,1.276738,-0.290585\H,0,-2.839775,-1.593132,0.181284\H,0,-1.19748
 ,1.26155,0.034672\H,0,-0.274258,-1.793203,-0.134145\H,0,0.717665,-0.25
 06,0.069735\\Version=ES64L-G09RevD.01\State=1-A\HF=-155.6835243\MP2=-1
 55.9114409\RMSD=8.346e-09\PG=C01 [X(C4H6)]\\@

 Normal termination of Gaussian 09 at Wed Aug 26 11:49:19 2020.
