 Gaussian 09, Revision D.01,
 Gaussian 09:  ES64L-G09RevD.01 24-Apr-2013

 --------------------
 #p B2PLYPD3/Def2QZVP
 --------------------

 ---------
 butadiene
 ---------
 Symbolic Z-matrix:
 Charge =  0 Multiplicity = 1

                         Standard orientation:
 ---------------------------------------------------------------------
 Center     Atomic      Atomic             Coordinates (Angstroms)
 Number     Number       Type             X           Y           Z
 ---------------------------------------------------------------------
      1          6           0        1.810844   -0.134430    0.001402
      2          6           0        0.629891    0.446459   -0.034209
      3          6           0       -0.610778   -0.398230   -0.105903
      4          6           0       -1.839298    0.106708    0.045796
      5          1           0        2.820686    0.399250    0.164670
      6          1           0        1.785225   -1.271519    0.171625
      7          1           0        0.530093    1.513453   -0.006070
      8          1           0       -0.522086   -1.400557    0.007462
      9          1           0       -1.963512    1.193097    0.059947
     10          1           0       -2.594368   -0.556767    0.159849
 ---------------------------------------------------------------------

 SCF Done:  E(RB2PLYPD3) =  -155.678771078     A.U. after   11 cycles
 E2(B2PLYPD3) =    -0.2259728534D+00 E(B2PLYPD3) =    -0.15590474393144D+03

 The electronic state is 1-A.
 Alpha  occ. eigenvalues --  -10.62649 -10.62468 -10.61887 -10.60762  -0.92932
 Alpha  occ. eigenvalues --   -0.85354  -0.68899  -0.64800  -0.54879  -0.53544
 Alpha  occ. eigenvalues --   -0.46566  -0.45275  -0.40945  -0.37753  -0.28101
 Alpha virt. eigenvalues --    0.02271   0.07006   0.07352   0.08100   0.08880
 Alpha virt. eigenvalues --    0.11701   0.12540   0.14120   0.15690   0.16473
 Alpha virt. eigenvalues --    0.18578   0.19851   0.21462   0.23134   0.24171

 Mulliken charges:
               1
     1  C   -0.152045
     2  C   -0.041493
     3  C   -0.035832
     4  C   -0.179082
     5  H    0.075353
     6  H    0.048859
     7  H    0.061257
     8  H    0.065311
     9  H    0.070149
    10  H    0.087522
 Sum of Mulliken charges =   0.00000

 Dipole moment (field-independent basis, Debye):
    X=             -0.0712    Y=              0.0354    Z=              0.4201  Tot=              0.4276
 Quadrupole moment (field-independent basis, Debye-Ang):
   XX=            -24.0724   YY=            -22.9885   ZZ=            -29.1752
   XY=              0.3631   XZ=              0.1270   YZ=             -0.2364

 1\1\GINC-NODE39\SP\RB2PLYPD3-FC\def2QZVP\C4H6\BOITTIER\26-Aug-2020\0\\
 #p B2PLYPD3/Def2QZVP\\butadiene\\0,1\C,0,-3.813767,0.229501,0.036587\C
 ,0,-2.749757,-0.545242,0.004879\C,0,-1.382927,0.074011,-0.073854\C,0,-
 0.258719,-0.63265,0.081138\H,0,-4.899773,-0.122178,0.204403\H,0,-3.593
 563,1.346655,0.198087\H,0,-2.834045,-1.613329,0.04114\H,0,-1.298517,1.
 077542,0.031874\H,0,-0.322297,-1.724129,0.10355\H,0,0.598987,-0.107408
 ,0.189759\\Version=ES64L-G09RevD.01\State=1-A\HF=-155.6787711\MP2=-155
 .9047439\RMSD=8.656e-09\PG=C01 [X(C4H6)]\\@

 Normal termination of Gaussian 09 at Wed Aug 26 13:07:15 2020.
