 Gaussian 09, Revision D.01,
 Gaussian 09:  ES64L-G09RevD.01 24-Apr-2013

 --------------------
 #p B2PLYPD3/Def2QZVP
 --------------------

 ---------
 butadiene
 ---------
 Symbolic Z-matrix:
 Charge =  0 Multiplicity = 1

                         Standard orientation:
 ---------------------------------------------------------------------
 Center     Atomic      Atomic             Coordinates (Angstroms)
 Number     Number       Type             X           Y           Z
 ---------------------------------------------------------------------
      1          6           0        1.815827   -0.139703    0.013572
      2          6           0        0.596432    0.451323   -0.025530
      3          6           0       -0.572422   -0.340547   -0.086791
      4          6           0       -1.829422    0.040591    0.058431
      5          1           0        2.710862    0.527226   -0.046033
      6          1           0        2.035988   -1.214929    0.354643
      7          1           0        0.412964    1.485146   -0.092934
      8          1           0       -0.373492   -1.421085   -0.139123
      9          1           0       -2.162706    1.089684    0.229453
     10          1           0       -2.686116   -0.536022   -0.064100
 ---------------------------------------------------------------------

 SCF Done:  E(RB2PLYPD3) =  -155.681149923     A.U. after   12 cycles
 E2(B2PLYPD3) =    -0.2269683991D+00 E(B2PLYPD3) =    -0.15590811832191D+03

 The electronic state is 1-A.
 Alpha  occ. eigenvalues --  -10.63124 -10.62489 -10.62013 -10.61129  -0.93645
 Alpha  occ. eigenvalues --   -0.84498  -0.70801  -0.64150  -0.55518  -0.52830
 Alpha  occ. eigenvalues --   -0.47496  -0.44463  -0.40644  -0.38149  -0.27333
 Alpha virt. eigenvalues --    0.00869   0.06951   0.07279   0.08105   0.09563
 Alpha virt. eigenvalues --    0.11498   0.12311   0.14997   0.15607   0.16419
 Alpha virt. eigenvalues --    0.18931   0.19840   0.21511   0.22191   0.23494

 Mulliken charges:
               1
     1  C   -0.169196
     2  C   -0.048737
     3  C   -0.013635
     4  C   -0.169299
     5  H    0.072978
     6  H    0.077190
     7  H    0.072099
     8  H    0.050988
     9  H    0.042589
    10  H    0.085023
 Sum of Mulliken charges =   0.00000

 Dipole moment (field-independent basis, Debye):
    X=             -0.0204    Y=              0.0520    Z=              0.1476  Tot=              0.1578
 Quadrupole moment (field-independent basis, Debye-Ang):
   XX=            -23.3812   YY=            -23.4994   ZZ=            -29.0755
   XY=             -0.5124   XZ=              0.3259   YZ=             -0.2277

 1\1\GINC-NODE15\SP\RB2PLYPD3-FC\def2QZVP\C4H6\BOITTIER\26-Aug-2020\0\\
 #p B2PLYPD3/Def2QZVP\\butadiene\\0,1\C,0,-3.804238,0.274765,0.041759\C
 ,0,-2.722691,-0.541752,0.005429\C,0,-1.42253,0.008031,-0.060529\C,0,-0
 .263125,-0.608915,0.086313\H,0,-4.811715,-0.206197,-0.01392\H,0,-3.811
 192,1.374047,0.377081\H,0,-2.743321,-1.591867,-0.056441\H,0,-1.408174,
 1.106344,-0.11864\H,0,-0.139413,-1.701818,0.262895\H,0,0.688968,-0.210
 071,-0.039639\\Version=ES64L-G09RevD.01\State=1-A\HF=-155.6811499\MP2=
 -155.9081183\RMSD=5.091e-09\PG=C01 [X(C4H6)]\\@

 Normal termination of Gaussian 09 at Wed Aug 26 11:24:15 2020.
