 Gaussian 09, Revision D.01,
 Gaussian 09:  ES64L-G09RevD.01 24-Apr-2013

 --------------------
 #p B2PLYPD3/Def2QZVP
 --------------------

 ---------
 butadiene
 ---------
 Symbolic Z-matrix:
 Charge =  0 Multiplicity = 1

                         Standard orientation:
 ---------------------------------------------------------------------
 Center     Atomic      Atomic             Coordinates (Angstroms)
 Number     Number       Type             X           Y           Z
 ---------------------------------------------------------------------
      1          6           0       -1.838997    0.089369    0.016980
      2          6           0       -0.584318   -0.373093   -0.008746
      3          6           0        0.603096    0.417532   -0.018151
      4          6           0        1.817609   -0.127198   -0.006603
      5          1           0       -2.705956   -0.583199   -0.110290
      6          1           0       -2.028528    1.182061    0.146873
      7          1           0       -0.378622   -1.428879   -0.016399
      8          1           0        0.513739    1.497421   -0.078462
      9          1           0        1.907407   -1.222527    0.122706
     10          1           0        2.707621    0.515460    0.034693
 ---------------------------------------------------------------------

 SCF Done:  E(RB2PLYPD3) =  -155.695982535     A.U. after   11 cycles
 E2(B2PLYPD3) =    -0.2263777233D+00 E(B2PLYPD3) =    -0.15592236025783D+03

 The electronic state is 1-A.
 Alpha  occ. eigenvalues --  -10.62248 -10.62166 -10.62098 -10.61886  -0.93528
 Alpha  occ. eigenvalues --   -0.84700  -0.69896  -0.63999  -0.54326  -0.53588
 Alpha  occ. eigenvalues --   -0.46429  -0.45283  -0.41283  -0.38406  -0.27505
 Alpha virt. eigenvalues --    0.01508   0.06989   0.07294   0.07964   0.09669
 Alpha virt. eigenvalues --    0.11783   0.12253   0.14739   0.15646   0.16155
 Alpha virt. eigenvalues --    0.18595   0.19948   0.21445   0.22862   0.23897

 Mulliken charges:
               1
     1  C   -0.181624
     2  C   -0.027263
     3  C   -0.023068
     4  C   -0.174120
     5  H    0.088087
     6  H    0.065622
     7  H    0.052424
     8  H    0.053362
     9  H    0.061926
    10  H    0.084653
 Sum of Mulliken charges =   0.00000

 Dipole moment (field-independent basis, Debye):
    X=              0.0518    Y=              0.0301    Z=              0.0781  Tot=              0.0984
 Quadrupole moment (field-independent basis, Debye-Ang):
   XX=            -23.8297   YY=            -23.1449   ZZ=            -29.2586
   XY=              0.0347   XZ=              0.3590   YZ=              0.0608

 1\1\GINC-NODE31\SP\RB2PLYPD3-FC\def2QZVP\C4H6\BOITTIER\26-Aug-2020\0\\
 #p B2PLYPD3/Def2QZVP\\butadiene\\0,1\C,0,-3.844002,0.207945,0.032579\C
 ,0,-2.694658,-0.475953,0.025872\C,0,-1.383042,0.084439,-0.001578\C,0,-
 0.288146,-0.671889,0.031212\H,0,-4.819162,-0.298861,-0.07866\H,0,-3.83
 1059,1.320241,0.129533\H,0,-2.684848,-1.551299,0.050092\H,0,-1.274143,
 1.160261,-0.093935\H,0,-0.39935,-1.760922,0.192991\H,0,0.704136,-0.201
 228,0.057492\\Version=ES64L-G09RevD.01\State=1-A\HF=-155.6959825\MP2=-
 155.9223603\RMSD=4.424e-09\PG=C01 [X(C4H6)]\\@

 Normal termination of Gaussian 09 at Wed Aug 26 10:40:33 2020.
