 Gaussian 09, Revision D.01,
 Gaussian 09:  ES64L-G09RevD.01 24-Apr-2013

 --------------------
 #p B2PLYPD3/Def2QZVP
 --------------------

 ---------
 butadiene
 ---------
 Symbolic Z-matrix:
 Charge =  0 Multiplicity = 1

                         Standard orientation:
 ---------------------------------------------------------------------
 Center     Atomic      Atomic             Coordinates (Angstroms)
 Number     Number       Type             X           Y           Z
 ---------------------------------------------------------------------
      1          6           0       -1.846217   -0.128633   -0.027739
      2          6           0       -0.621838    0.429319    0.017442
      3          6           0        0.621496   -0.375107    0.001125
      4          6           0        1.859416    0.091039   -0.008354
      5          1           0       -2.752457    0.421697   -0.005939
      6          1           0       -2.031661   -1.186327    0.017468
      7          1           0       -0.533006    1.510574    0.126746
      8          1           0        0.501110   -1.456650    0.029579
      9          1           0        2.019394    1.165644   -0.127399
     10          1           0        2.719472   -0.554642    0.064701
 ---------------------------------------------------------------------

 SCF Done:  E(RB2PLYPD3) =  -155.697661361     A.U. after   11 cycles
 E2(B2PLYPD3) =    -0.2256240181D+00 E(B2PLYPD3) =    -0.15592328537894D+03

 The electronic state is 1-A.
 Alpha  occ. eigenvalues --  -10.63254 -10.62539 -10.61519 -10.61333  -0.92526
 Alpha  occ. eigenvalues --   -0.85091  -0.70172  -0.63961  -0.54904  -0.53717
 Alpha  occ. eigenvalues --   -0.47266  -0.45215  -0.40927  -0.37704  -0.27888
 Alpha virt. eigenvalues --    0.01766   0.07028   0.07488   0.08038   0.09421
 Alpha virt. eigenvalues --    0.11566   0.12552   0.14513   0.15833   0.16399
 Alpha virt. eigenvalues --    0.18957   0.20314   0.21800   0.22693   0.23686

 Mulliken charges:
               1
     1  C   -0.165158
     2  C   -0.047775
     3  C   -0.023870
     4  C   -0.177335
     5  H    0.080628
     6  H    0.064145
     7  H    0.061846
     8  H    0.054175
     9  H    0.063535
    10  H    0.089809
 Sum of Mulliken charges =   0.00000

 Dipole moment (field-independent basis, Debye):
    X=             -0.0798    Y=             -0.0302    Z=              0.1088  Tot=              0.1382
 Quadrupole moment (field-independent basis, Debye-Ang):
   XX=            -23.1397   YY=            -23.2321   ZZ=            -29.2565
   XY=              0.1156   XZ=             -0.1294   YZ=             -0.1006

 1\1\GINC-NODE30\SP\RB2PLYPD3-FC\def2QZVP\C4H6\BOITTIER\26-Aug-2020\0\\
 #p B2PLYPD3/Def2QZVP\\butadiene\\0,1\C,0,-3.848001,0.238142,0.039699\C
 ,0,-2.740751,-0.527319,0.016827\C,0,-1.375436,0.046376,0.010777\C,0,-0
 .238593,-0.629336,0.039567\H,0,-4.836855,-0.144917,0.033026\H,0,-3.844
 938,1.309898,-0.040793\H,0,-2.843459,-1.610371,-0.056649\H,0,-1.304095
 ,1.130724,-0.053542\H,0,-0.269507,-1.710832,0.194329\H,0,0.721295,-0.1
 47469,-0.051842\\Version=ES64L-G09RevD.01\State=1-A\HF=-155.6976614\MP
 2=-155.9232854\RMSD=6.278e-09\PG=C01 [X(C4H6)]\\@

 Normal termination of Gaussian 09 at Wed Aug 26 09:16:11 2020.
