 Gaussian 09, Revision D.01,
 Gaussian 09:  ES64L-G09RevD.01 24-Apr-2013

 --------------------
 #p B2PLYPD3/Def2QZVP
 --------------------

 ---------
 butadiene
 ---------
 Symbolic Z-matrix:
 Charge =  0 Multiplicity = 1

                         Standard orientation:
 ---------------------------------------------------------------------
 Center     Atomic      Atomic             Coordinates (Angstroms)
 Number     Number       Type             X           Y           Z
 ---------------------------------------------------------------------
      1          6           0       -1.840062   -0.112871   -0.019111
      2          6           0       -0.607568    0.392204    0.021083
      3          6           0        0.609346   -0.383665    0.005023
      4          6           0        1.837052    0.107041   -0.017873
      5          1           0       -2.744487    0.508944   -0.002834
      6          1           0       -1.986911   -1.184397   -0.042431
      7          1           0       -0.500275    1.484431    0.054705
      8          1           0        0.490207   -1.444569    0.087762
      9          1           0        2.044326    1.172791   -0.035004
     10          1           0        2.704530   -0.553452    0.003076
 ---------------------------------------------------------------------

 SCF Done:  E(RB2PLYPD3) =  -155.700665566     A.U. after   11 cycles
 E2(B2PLYPD3) =    -0.2254405972D+00 E(B2PLYPD3) =    -0.15592610616285D+03

 The electronic state is 1-A.
 Alpha  occ. eigenvalues --  -10.62516 -10.62129 -10.61668 -10.61488  -0.93227
 Alpha  occ. eigenvalues --   -0.85113  -0.70159  -0.64008  -0.54565  -0.54089
 Alpha  occ. eigenvalues --   -0.46924  -0.45293  -0.40912  -0.38290  -0.27858
 Alpha virt. eigenvalues --    0.01770   0.06980   0.07469   0.07965   0.09862
 Alpha virt. eigenvalues --    0.11646   0.12404   0.14720   0.15775   0.16218
 Alpha virt. eigenvalues --    0.18832   0.20441   0.21655   0.22494   0.23818

 Mulliken charges:
               1
     1  C   -0.173294
     2  C   -0.029425
     3  C   -0.028326
     4  C   -0.173631
     5  H    0.086380
     6  H    0.062631
     7  H    0.050587
     8  H    0.055591
     9  H    0.066311
    10  H    0.083177
 Sum of Mulliken charges =   0.00000

 Dipole moment (field-independent basis, Debye):
    X=              0.0074    Y=             -0.0082    Z=              0.0741  Tot=              0.0749
 Quadrupole moment (field-independent basis, Debye-Ang):
   XX=            -23.3345   YY=            -23.2170   ZZ=            -29.2094
   XY=              0.0851   XZ=              0.0601   YZ=             -0.0439

 1\1\GINC-NODE20\SP\RB2PLYPD3-FC\def2QZVP\C4H6\BOITTIER\26-Aug-2020\0\\
 #p B2PLYPD3/Def2QZVP\\butadiene\\0,1\C,0,-3.842415,0.224552,0.035975\C
 ,0,-2.719795,-0.493083,0.014016\C,0,-1.384077,0.053642,0.006395\C,0,-0
 .263328,-0.646964,0.047016\H,0,-4.843204,-0.226354,0.038777\H,0,-3.795
 936,1.305281,0.024058\H,0,-2.808931,-1.587456,0.016257\H,0,-1.312696,1
 .11555,-0.111138\H,0,-0.24914,-1.731468,0.099257\H,0,0.70783,-0.152643
 ,0.005693\\Version=ES64L-G09RevD.01\State=1-A\HF=-155.7006656\MP2=-155
 .9261062\RMSD=3.465e-09\PG=C01 [X(C4H6)]\\@

 Normal termination of Gaussian 09 at Wed Aug 26 20:18:49 2020.
