 Gaussian 09, Revision D.01,
 Gaussian 09:  ES64L-G09RevD.01 24-Apr-2013

 -------------------------------------
 #p B2PLYPD3/Def2QZVP opt freq=NoRaman
 -------------------------------------

 -------------
 butadiene_opt
 -------------
 Symbolic Z-matrix:
 Charge =  0 Multiplicity = 1

 SCF Done:  E(RB2PLYPD3) =  -155.701263195     A.U. after   11 cycles
 E2(B2PLYPD3) =    -0.2258886987D+00 E(B2PLYPD3) =    -0.15592715189347D+03
 SCF Done:  E(RB2PLYPD3) =  -155.701953916     A.U. after    8 cycles
 E2(B2PLYPD3) =    -0.2256284504D+00 E(B2PLYPD3) =    -0.15592758236593D+03
 SCF Done:  E(RB2PLYPD3) =  -155.702023036     A.U. after    7 cycles
 E2(B2PLYPD3) =    -0.2255743322D+00 E(B2PLYPD3) =    -0.15592759736867D+03
 SCF Done:  E(RB2PLYPD3) =  -155.702021909     A.U. after    5 cycles
 E2(B2PLYPD3) =    -0.2255765063D+00 E(B2PLYPD3) =    -0.15592759841517D+03
 Optimization completed.
    -- Stationary point found.
 Normal termination of Gaussian 09 at Thu Aug 20 14:09:34 2020.

 ----------------------------------------------------------------------
 #P Geom=AllCheck Guess=TCheck SCRF=Check GenChk RB2PLYPD3(FC)/def2QZVP
  Freq
 ----------------------------------------------------------------------

 Structure from the checkpoint file:  "butadiene_opt.chk"
 -------------
 butadiene_opt
 -------------
 Charge =  0 Multiplicity = 1

                         Standard orientation:
 ---------------------------------------------------------------------
 Center     Atomic      Atomic             Coordinates (Angstroms)
 Number     Number       Type             X           Y           Z
 ---------------------------------------------------------------------
      1          6           0        1.838509   -0.109937    0.000000
      2          6           0        0.604918    0.401133    0.000000
      3          6           0       -0.604917   -0.401128    0.000000
      4          6           0       -1.838511    0.109934    0.000000
      5          1           0        2.712236    0.522670    0.000000
      6          1           0        2.001079   -1.178668    0.000000
      7          1           0        0.472554    1.476650    0.000000
      8          1           0       -0.472543   -1.476644    0.000000
      9          1           0       -2.001093    1.178662    0.000000
     10          1           0       -2.712230   -0.522684    0.000000
 ---------------------------------------------------------------------

 SCF Done:  E(RB2PLYPD3) =  -155.702021909     A.U. after    1 cycles
 E2(B2PLYPD3) =    -0.2255764584D+00 E(B2PLYPD3) =    -0.15592759836732D+03
 E2(B2PLYPD3) =    -0.2255764584D+00 E(B2PLYPD3) =    -0.15592759836731D+03

 The electronic state is 1-A.
 Alpha  occ. eigenvalues --  -10.62496 -10.62436 -10.61457 -10.61456  -0.93018
 Alpha  occ. eigenvalues --   -0.84925  -0.70196  -0.64156  -0.54617  -0.54020
 Alpha  occ. eigenvalues --   -0.46702  -0.45676  -0.41214  -0.38151  -0.27668
 Alpha virt. eigenvalues --    0.01747   0.07016   0.07426   0.08081   0.09630
 Alpha virt. eigenvalues --    0.11694   0.12450   0.14728   0.15926   0.16100
 Alpha virt. eigenvalues --    0.18782   0.20601   0.21599   0.22873   0.23808

 Mulliken charges:
               1
     1  C   -0.176567
     2  C   -0.029462
     3  C   -0.029462
     4  C   -0.176568
     5  H    0.086215
     6  H    0.065548
     7  H    0.054265
     8  H    0.054265
     9  H    0.065550
    10  H    0.086215
 Sum of Mulliken charges =   0.00000

 Dipole moment (field-independent basis, Debye):
    X=              0.0000    Y=              0.0000    Z=              0.0000  Tot=              0.0000
 Quadrupole moment (field-independent basis, Debye-Ang):
   XX=            -23.4565   YY=            -23.0836   ZZ=            -29.2644
   XY=             -0.1334   XZ=              0.0000   YZ=              0.0000

  Exact polarizability:  84.395  -5.687  44.516   0.000   0.000  33.882
 Approx polarizability:  94.202 -10.457  51.369   0.000   0.000  41.537

                      1                      2                      3
                      A                      A                      A
 Frequencies --    171.9205               298.2345               519.3908
 Red. masses --      2.6456                 2.1598                 2.6708
 Frc consts  --      0.0461                 0.1132                 0.4245
 IR Inten    --      0.6714                 2.7578                 0.0000

                      4                      5                      6
                      A                      A                      A
 Frequencies --    543.8637               783.7152               906.8808
 Red. masses --      1.0736                 1.6547                 1.8152
 Frc consts  --      0.1871                 0.5988                 0.8796
 IR Inten    --     12.5191                 0.0000                 0.0000

                      7                      8                      9
                      A                      A                      A
 Frequencies --    943.2208               943.5822              1006.1846
 Red. masses --      1.3597                 1.3147                 1.2017
 Frc consts  --      0.7127                 0.6897                 0.7168
 IR Inten    --     79.9982                 0.0003                 0.0000

                     10                     11                     12
                      A                      A                      A
 Frequencies --   1009.2338              1061.6938              1235.6943
 Red. masses --      1.1937                 1.0948                 1.8868
 Frc consts  --      0.7163                 0.7270                 1.6975
 IR Inten    --      1.6166                34.9000                 0.0000

                     13                     14                     15
                      A                      A                      A
 Frequencies --   1322.0005              1327.7609              1424.0974
 Red. masses --      1.3979                 1.2892                 1.2709
 Frc consts  --      1.4394                 1.3391                 1.5186
 IR Inten    --      0.0000                 2.2455                 3.4035

                     16                     17                     18
                      A                      A                      A
 Frequencies --   1486.9063              1648.8017              1704.8186
 Red. masses --      1.2188                 3.3770                 4.3782
 Frc consts  --      1.5877                 5.4090                 7.4973
 IR Inten    --      0.0000                20.8389                 0.0000

                     19                     20                     21
                      A                      A                      A
 Frequencies --   3153.9258              3159.6283              3163.6155
 Red. masses --      1.0733                 1.0583                 1.0748
 Frc consts  --      6.2904                 6.2250                 6.3380
 IR Inten    --      0.0000                15.4670                 0.0000

                     22                     23                     24
                      A                      A                      A
 Frequencies --   3167.0215              3251.9147              3252.2010
 Red. masses --      1.0915                 1.1161                 1.1158
 Frc consts  --      6.4503                 6.9542                 6.9530
 IR Inten    --     10.5845                 0.0001                18.9832

 - Thermochemistry -
 -------------------
 Temperature   298.150 Kelvin.  Pressure   1.00000 Atm.
 Atom     1 has atomic number  6 and mass  12.00000

 Molecular mass:    54.04695 amu.
 Principal axes and moments of inertia in atomic units:
                           1         2         3
     Eigenvalues --    42.47959 404.44578 446.92536
           X            0.99999  -0.00476   0.00000
           Y            0.00476   0.99999   0.00000
           Z            0.00000   0.00000   1.00000
 This molecule is an asymmetric top.
 Rotational symmetry number  1.
 Rotational temperatures (Kelvin)      2.03895     0.21415     0.19380
 Rotational constants (GHZ):          42.48490     4.46226     4.03813
 Zero-point vibrational energy     224217.9 (Joules/Mol)
                                   53.58937 (Kcal/Mol)
 Warning -- explicit consideration of   4 degrees of freedom as
           vibrations may cause significant error
 Vibrational temperatures:    247.35   429.09   747.29   782.50  1127.59
          (Kelvin)           1304.80  1357.08  1357.60  1447.67  1452.06
                             1527.54  1777.89  1902.06  1910.35  2048.96
                             2139.32  2372.25  2452.85  4537.79  4545.99
                             4551.73  4556.63  4678.77  4679.19

 Zero-point correction=                           0.085400 (Hartree/Particle)
 Thermal correction to Energy=                    0.090044
 Thermal correction to Enthalpy=                  0.090988
 Thermal correction to Gibbs Free Energy=         0.058955
 Sum of electronic and zero-point Energies=           -155.842198
 Sum of electronic and thermal Energies=              -155.837554
 Sum of electronic and thermal Enthalpies=            -155.836610
 Sum of electronic and thermal Free Energies=         -155.868643

                     E (Thermal)             CV                S
                      KCal/Mol        Cal/Mol-Kelvin    Cal/Mol-Kelvin
 Total                   56.504             15.695             67.420
 Electronic               0.000              0.000              0.000
 Translational            0.889              2.981             37.884
 Rotational               0.889              2.981             23.555
 Vibrational             54.726              9.734              5.980
 Vibration     1          0.626              1.877              2.414
 Vibration     2          0.691              1.677              1.427
 Vibration     3          0.874              1.207              0.611
 Vibration     4          0.899              1.153              0.557

 Optimization completed.
    -- Stationary point found.
 Normal termination of Gaussian 09 at Thu Aug 20 19:14:36 2020.
