 Gaussian 09, Revision D.01,
 Gaussian 09:  ES64L-G09RevD.01 24-Apr-2013

 ------------------------------------
 #p B2PLYPD3/6-31G** opt freq=NoRaman
 ------------------------------------

 -------------
 butadiene_opt
 -------------
 Symbolic Z-matrix:
 Charge =  0 Multiplicity = 1

 SCF Done:  E(RB2PLYPD3) =  -155.637846693     A.U. after   11 cycles
 E2(B2PLYPD3) =    -0.1798620347D+00 E(B2PLYPD3) =    -0.15581770872765D+03
 SCF Done:  E(RB2PLYPD3) =  -155.638183054     A.U. after   10 cycles
 E2(B2PLYPD3) =    -0.1800130949D+00 E(B2PLYPD3) =    -0.15581819614847D+03
 SCF Done:  E(RB2PLYPD3) =  -155.638287779     A.U. after    7 cycles
 E2(B2PLYPD3) =    -0.1799298371D+00 E(B2PLYPD3) =    -0.15581821761596D+03
 SCF Done:  E(RB2PLYPD3) =  -155.638299973     A.U. after    7 cycles
 E2(B2PLYPD3) =    -0.1799188573D+00 E(B2PLYPD3) =    -0.15581821883073D+03
 Optimization completed.
    -- Stationary point found.
 Normal termination of Gaussian 09 at Wed Aug 19 17:46:33 2020.

 ----------------------------------------------------------------------
 #P Geom=AllCheck Guess=TCheck SCRF=Check GenChk RB2PLYPD3(FC)/6-31G(d,
 p) Freq
 ----------------------------------------------------------------------

 Structure from the checkpoint file:  "butadiene_opt.chk"
 -------------
 butadiene_opt
 -------------
 Charge =  0 Multiplicity = 1

                         Standard orientation:
 ---------------------------------------------------------------------
 Center     Atomic      Atomic             Coordinates (Angstroms)
 Number     Number       Type             X           Y           Z
 ---------------------------------------------------------------------
      1          6           0        1.845834   -0.109653    0.000000
      2          6           0        0.606897    0.402501    0.000000
      3          6           0       -0.606895   -0.402493    0.000000
      4          6           0       -1.845836    0.109649    0.000000
      5          1           0        2.723317    0.523335    0.000000
      6          1           0        2.012649   -1.180891    0.000000
      7          1           0        0.472754    1.481200    0.000000
      8          1           0       -0.472740   -1.481191    0.000000
      9          1           0       -2.012669    1.180883    0.000000
     10          1           0       -2.723309   -0.523355    0.000000
 ---------------------------------------------------------------------

 SCF Done:  E(RB2PLYPD3) =  -155.638299973     A.U. after    1 cycles
 E2(B2PLYPD3) =    -0.1799188571D+00 E(B2PLYPD3) =    -0.15581821883055D+03
 E2(B2PLYPD3) =    -0.1799188571D+00 E(B2PLYPD3) =    -0.15581821883055D+03

 The electronic state is 1-A.
 Alpha  occ. eigenvalues --  -10.62899 -10.62845 -10.61982 -10.61982  -0.91999
 Alpha  occ. eigenvalues --   -0.83966  -0.69433  -0.63343  -0.53637  -0.53001
 Alpha  occ. eigenvalues --   -0.45718  -0.44875  -0.40421  -0.37005  -0.26538
 Alpha virt. eigenvalues --    0.03771   0.15613   0.17618   0.18493   0.19074
 Alpha virt. eigenvalues --    0.24045   0.25747   0.27312   0.39381   0.39900
 Alpha virt. eigenvalues --    0.47115   0.55533   0.58814   0.62152   0.67441

 Mulliken charges:
               1
     1  C   -0.271370
     2  C   -0.059337
     3  C   -0.059338
     4  C   -0.271370
     5  H    0.115324
     6  H    0.110373
     7  H    0.105010
     8  H    0.105010
     9  H    0.110373
    10  H    0.115324
 Sum of Mulliken charges =   0.00000

 Dipole moment (field-independent basis, Debye):
    X=              0.0000    Y=              0.0000    Z=              0.0000  Tot=              0.0000
 Quadrupole moment (field-independent basis, Debye-Ang):
   XX=            -22.8613   YY=            -22.6095   ZZ=            -28.2129
   XY=             -0.0725   XZ=              0.0000   YZ=              0.0000

  Exact polarizability:  75.204  -5.760  39.025   0.000   0.000  15.852
 Approx polarizability:  87.875 -11.434  43.985   0.000   0.000  19.769

                      1                      2                      3
                      A                      A                      A
 Frequencies --    169.6770               297.1557               518.7095
 Red. masses --      2.6514                 2.1670                 2.6848
 Frc consts  --      0.0450                 0.1127                 0.4256
 IR Inten    --      0.1920                 2.4774                 0.0000

                      4                      5                      6
                      A                      A                      A
 Frequencies --    540.4610               779.5387               914.2526
 Red. masses --      1.0785                 1.7355                 1.8030
 Frc consts  --      0.1856                 0.6214                 0.8879
 IR Inten    --      8.1550                 0.0000                 0.0000

                      7                      8                      9
                      A                      A                      A
 Frequencies --    928.5254               931.2149              1004.9732
 Red. masses --      1.3622                 1.3490                 1.1369
 Frc consts  --      0.6919                 0.6892                 0.6765
 IR Inten    --     72.7043                 0.0000                 0.0000

                     10                     11                     12
                      A                      A                      A
 Frequencies --   1015.2622              1065.9244              1247.7975
 Red. masses --      1.1958                 1.0871                 1.9189
 Frc consts  --      0.7262                 0.7278                 1.7603
 IR Inten    --      2.0522                29.0194                 0.0000

                     13                     14                     15
                      A                      A                      A
 Frequencies --   1334.0131              1336.3239              1440.5737
 Red. masses --      1.3736                 1.2834                 1.2714
 Frc consts  --      1.4402                 1.3503                 1.5545
 IR Inten    --      0.0000                 2.1092                 2.5901

                     16                     17                     18
                      A                      A                      A
 Frequencies --   1504.6433              1677.9373              1737.1261
 Red. masses --      1.2230                 3.3659                 4.4029
 Frc consts  --      1.6313                 5.5835                 7.8280
 IR Inten    --      0.0000                10.7828                 0.0000

                     19                     20                     21
                      A                      A                      A
 Frequencies --   3184.9077              3192.3656              3198.5241
 Red. masses --      1.0760                 1.0641                 1.0738
 Frc consts  --      6.4304                 6.3895                 6.4727
 IR Inten    --      0.0000                24.5824                 0.0002

                     22                     23                     24
                      A                      A                      A
 Frequencies --   3198.7129              3288.7814              3289.1641
 Red. masses --      1.0866                 1.1163                 1.1160
 Frc consts  --      6.5502                 7.1140                 7.1133
 IR Inten    --      9.2392                 0.0000                28.3885

 - Thermochemistry -
 -------------------
 Temperature   298.150 Kelvin.  Pressure   1.00000 Atm.
 Atom     1 has atomic number  6 and mass  12.00000

 Molecular mass:    54.04695 amu.
 Principal axes and moments of inertia in atomic units:
                           1         2         3
     Eigenvalues --    42.70751 407.73397 450.44148
           X            0.99999  -0.00488   0.00000
           Y            0.00488   0.99999   0.00000
           Z            0.00000   0.00000   1.00000
 This molecule is an asymmetric top.
 Rotational symmetry number  1.
 Rotational temperatures (Kelvin)      2.02807     0.21243     0.19229
 Rotational constants (GHZ):          42.25817     4.42627     4.00661
 Zero-point vibrational energy     226073.7 (Joules/Mol)
                                   54.03290 (Kcal/Mol)
 Warning -- explicit consideration of   4 degrees of freedom as
           vibrations may cause significant error
 Vibrational temperatures:    244.13   427.54   746.31   777.60  1121.58
          (Kelvin)           1315.40  1335.94  1339.81  1445.93  1460.73
                             1533.63  1795.30  1919.34  1922.67  2072.66
                             2164.84  2414.17  2499.33  4582.37  4593.10
                             4601.96  4602.23  4731.82  4732.37

 Zero-point correction=                           0.086107 (Hartree/Particle)
 Thermal correction to Energy=                    0.090759
 Thermal correction to Enthalpy=                  0.091704
 Thermal correction to Gibbs Free Energy=         0.059640
 Sum of electronic and zero-point Energies=           -155.732112
 Sum of electronic and thermal Energies=              -155.727459
 Sum of electronic and thermal Enthalpies=            -155.726515
 Sum of electronic and thermal Free Energies=         -155.758579

                     E (Thermal)             CV                S
                      KCal/Mol        Cal/Mol-Kelvin    Cal/Mol-Kelvin
 Total                   56.952             15.697             67.483
 Electronic               0.000              0.000              0.000
 Translational            0.889              2.981             37.884
 Rotational               0.889              2.981             23.577
 Vibrational             55.175              9.735              6.022
 Vibration     1          0.625              1.880              2.439
 Vibration     2          0.691              1.679              1.433
 Vibration     3          0.874              1.209              0.613
 Vibration     4          0.896              1.161              0.564

 Optimization completed.
    -- Stationary point found.
 Normal termination of Gaussian 09 at Wed Aug 19 17:47:15 2020.
