 Gaussian 09, Revision D.01,
 Gaussian 09:  ES64L-G09RevD.01 24-Apr-2013

 --------------------
 #p B2PLYPD3/Def2QZVP
 --------------------

 --------
 methanol
 --------
 Symbolic Z-matrix:
 Charge =  0 Multiplicity = 1

                         Standard orientation:
 ---------------------------------------------------------------------
 Center     Atomic      Atomic             Coordinates (Angstroms)
 Number     Number       Type             X           Y           Z
 ---------------------------------------------------------------------
      1          6           0        0.671684    0.028941   -0.006106
      2          8           0       -0.751817   -0.032996    0.033013
      3          1           0        0.959211    1.201887   -0.043364
      4          1           0        1.183363   -0.727087   -0.875219
      5          1           0        0.910273   -0.514646    1.030415
      6          1           0       -1.068410    0.130174   -0.339295
 ---------------------------------------------------------------------

 SCF Done:  E(RB2PLYPD3) =  -114.848508434     A.U. after   11 cycles
 E2(B2PLYPD3) =    -0.1436976639D+00 E(B2PLYPD3) =    -0.11499220609751D+03

 The electronic state is 1-A.
 Alpha  occ. eigenvalues --  -19.68362 -10.70964  -1.32638  -0.84825  -0.61390
 Alpha  occ. eigenvalues --   -0.51817  -0.49616  -0.39746  -0.36636
 Alpha virt. eigenvalues --    0.04858   0.09339   0.11139   0.11515   0.13718
 Alpha virt. eigenvalues --    0.16178   0.18195   0.28101   0.31134   0.32409
 Alpha virt. eigenvalues --    0.33330   0.36970   0.37267   0.41427   0.42461

 Mulliken charges:
               1
     1  C    0.037391
     2  O   -0.042193
     3  H    0.064159
     4  H    0.050517
     5  H    0.087196
     6  H   -0.197070
 Sum of Mulliken charges =   0.00000

 Dipole moment (field-independent basis, Debye):
    X=              0.9222    Y=              0.4367    Z=             -0.8337  Tot=              1.3177
 Quadrupole moment (field-independent basis, Debye-Ang):
   XX=            -13.2469   YY=            -12.8962   ZZ=            -12.9581
   XY=             -0.7903   XZ=              1.3750   YZ=             -0.2823

 Normal termination of Gaussian 09 at Wed Aug 26 20:18:24 2020.
