 Gaussian 09, Revision D.01,
 Gaussian 09:  ES64L-G09RevD.01 24-Apr-2013

 --------------------
 #p B2PLYPD3/Def2QZVP
 --------------------

 --------
 methanol
 --------
 Symbolic Z-matrix:
 Charge =  0 Multiplicity = 1

                         Standard orientation:
 ---------------------------------------------------------------------
 Center     Atomic      Atomic             Coordinates (Angstroms)
 Number     Number       Type             X           Y           Z
 ---------------------------------------------------------------------
      1          6           0        0.671681   -0.010621   -0.000065
      2          8           0       -0.754940    0.124621   -0.007586
      3          1           0        1.058303   -0.603539   -0.862988
      4          1           0        1.048525   -0.503156    0.904075
      5          1           0        1.090545    0.951423   -0.024772
      6          1           0       -1.187938   -0.777973    0.044768
 ---------------------------------------------------------------------

 SCF Done:  E(RB2PLYPD3) =  -115.548667278     A.U. after   10 cycles
 E2(B2PLYPD3) =    -0.1481586716D+00 E(B2PLYPD3) =    -0.11569682594953D+03

 The electronic state is 1-A.
 Alpha  occ. eigenvalues --  -19.72958 -10.65605  -1.14806  -0.78685  -0.57920
 Alpha  occ. eigenvalues --   -0.50870  -0.50203  -0.41086  -0.35175
 Alpha virt. eigenvalues --    0.04705   0.07916   0.12403   0.12581   0.14862
 Alpha virt. eigenvalues --    0.17313   0.18149   0.29164   0.33202   0.33353
 Alpha virt. eigenvalues --    0.33452   0.38843   0.40060   0.40302   0.43702

 Mulliken charges:
               1
     1  C    0.073147
     2  O   -0.476986
     3  H    0.044363
     4  H    0.045547
     5  H    0.076093
     6  H    0.237835
 Sum of Mulliken charges =   0.00000

 Dipole moment (field-independent basis, Debye):
    X=              0.8668    Y=             -1.4959    Z=              0.1114  Tot=              1.7325
 Quadrupole moment (field-independent basis, Debye-Ang):
   XX=            -12.7916   YY=            -12.2076   ZZ=            -13.9219
   XY=              2.3871   XZ=             -0.1055   YZ=             -0.0591

 Normal termination of Gaussian 09 at Wed Aug 26 22:04:34 2020.
