 Gaussian 09, Revision D.01,
 Gaussian 09:  ES64L-G09RevD.01 24-Apr-2013

 --------------------
 #p B2PLYPD3/Def2QZVP
 --------------------

 --------
 methanol
 --------
 Symbolic Z-matrix:
 Charge =  0 Multiplicity = 1

                         Standard orientation:
 ---------------------------------------------------------------------
 Center     Atomic      Atomic             Coordinates (Angstroms)
 Number     Number       Type             X           Y           Z
 ---------------------------------------------------------------------
      1          6           0       -0.673086   -0.013374   -0.002537
      2          8           0        0.751249    0.120966    0.001735
      3          1           0       -1.056623   -0.509890    0.905036
      4          1           0       -1.015985   -0.565592   -0.878930
      5          1           0       -1.038802    0.967864   -0.032521
      6          1           0        1.139933   -0.779863    0.007762
 ---------------------------------------------------------------------

 SCF Done:  E(RB2PLYPD3) =  -115.550930014     A.U. after   10 cycles
 E2(B2PLYPD3) =    -0.1477056270D+00 E(B2PLYPD3) =    -0.11569863564088D+03

 The electronic state is 1-A.
 Alpha  occ. eigenvalues --  -19.72648 -10.65324  -1.15355  -0.78807  -0.58236
 Alpha  occ. eigenvalues --   -0.51480  -0.49913  -0.41408  -0.35291
 Alpha virt. eigenvalues --    0.04842   0.08183   0.12345   0.12518   0.14860
 Alpha virt. eigenvalues --    0.17121   0.18119   0.29113   0.33146   0.33382
 Alpha virt. eigenvalues --    0.34601   0.38799   0.40224   0.40705   0.43915

 Mulliken charges:
               1
     1  C    0.071093
     2  O   -0.469438
     3  H    0.047083
     4  H    0.047445
     5  H    0.074988
     6  H    0.228828
 Sum of Mulliken charges =   0.00000

 Dipole moment (field-independent basis, Debye):
    X=             -0.9263    Y=             -1.4951    Z=             -0.0056  Tot=              1.7588
 Quadrupole moment (field-independent basis, Debye-Ang):
   XX=            -13.0781   YY=            -12.1176   ZZ=            -13.7892
   XY=             -2.2677   XZ=              0.0012   YZ=             -0.0002

 Normal termination of Gaussian 09 at Wed Aug 26 19:19:15 2020.
