 Gaussian 09, Revision D.01,
 Gaussian 09:  ES64L-G09RevD.01 24-Apr-2013

 --------------------
 #p B2PLYPD3/Def2QZVP
 --------------------

 --------
 methanol
 --------
 Symbolic Z-matrix:
 Charge =  0 Multiplicity = 1

                         Standard orientation:
 ---------------------------------------------------------------------
 Center     Atomic      Atomic             Coordinates (Angstroms)
 Number     Number       Type             X           Y           Z
 ---------------------------------------------------------------------
      1          6           0       -0.681487   -0.021577    0.006758
      2          8           0        0.754211    0.102861   -0.015530
      3          1           0       -0.990483   -0.417349    0.984164
      4          1           0       -1.039769   -0.654095   -0.872287
      5          1           0       -1.065850    1.009194   -0.099950
      6          1           0        1.151328   -0.631177    0.071764
 ---------------------------------------------------------------------

 SCF Done:  E(RB2PLYPD3) =  -115.533484591     A.U. after   10 cycles
 E2(B2PLYPD3) =    -0.1456301673D+00 E(B2PLYPD3) =    -0.11567911475823D+03

 The electronic state is 1-A.
 Alpha  occ. eigenvalues --  -19.70994 -10.66865  -1.18208  -0.79662  -0.59502
 Alpha  occ. eigenvalues --   -0.51767  -0.49853  -0.40769  -0.35711
 Alpha virt. eigenvalues --    0.05402   0.08652   0.12019   0.12333   0.14441
 Alpha virt. eigenvalues --    0.16972   0.18014   0.28999   0.32262   0.33237
 Alpha virt. eigenvalues --    0.37311   0.39204   0.39570   0.40340   0.43184

 Mulliken charges:
               1
     1  C    0.066784
     2  O   -0.407370
     3  H    0.056871
     4  H    0.051778
     5  H    0.076933
     6  H    0.155004
 Sum of Mulliken charges =   0.00000

 Dipole moment (field-independent basis, Debye):
    X=             -0.9308    Y=             -1.3437    Z=              0.1999  Tot=              1.6468
 Quadrupole moment (field-independent basis, Debye-Ang):
   XX=            -12.9714   YY=            -12.4745   ZZ=            -13.5512
   XY=             -2.1594   XZ=              0.2477   YZ=             -0.1098

 Normal termination of Gaussian 09 at Wed Aug 26 09:58:17 2020.
