 Gaussian 09, Revision D.01,
 Gaussian 09:  ES64L-G09RevD.01 24-Apr-2013

 --------------------
 #p B2PLYPD3/Def2QZVP
 --------------------

 --------
 methanol
 --------
 Symbolic Z-matrix:
 Charge =  0 Multiplicity = 1

                         Standard orientation:
 ---------------------------------------------------------------------
 Center     Atomic      Atomic             Coordinates (Angstroms)
 Number     Number       Type             X           Y           Z
 ---------------------------------------------------------------------
      1          6           0       -0.663970    0.024340   -0.004354
      2          8           0        0.743458   -0.145090    0.002009
      3          1           0       -1.090931    0.476164   -0.837233
      4          1           0       -0.994219    0.584181    0.838874
      5          1           0       -1.068892   -0.936009    0.052518
      6          1           0        1.190194    0.890347   -0.044107
 ---------------------------------------------------------------------

 SCF Done:  E(RB2PLYPD3) =  -115.526404691     A.U. after   11 cycles
 E2(B2PLYPD3) =    -0.1501004863D+00 E(B2PLYPD3) =    -0.11567650517683D+03

 The electronic state is 1-A.
 Alpha  occ. eigenvalues --  -19.73888 -10.63944  -1.13609  -0.78743  -0.56957
 Alpha  occ. eigenvalues --   -0.51925  -0.49474  -0.40861  -0.35141
 Alpha virt. eigenvalues --    0.03427   0.07753   0.12581   0.12741   0.15055
 Alpha virt. eigenvalues --    0.17287   0.18354   0.28346   0.29827   0.33345
 Alpha virt. eigenvalues --    0.34497   0.39027   0.39540   0.41972   0.44193

 Mulliken charges:
               1
     1  C    0.079216
     2  O   -0.486306
     3  H    0.046195
     4  H    0.042802
     5  H    0.066196
     6  H    0.251897
 Sum of Mulliken charges =   0.00000

 Dipole moment (field-independent basis, Debye):
    X=             -0.8782    Y=              1.6321    Z=             -0.0894  Tot=              1.8555
 Quadrupole moment (field-independent basis, Debye-Ang):
   XX=            -12.8651   YY=            -11.9449   ZZ=            -13.9433
   XY=              2.3912   XZ=              0.0015   YZ=             -0.0725

 Normal termination of Gaussian 09 at Thu Aug 27 00:06:58 2020.
