 Gaussian 09, Revision D.01,
 Gaussian 09:  ES64L-G09RevD.01 24-Apr-2013

 --------------------
 #p B2PLYPD3/Def2QZVP
 --------------------

 --------
 methanol
 --------
 Symbolic Z-matrix:
 Charge =  0 Multiplicity = 1

                         Standard orientation:
 ---------------------------------------------------------------------
 Center     Atomic      Atomic             Coordinates (Angstroms)
 Number     Number       Type             X           Y           Z
 ---------------------------------------------------------------------
      1          6           0        0.685150    0.016855    0.013516
      2          8           0       -0.744671   -0.082073   -0.028958
      3          1           0        1.067704    0.035763    1.011309
      4          1           0        0.960759    0.989541   -0.627745
      5          1           0        0.972849   -0.982156   -0.457690
      6          1           0       -1.154843    0.512307    0.224688
 ---------------------------------------------------------------------

 SCF Done:  E(RB2PLYPD3) =  -115.484323555     A.U. after   10 cycles
 E2(B2PLYPD3) =    -0.1447592209D+00 E(B2PLYPD3) =    -0.11562908277593D+03

 The electronic state is 1-A.
 Alpha  occ. eigenvalues --  -19.69887 -10.67655  -1.20561  -0.80779  -0.60623
 Alpha  occ. eigenvalues --   -0.51805  -0.49442  -0.40363  -0.35722
 Alpha virt. eigenvalues --    0.05343   0.09012   0.11663   0.12118   0.14509
 Alpha virt. eigenvalues --    0.16439   0.17946   0.29003   0.31620   0.33356
 Alpha virt. eigenvalues --    0.36757   0.37792   0.40380   0.41557   0.42306

 Mulliken charges:
               1
     1  C    0.056237
     2  O   -0.325472
     3  H    0.065443
     4  H    0.045806
     5  H    0.080411
     6  H    0.077574
 Sum of Mulliken charges =   0.00000

 Dipole moment (field-independent basis, Debye):
    X=              0.8521    Y=              1.1242    Z=              0.5946  Tot=              1.5308
 Quadrupole moment (field-independent basis, Debye-Ang):
   XX=            -13.0319   YY=            -12.5448   ZZ=            -13.4435
   XY=             -1.9128   XZ=             -0.5272   YZ=              0.2967

 Normal termination of Gaussian 09 at Wed Aug 26 23:51:36 2020.
