 Gaussian 09, Revision D.01,
 Gaussian 09:  ES64L-G09RevD.01 24-Apr-2013

 --------------------
 #p B2PLYPD3/Def2QZVP
 --------------------

 --------
 methanol
 --------
 Symbolic Z-matrix:
 Charge =  0 Multiplicity = 1

                         Standard orientation:
 ---------------------------------------------------------------------
 Center     Atomic      Atomic             Coordinates (Angstroms)
 Number     Number       Type             X           Y           Z
 ---------------------------------------------------------------------
      1          6           0        0.678425   -0.014910   -0.006539
      2          8           0       -0.755643    0.104534   -0.000423
      3          1           0        1.040904   -0.567226   -0.879721
      4          1           0        0.997788   -0.553066    0.925088
      5          1           0        1.058456    1.033527    0.006251
      6          1           0       -1.122558   -0.660050   -0.009003
 ---------------------------------------------------------------------

 SCF Done:  E(RB2PLYPD3) =  -115.537436573     A.U. after   10 cycles
 E2(B2PLYPD3) =    -0.1457425616D+00 E(B2PLYPD3) =    -0.11568317913497D+03

 The electronic state is 1-A.
 Alpha  occ. eigenvalues --  -19.71227 -10.66669  -1.18200  -0.79461  -0.59830
 Alpha  occ. eigenvalues --   -0.51486  -0.49699  -0.41411  -0.35592
 Alpha virt. eigenvalues --    0.05333   0.08669   0.12120   0.12210   0.14757
 Alpha virt. eigenvalues --    0.17012   0.17788   0.29113   0.32361   0.33309
 Alpha virt. eigenvalues --    0.37782   0.38689   0.39716   0.40254   0.42953

 Mulliken charges:
               1
     1  C    0.069333
     2  O   -0.410235
     3  H    0.053456
     4  H    0.048756
     5  H    0.076869
     6  H    0.161821
 Sum of Mulliken charges =   0.00000

 Dipole moment (field-independent basis, Debye):
    X=              0.9625    Y=             -1.4075    Z=             -0.0371  Tot=              1.7055
 Quadrupole moment (field-independent basis, Debye-Ang):
   XX=            -13.1027   YY=            -12.2560   ZZ=            -13.7066
   XY=              2.1027   XZ=             -0.0485   YZ=              0.0536

 Normal termination of Gaussian 09 at Thu Aug 27 00:14:52 2020.
