 Gaussian 09, Revision D.01,
 Gaussian 09:  ES64L-G09RevD.01 24-Apr-2013

 --------------------
 #p B2PLYPD3/Def2QZVP
 --------------------

 --------
 methanol
 --------
 Symbolic Z-matrix:
 Charge =  0 Multiplicity = 1

                         Standard orientation:
 ---------------------------------------------------------------------
 Center     Atomic      Atomic             Coordinates (Angstroms)
 Number     Number       Type             X           Y           Z
 ---------------------------------------------------------------------
      1          6           0        0.655287    0.037438    0.008078
      2          8           0       -0.734996   -0.165988   -0.003976
      3          1           0        1.088162    0.415014    0.832096
      4          1           0        0.979765    0.647383   -0.779383
      5          1           0        1.142340   -0.897331   -0.118339
      6          1           0       -1.262018    0.938203    0.048969
 ---------------------------------------------------------------------

 SCF Done:  E(RB2PLYPD3) =  -115.500166198     A.U. after   11 cycles
 E2(B2PLYPD3) =    -0.1517081301D+00 E(B2PLYPD3) =    -0.11565187432764D+03

 The electronic state is 1-A.
 Alpha  occ. eigenvalues --  -19.74522 -10.63371  -1.13082  -0.78891  -0.55851
 Alpha  occ. eigenvalues --   -0.52333  -0.49579  -0.39859  -0.35112
 Alpha virt. eigenvalues --    0.01901   0.07483   0.12685   0.12962   0.15003
 Alpha virt. eigenvalues --    0.17556   0.18514   0.25557   0.29523   0.33492
 Alpha virt. eigenvalues --    0.34859   0.39023   0.39463   0.42528   0.44267

 Mulliken charges:
               1
     1  C    0.087137
     2  O   -0.487816
     3  H    0.046667
     4  H    0.039380
     5  H    0.058196
     6  H    0.256435
 Sum of Mulliken charges =   0.00000

 Dipole moment (field-independent basis, Debye):
    X=              0.7911    Y=              1.7067    Z=              0.1072  Tot=              1.8841
 Quadrupole moment (field-independent basis, Debye-Ang):
   XX=            -12.5298   YY=            -11.9918   ZZ=            -14.0299
   XY=             -2.5589   XZ=             -0.0056   YZ=              0.0742

 Normal termination of Gaussian 09 at Wed Aug 26 12:09:58 2020.
