 Gaussian 09, Revision D.01,
 Gaussian 09:  ES64L-G09RevD.01 24-Apr-2013

 --------------------
 #p B2PLYPD3/Def2QZVP
 --------------------

 --------
 methanol
 --------
 Symbolic Z-matrix:
 Charge =  0 Multiplicity = 1

                         Standard orientation:
 ---------------------------------------------------------------------
 Center     Atomic      Atomic             Coordinates (Angstroms)
 Number     Number       Type             X           Y           Z
 ---------------------------------------------------------------------
      1          6           0       -0.669956   -0.025411   -0.003611
      2          8           0        0.748464    0.105945   -0.008149
      3          1           0       -0.978249   -0.517571    0.937601
      4          1           0       -1.004151   -0.599893   -0.885021
      5          1           0       -1.107409    1.040282   -0.010920
      6          1           0        1.121832   -0.617912    0.045195
 ---------------------------------------------------------------------

 SCF Done:  E(RB2PLYPD3) =  -115.524332776     A.U. after   10 cycles
 E2(B2PLYPD3) =    -0.1451139013D+00 E(B2PLYPD3) =    -0.11566944667756D+03

 The electronic state is 1-A.
 Alpha  occ. eigenvalues --  -19.70852 -10.66922  -1.19561  -0.79718  -0.60353
 Alpha  occ. eigenvalues --   -0.52172  -0.49696  -0.40809  -0.35750
 Alpha virt. eigenvalues --    0.05380   0.08838   0.12090   0.12161   0.14601
 Alpha virt. eigenvalues --    0.17141   0.17776   0.29032   0.32863   0.33130
 Alpha virt. eigenvalues --    0.37143   0.38705   0.40021   0.40486   0.43256

 Mulliken charges:
               1
     1  C    0.067479
     2  O   -0.378296
     3  H    0.050539
     4  H    0.054214
     5  H    0.071485
     6  H    0.134580
 Sum of Mulliken charges =   0.00000

 Dipole moment (field-independent basis, Debye):
    X=             -0.9046    Y=             -1.3913    Z=              0.1075  Tot=              1.6630
 Quadrupole moment (field-independent basis, Debye-Ang):
   XX=            -13.0670   YY=            -12.4147   ZZ=            -13.6123
   XY=             -2.1027   XZ=              0.1563   YZ=             -0.0234

 Normal termination of Gaussian 09 at Thu Aug 27 00:06:29 2020.
