 Gaussian 09, Revision D.01,
 Gaussian 09:  ES64L-G09RevD.01 24-Apr-2013

 --------------------
 #p B2PLYPD3/Def2QZVP
 --------------------

 --------
 methanol
 --------
 Symbolic Z-matrix:
 Charge =  0 Multiplicity = 1

                         Standard orientation:
 ---------------------------------------------------------------------
 Center     Atomic      Atomic             Coordinates (Angstroms)
 Number     Number       Type             X           Y           Z
 ---------------------------------------------------------------------
      1          6           0        0.665357    0.027496    0.012670
      2          8           0       -0.748704   -0.163953   -0.008587
      3          1           0        0.987276    0.436710    0.860532
      4          1           0        1.038306    0.555538   -0.829195
      5          1           0        1.119076   -0.848377   -0.059568
      6          1           0       -1.147174    1.002780    0.020900
 ---------------------------------------------------------------------

 SCF Done:  E(RB2PLYPD3) =  -115.491056730     A.U. after   11 cycles
 E2(B2PLYPD3) =    -0.1521993657D+00 E(B2PLYPD3) =    -0.11564325609565D+03

 The electronic state is 1-A.
 Alpha  occ. eigenvalues --  -19.74544 -10.62742  -1.12441  -0.79634  -0.55321
 Alpha  occ. eigenvalues --   -0.52876  -0.49542  -0.40408  -0.35359
 Alpha virt. eigenvalues --    0.01848   0.07629   0.12579   0.12904   0.14608
 Alpha virt. eigenvalues --    0.17824   0.18529   0.25436   0.29412   0.33523
 Alpha virt. eigenvalues --    0.33890   0.38933   0.41085   0.42461   0.43526

 Mulliken charges:
               1
     1  C    0.093526
     2  O   -0.493052
     3  H    0.047150
     4  H    0.041085
     5  H    0.058593
     6  H    0.252699
 Sum of Mulliken charges =   0.00000

 Dipole moment (field-independent basis, Debye):
    X=              1.0679    Y=              1.6663    Z=              0.0842  Tot=              1.9809
 Quadrupole moment (field-independent basis, Debye-Ang):
   XX=            -13.0922   YY=            -11.7859   ZZ=            -13.7949
   XY=             -2.4794   XZ=             -0.0576   YZ=              0.0843

 Normal termination of Gaussian 09 at Wed Aug 26 15:52:14 2020.
