 Gaussian 09, Revision D.01,
 Gaussian 09:  ES64L-G09RevD.01 24-Apr-2013

 --------------------
 #p B2PLYPD3/Def2QZVP
 --------------------

 --------
 methanol
 --------
 Symbolic Z-matrix:
 Charge =  0 Multiplicity = 1

                         Standard orientation:
 ---------------------------------------------------------------------
 Center     Atomic      Atomic             Coordinates (Angstroms)
 Number     Number       Type             X           Y           Z
 ---------------------------------------------------------------------
      1          6           0        0.649596    0.020957   -0.007619
      2          8           0       -0.736432   -0.155112    0.004410
      3          1           0        1.062670    0.529810    0.807964
      4          1           0        1.028179    0.539955   -0.781124
      5          1           0        1.050192   -0.938236   -0.008470
      6          1           0       -1.147162    0.983623   -0.007942
 ---------------------------------------------------------------------

 SCF Done:  E(RB2PLYPD3) =  -115.501726585     A.U. after   11 cycles
 E2(B2PLYPD3) =    -0.1515125961D+00 E(B2PLYPD3) =    -0.11565323918135D+03

 The electronic state is 1-A.
 Alpha  occ. eigenvalues --  -19.74582 -10.63059  -1.13770  -0.78943  -0.57101
 Alpha  occ. eigenvalues --   -0.51884  -0.49518  -0.40857  -0.34980
 Alpha virt. eigenvalues --    0.02096   0.07704   0.12448   0.13023   0.15289
 Alpha virt. eigenvalues --    0.17409   0.18239   0.25969   0.29655   0.33615
 Alpha virt. eigenvalues --    0.35264   0.38770   0.39350   0.42306   0.44892

 Mulliken charges:
               1
     1  C    0.089990
     2  O   -0.477022
     3  H    0.035996
     4  H    0.038664
     5  H    0.061677
     6  H    0.250696
 Sum of Mulliken charges =   0.00000

 Dipole moment (field-independent basis, Debye):
    X=              0.9190    Y=              1.7166    Z=             -0.0537  Tot=              1.9479
 Quadrupole moment (field-independent basis, Debye-Ang):
   XX=            -13.1236   YY=            -11.5965   ZZ=            -14.0864
   XY=             -2.2685   XZ=              0.0033   YZ=             -0.0525

 Normal termination of Gaussian 09 at Wed Aug 26 13:36:44 2020.
