 Gaussian 09, Revision D.01,
 Gaussian 09:  ES64L-G09RevD.01 24-Apr-2013

 --------------------
 #p B2PLYPD3/Def2QZVP
 --------------------

 --------
 methanol
 --------
 Symbolic Z-matrix:
 Charge =  0 Multiplicity = 1

                         Standard orientation:
 ---------------------------------------------------------------------
 Center     Atomic      Atomic             Coordinates (Angstroms)
 Number     Number       Type             X           Y           Z
 ---------------------------------------------------------------------
      1          6           0        0.676505    0.020635   -0.001473
      2          8           0       -0.750850   -0.133407   -0.004236
      3          1           0        1.008020    0.496415    0.901509
      4          1           0        1.072512    0.526501   -0.862529
      5          1           0        1.014195   -0.944559    0.000540
      6          1           0       -1.146953    0.865088    0.003204
 ---------------------------------------------------------------------

 SCF Done:  E(RB2PLYPD3) =  -115.536946003     A.U. after   11 cycles
 E2(B2PLYPD3) =    -0.1494344328D+00 E(B2PLYPD3) =    -0.11568638043528D+03

 The electronic state is 1-A.
 Alpha  occ. eigenvalues --  -19.73381 -10.64389  -1.13730  -0.78761  -0.57078
 Alpha  occ. eigenvalues --   -0.51969  -0.49258  -0.41292  -0.35310
 Alpha virt. eigenvalues --    0.04119   0.07933   0.12421   0.12621   0.14826
 Alpha virt. eigenvalues --    0.17046   0.18381   0.28860   0.31206   0.33297
 Alpha virt. eigenvalues --    0.33814   0.38632   0.40276   0.41520   0.43825

 Mulliken charges:
               1
     1  C    0.072216
     2  O   -0.486992
     3  H    0.049108
     4  H    0.049761
     5  H    0.071374
     6  H    0.244533
 Sum of Mulliken charges =   0.00000

 Dipole moment (field-independent basis, Debye):
    X=              0.9777    Y=              1.5633    Z=              0.0174  Tot=              1.8439
 Quadrupole moment (field-independent basis, Debye-Ang):
   XX=            -13.1306   YY=            -11.9775   ZZ=            -13.7699
   XY=             -2.3021   XZ=             -0.0692   YZ=             -0.0078

 Normal termination of Gaussian 09 at Wed Aug 26 11:36:45 2020.
