 Gaussian 09, Revision D.01,
 Gaussian 09:  ES64L-G09RevD.01 24-Apr-2013

 --------------------
 #p B2PLYPD3/Def2QZVP
 --------------------

 --------
 methanol
 --------
 Symbolic Z-matrix:
 Charge =  0 Multiplicity = 1

                         Standard orientation:
 ---------------------------------------------------------------------
 Center     Atomic      Atomic             Coordinates (Angstroms)
 Number     Number       Type             X           Y           Z
 ---------------------------------------------------------------------
      1          6           0        0.651589    0.026776    0.004519
      2          8           0       -0.732002   -0.149844    0.000733
      3          1           0        1.033287    0.513559    0.834741
      4          1           0        0.939501    0.619182   -0.821095
      5          1           0        1.177647   -0.927315   -0.067443
      6          1           0       -1.203952    0.832674    0.020813
 ---------------------------------------------------------------------

 SCF Done:  E(RB2PLYPD3) =  -115.533815079     A.U. after   11 cycles
 E2(B2PLYPD3) =    -0.1489152174D+00 E(B2PLYPD3) =    -0.11568273029640D+03

 The electronic state is 1-A.
 Alpha  occ. eigenvalues --  -19.73468 -10.64194  -1.14752  -0.78474  -0.57666
 Alpha  occ. eigenvalues --   -0.52264  -0.50126  -0.40328  -0.34887
 Alpha virt. eigenvalues --    0.03787   0.07799   0.12644   0.12802   0.14952
 Alpha virt. eigenvalues --    0.17852   0.18006   0.29066   0.30245   0.33188
 Alpha virt. eigenvalues --    0.34776   0.39304   0.39954   0.42072   0.44086

 Mulliken charges:
               1
     1  C    0.082591
     2  O   -0.480973
     3  H    0.042715
     4  H    0.038277
     5  H    0.063924
     6  H    0.253466
 Sum of Mulliken charges =   0.00000

 Dipole moment (field-independent basis, Debye):
    X=              0.7499    Y=              1.6577    Z=              0.0453  Tot=              1.8200
 Quadrupole moment (field-independent basis, Debye-Ang):
   XX=            -12.7040   YY=            -12.1074   ZZ=            -13.9683
   XY=             -2.4876   XZ=              0.0348   YZ=              0.0477

 Normal termination of Gaussian 09 at Wed Aug 26 16:22:21 2020.
