 Gaussian 09, Revision D.01,
 Gaussian 09:  ES64L-G09RevD.01 24-Apr-2013

 --------------------
 #p B2PLYPD3/Def2QZVP
 --------------------

 --------
 methanol
 --------
 Symbolic Z-matrix:
 Charge =  0 Multiplicity = 1

                         Standard orientation:
 ---------------------------------------------------------------------
 Center     Atomic      Atomic             Coordinates (Angstroms)
 Number     Number       Type             X           Y           Z
 ---------------------------------------------------------------------
      1          6           0       -0.657438    0.008420   -0.021270
      2          8           0        0.745622   -0.160846   -0.006069
      3          1           0       -1.187106    0.571924   -0.690576
      4          1           0       -1.019820    0.532185    0.806806
      5          1           0       -1.014541   -0.927766    0.052663
      6          1           0        1.201120    1.059900    0.007275
 ---------------------------------------------------------------------

 SCF Done:  E(RB2PLYPD3) =  -115.469535786     A.U. after   11 cycles
 E2(B2PLYPD3) =    -0.1541124357D+00 E(B2PLYPD3) =    -0.11562364822205D+03

 The electronic state is 1-A.
 Alpha  occ. eigenvalues --  -19.75354 -10.63026  -1.12637  -0.79433  -0.56937
 Alpha  occ. eigenvalues --   -0.50255  -0.49229  -0.40889  -0.34561
 Alpha virt. eigenvalues --    0.00428   0.07385   0.12243   0.13314   0.15175
 Alpha virt. eigenvalues --    0.17184   0.18499   0.23763   0.29862   0.32952
 Alpha virt. eigenvalues --    0.35068   0.37966   0.38811   0.41444   0.44783

 Mulliken charges:
               1
     1  C    0.088251
     2  O   -0.473741
     3  H    0.041779
     4  H    0.031236
     5  H    0.065052
     6  H    0.247423
 Sum of Mulliken charges =   0.00000

 Dipole moment (field-independent basis, Debye):
    X=             -0.9456    Y=              1.7453    Z=              0.0443  Tot=              1.9855
 Quadrupole moment (field-independent basis, Debye-Ang):
   XX=            -12.9232   YY=            -11.3704   ZZ=            -14.4184
   XY=              2.2654   XZ=              0.0843   YZ=             -0.0587

 Normal termination of Gaussian 09 at Wed Aug 26 20:48:19 2020.
