 Gaussian 09, Revision D.01,
 Gaussian 09:  ES64L-G09RevD.01 24-Apr-2013

 --------------------
 #p B2PLYPD3/Def2QZVP
 --------------------

 --------
 methanol
 --------
 Symbolic Z-matrix:
 Charge =  0 Multiplicity = 1

                         Standard orientation:
 ---------------------------------------------------------------------
 Center     Atomic      Atomic             Coordinates (Angstroms)
 Number     Number       Type             X           Y           Z
 ---------------------------------------------------------------------
      1          6           0        0.659899    0.021633   -0.000749
      2          8           0       -0.746925   -0.141633   -0.004272
      3          1           0        1.031956    0.488794    0.850586
      4          1           0        0.990377    0.593139   -0.823980
      5          1           0        1.110799   -0.947829   -0.031779
      6          1           0       -1.117132    0.869156    0.043846
 ---------------------------------------------------------------------

 SCF Done:  E(RB2PLYPD3) =  -115.536877599     A.U. after   11 cycles
 E2(B2PLYPD3) =    -0.1491457092D+00 E(B2PLYPD3) =    -0.11568602330788D+03

 The electronic state is 1-A.
 Alpha  occ. eigenvalues --  -19.73569 -10.64179  -1.14459  -0.78729  -0.57506
 Alpha  occ. eigenvalues --   -0.52256  -0.49551  -0.41248  -0.35235
 Alpha virt. eigenvalues --    0.03965   0.07959   0.12497   0.12666   0.14961
 Alpha virt. eigenvalues --    0.17618   0.18102   0.29070   0.30629   0.33380
 Alpha virt. eigenvalues --    0.34299   0.39166   0.39906   0.41962   0.44210

 Mulliken charges:
               1
     1  C    0.083340
     2  O   -0.480081
     3  H    0.043107
     4  H    0.042452
     5  H    0.064232
     6  H    0.246949
 Sum of Mulliken charges =   0.00000

 Dipole moment (field-independent basis, Debye):
    X=              0.9612    Y=              1.6426    Z=              0.0950  Tot=              1.9055
 Quadrupole moment (field-independent basis, Debye-Ang):
   XX=            -13.1512   YY=            -11.9046   ZZ=            -13.8946
   XY=             -2.2916   XZ=             -0.0421   YZ=              0.0490

 Normal termination of Gaussian 09 at Wed Aug 26 10:08:55 2020.
