 Gaussian 09, Revision D.01,
 Gaussian 09:  ES64L-G09RevD.01 24-Apr-2013

 --------------------
 #p B2PLYPD3/Def2QZVP
 --------------------

 --------
 methanol
 --------
 Symbolic Z-matrix:
 Charge =  0 Multiplicity = 1

                         Standard orientation:
 ---------------------------------------------------------------------
 Center     Atomic      Atomic             Coordinates (Angstroms)
 Number     Number       Type             X           Y           Z
 ---------------------------------------------------------------------
      1          6           0        0.659802   -0.013964   -0.004871
      2          8           0       -0.751842    0.098473    0.004826
      3          1           0        1.062850   -0.562864   -0.889263
      4          1           0        1.080958   -0.543541    0.916584
      5          1           0        1.036687    1.057665   -0.017858
      6          1           0       -1.124573   -0.655261   -0.018840
 ---------------------------------------------------------------------

 SCF Done:  E(RB2PLYPD3) =  -115.533363406     A.U. after   10 cycles
 E2(B2PLYPD3) =    -0.1457195797D+00 E(B2PLYPD3) =    -0.11567908298599D+03

 The electronic state is 1-A.
 Alpha  occ. eigenvalues --  -19.71650 -10.67165  -1.19288  -0.79279  -0.60607
 Alpha  occ. eigenvalues --   -0.51013  -0.49791  -0.41215  -0.35610
 Alpha virt. eigenvalues --    0.05317   0.08574   0.12024   0.12259   0.15031
 Alpha virt. eigenvalues --    0.16966   0.18011   0.29011   0.33202   0.33466
 Alpha virt. eigenvalues --    0.37305   0.38537   0.39595   0.39772   0.42205

 Mulliken charges:
               1
     1  C    0.058563
     2  O   -0.386264
     3  H    0.049411
     4  H    0.046302
     5  H    0.072903
     6  H    0.159085
 Sum of Mulliken charges =   0.00000

 Dipole moment (field-independent basis, Debye):
    X=              0.8266    Y=             -1.3861    Z=             -0.0755  Tot=              1.6157
 Quadrupole moment (field-independent basis, Debye-Ang):
   XX=            -13.0301   YY=            -12.3508   ZZ=            -13.8394
   XY=              2.0238   XZ=              0.0325   YZ=              0.0508

 Normal termination of Gaussian 09 at Wed Aug 26 12:09:15 2020.
