 Gaussian 09, Revision D.01,
 Gaussian 09:  ES64L-G09RevD.01 24-Apr-2013

 --------------------
 #p B2PLYPD3/Def2QZVP
 --------------------

 --------
 methanol
 --------
 Symbolic Z-matrix:
 Charge =  0 Multiplicity = 1

                         Standard orientation:
 ---------------------------------------------------------------------
 Center     Atomic      Atomic             Coordinates (Angstroms)
 Number     Number       Type             X           Y           Z
 ---------------------------------------------------------------------
      1          6           0        0.670388   -0.006184    0.014577
      2          8           0       -0.747597   -0.054210   -0.052384
      3          1           0        1.042242   -0.286011    1.064020
      4          1           0        1.000947    1.137078   -0.337683
      5          1           0        1.022299   -0.732807   -0.741956
      6          1           0       -1.107041    0.352524    0.347227
 ---------------------------------------------------------------------

 SCF Done:  E(RB2PLYPD3) =  -115.377468177     A.U. after   11 cycles
 E2(B2PLYPD3) =    -0.1437541149D+00 E(B2PLYPD3) =    -0.11552122229189D+03

 The electronic state is 1-A.
 Alpha  occ. eigenvalues --  -19.69207 -10.68762  -1.24908  -0.82131  -0.61186
 Alpha  occ. eigenvalues --   -0.51344  -0.50885  -0.40629  -0.35745
 Alpha virt. eigenvalues --    0.05300   0.09309   0.11403   0.12185   0.14146
 Alpha virt. eigenvalues --    0.16715   0.17816   0.28588   0.31884   0.32927
 Alpha virt. eigenvalues --    0.35578   0.38563   0.39547   0.40878   0.42532

 Mulliken charges:
               1
     1  C    0.050619
     2  O   -0.227868
     3  H    0.057229
     4  H    0.037612
     5  H    0.090880
     6  H   -0.008472
 Sum of Mulliken charges =   0.00000

 Dipole moment (field-independent basis, Debye):
    X=              0.8746    Y=              0.7068    Z=              0.8337  Tot=              1.3999
 Quadrupole moment (field-independent basis, Debye-Ang):
   XX=            -13.1395   YY=            -13.0871   ZZ=            -12.9669
   XY=             -1.5440   XZ=             -1.2750   YZ=              0.4205

 Normal termination of Gaussian 09 at Wed Aug 26 15:39:16 2020.
