 Gaussian 09, Revision D.01,
 Gaussian 09:  ES64L-G09RevD.01 24-Apr-2013

 --------------------
 #p B2PLYPD3/Def2QZVP
 --------------------

 --------
 methanol
 --------
 Symbolic Z-matrix:
 Charge =  0 Multiplicity = 1

                         Standard orientation:
 ---------------------------------------------------------------------
 Center     Atomic      Atomic             Coordinates (Angstroms)
 Number     Number       Type             X           Y           Z
 ---------------------------------------------------------------------
      1          6           0       -0.658163   -0.024926   -0.009190
      2          8           0        0.744794    0.092095   -0.023412
      3          1           0       -1.020683   -0.347190    1.042184
      4          1           0       -0.889760   -0.841551   -0.784631
      5          1           0       -1.252872    1.015638   -0.202035
      6          1           0        1.153940   -0.414101    0.186916
 ---------------------------------------------------------------------

 SCF Done:  E(RB2PLYPD3) =  -115.388366130     A.U. after   11 cycles
 E2(B2PLYPD3) =    -0.1439298665D+00 E(B2PLYPD3) =    -0.11553229599645D+03

 The electronic state is 1-A.
 Alpha  occ. eigenvalues --  -19.69322 -10.69096  -1.24577  -0.81996  -0.61880
 Alpha  occ. eigenvalues --   -0.52203  -0.49959  -0.39315  -0.35819
 Alpha virt. eigenvalues --    0.05251   0.09091   0.11802   0.11995   0.14094
 Alpha virt. eigenvalues --    0.17130   0.17713   0.28865   0.32069   0.32797
 Alpha virt. eigenvalues --    0.34657   0.38338   0.38603   0.41031   0.43206

 Mulliken charges:
               1
     1  C    0.061881
     2  O   -0.237377
     3  H    0.041314
     4  H    0.054941
     5  H    0.077622
     6  H    0.001620
 Sum of Mulliken charges =   0.00000

 Dipole moment (field-independent basis, Debye):
    X=             -0.8079    Y=             -1.0986    Z=              0.4579  Tot=              1.4385
 Quadrupole moment (field-independent basis, Debye-Ang):
   XX=            -12.7115   YY=            -12.8679   ZZ=            -13.5632
   XY=             -2.0228   XZ=              0.5800   YZ=             -0.1234

 Normal termination of Gaussian 09 at Wed Aug 26 19:51:00 2020.
