 Gaussian 09, Revision D.01,
 Gaussian 09:  ES64L-G09RevD.01 24-Apr-2013

 --------------------
 #p B2PLYPD3/Def2QZVP
 --------------------

 --------
 methanol
 --------
 Symbolic Z-matrix:
 Charge =  0 Multiplicity = 1

                         Standard orientation:
 ---------------------------------------------------------------------
 Center     Atomic      Atomic             Coordinates (Angstroms)
 Number     Number       Type             X           Y           Z
 ---------------------------------------------------------------------
      1          6           0       -0.697489    0.039482   -0.018767
      2          8           0        0.757192   -0.174055   -0.004772
      3          1           0       -1.137814    0.383567   -0.765687
      4          1           0       -0.927444    0.605311    0.779692
      5          1           0       -1.003601   -0.917333    0.164252
      6          1           0        1.196262    1.084007   -0.027481
 ---------------------------------------------------------------------

 SCF Done:  E(RB2PLYPD3) =  -115.448537565     A.U. after   12 cycles
 E2(B2PLYPD3) =    -0.1552332752D+00 E(B2PLYPD3) =    -0.11560377084035D+03

 The electronic state is 1-A.
 Alpha  occ. eigenvalues --  -19.75051 -10.62173  -1.10504  -0.80547  -0.55577
 Alpha  occ. eigenvalues --   -0.53524  -0.47041  -0.40228  -0.35591
 Alpha virt. eigenvalues --    0.00257   0.07522   0.12221   0.12909   0.14662
 Alpha virt. eigenvalues --    0.16888   0.18536   0.23389   0.28966   0.31886
 Alpha virt. eigenvalues --    0.34421   0.38681   0.38882   0.43372   0.45977

 Mulliken charges:
               1
     1  C    0.097028
     2  O   -0.492948
     3  H    0.055291
     4  H    0.044356
     5  H    0.062406
     6  H    0.233866
 Sum of Mulliken charges =   0.00000

 Dipole moment (field-independent basis, Debye):
    X=             -1.2250    Y=              1.7338    Z=             -0.0336  Tot=              2.1232
 Quadrupole moment (field-independent basis, Debye-Ang):
   XX=            -13.1430   YY=            -11.4414   ZZ=            -13.9200
   XY=              2.2544   XZ=              0.1550   YZ=             -0.0911

 Normal termination of Gaussian 09 at Wed Aug 26 23:51:31 2020.
