 Gaussian 09, Revision D.01,
 Gaussian 09:  ES64L-G09RevD.01 24-Apr-2013

 --------------------
 #p B2PLYPD3/Def2QZVP
 --------------------

 --------
 methanol
 --------
 Symbolic Z-matrix:
 Charge =  0 Multiplicity = 1

                         Standard orientation:
 ---------------------------------------------------------------------
 Center     Atomic      Atomic             Coordinates (Angstroms)
 Number     Number       Type             X           Y           Z
 ---------------------------------------------------------------------
      1          6           0       -0.676044   -0.031054    0.000898
      2          8           0        0.749491    0.140364   -0.003959
      3          1           0       -1.006268   -0.485197    0.870126
      4          1           0       -1.026853   -0.582077   -0.819972
      5          1           0       -1.096371    0.966239   -0.039089
      6          1           0        1.189825   -0.835554    0.015225
 ---------------------------------------------------------------------

 SCF Done:  E(RB2PLYPD3) =  -115.538375300     A.U. after   11 cycles
 E2(B2PLYPD3) =    -0.1491485658D+00 E(B2PLYPD3) =    -0.11568752386536D+03

 The electronic state is 1-A.
 Alpha  occ. eigenvalues --  -19.73265 -10.64380  -1.13606  -0.78867  -0.57145
 Alpha  occ. eigenvalues --   -0.52364  -0.49055  -0.40899  -0.35352
 Alpha virt. eigenvalues --    0.04167   0.07872   0.12426   0.12671   0.14909
 Alpha virt. eigenvalues --    0.17294   0.18159   0.29083   0.31196   0.33371
 Alpha virt. eigenvalues --    0.33633   0.38842   0.39797   0.42171   0.44296

 Mulliken charges:
               1
     1  C    0.081845
     2  O   -0.492990
     3  H    0.050953
     4  H    0.048552
     5  H    0.066258
     6  H    0.245382
 Sum of Mulliken charges =   0.00000

 Dipole moment (field-independent basis, Debye):
    X=             -0.9311    Y=             -1.6315    Z=              0.0450  Tot=              1.8790
 Quadrupole moment (field-independent basis, Debye-Ang):
   XX=            -12.8607   YY=            -12.0412   ZZ=            -13.8377
   XY=             -2.3471   XZ=              0.0487   YZ=             -0.0186

 Normal termination of Gaussian 09 at Thu Aug 27 00:11:24 2020.
