 Gaussian 09, Revision D.01,
 Gaussian 09:  ES64L-G09RevD.01 24-Apr-2013

 --------------------
 #p B2PLYPD3/Def2QZVP
 --------------------

 --------
 methanol
 --------
 Symbolic Z-matrix:
 Charge =  0 Multiplicity = 1

                         Standard orientation:
 ---------------------------------------------------------------------
 Center     Atomic      Atomic             Coordinates (Angstroms)
 Number     Number       Type             X           Y           Z
 ---------------------------------------------------------------------
      1          6           0       -0.674156   -0.035026    0.004549
      2          8           0        0.745813    0.085749   -0.018010
      3          1           0       -0.976030   -0.398649    1.019868
      4          1           0       -1.062970   -0.673781   -0.862316
      5          1           0       -1.057758    1.101554   -0.113112
      6          1           0        1.175192   -0.504959    0.072347
 ---------------------------------------------------------------------

 SCF Done:  E(RB2PLYPD3) =  -115.458783484     A.U. after   11 cycles
 E2(B2PLYPD3) =    -0.1444582345D+00 E(B2PLYPD3) =    -0.11560324171888D+03

 The electronic state is 1-A.
 Alpha  occ. eigenvalues --  -19.69720 -10.68409  -1.21865  -0.81011  -0.60989
 Alpha  occ. eigenvalues --   -0.52080  -0.49214  -0.39558  -0.36092
 Alpha virt. eigenvalues --    0.05357   0.09050   0.11703   0.11982   0.14375
 Alpha virt. eigenvalues --    0.16671   0.17996   0.28897   0.32437   0.33203
 Alpha virt. eigenvalues --    0.35760   0.38379   0.39969   0.40305   0.42296

 Mulliken charges:
               1
     1  C    0.052201
     2  O   -0.289148
     3  H    0.060113
     4  H    0.059876
     5  H    0.071467
     6  H    0.045491
 Sum of Mulliken charges =   0.00000

 Dipole moment (field-independent basis, Debye):
    X=             -0.7973    Y=             -1.2526    Z=              0.2184  Tot=              1.5008
 Quadrupole moment (field-independent basis, Debye-Ang):
   XX=            -12.8312   YY=            -12.7174   ZZ=            -13.4735
   XY=             -1.8864   XZ=              0.3342   YZ=             -0.0568

 Normal termination of Gaussian 09 at Wed Aug 26 13:43:53 2020.
