 Gaussian 09, Revision D.01,
 Gaussian 09:  ES64L-G09RevD.01 24-Apr-2013

 --------------------
 #p B2PLYPD3/Def2QZVP
 --------------------

 --------
 methanol
 --------
 Symbolic Z-matrix:
 Charge =  0 Multiplicity = 1

                         Standard orientation:
 ---------------------------------------------------------------------
 Center     Atomic      Atomic             Coordinates (Angstroms)
 Number     Number       Type             X           Y           Z
 ---------------------------------------------------------------------
      1          6           0       -0.668869   -0.040778    0.000169
      2          8           0        0.752731    0.096302   -0.015241
      3          1           0       -0.909981   -0.454161    1.000269
      4          1           0       -1.017594   -0.663837   -0.854174
      5          1           0       -1.172268    1.095058   -0.071112
      6          1           0        1.091206   -0.502802    0.045931
 ---------------------------------------------------------------------

 SCF Done:  E(RB2PLYPD3) =  -115.403685544     A.U. after   11 cycles
 E2(B2PLYPD3) =    -0.1439320896D+00 E(B2PLYPD3) =    -0.11554761763390D+03

 The electronic state is 1-A.
 Alpha  occ. eigenvalues --  -19.69390 -10.68336  -1.24312  -0.81118  -0.61605
 Alpha  occ. eigenvalues --   -0.52839  -0.49136  -0.40258  -0.36391
 Alpha virt. eigenvalues --    0.05259   0.09254   0.11555   0.11958   0.14230
 Alpha virt. eigenvalues --    0.17108   0.17690   0.28656   0.32104   0.33132
 Alpha virt. eigenvalues --    0.34138   0.39136   0.39919   0.40566   0.43375

 Mulliken charges:
               1
     1  C    0.058373
     2  O   -0.252658
     3  H    0.059228
     4  H    0.060931
     5  H    0.064943
     6  H    0.009184
 Sum of Mulliken charges =   0.00000

 Dipole moment (field-independent basis, Debye):
    X=             -0.9648    Y=             -1.3255    Z=              0.1456  Tot=              1.6459
 Quadrupole moment (field-independent basis, Debye-Ang):
   XX=            -13.1270   YY=            -12.6041   ZZ=            -13.4281
   XY=             -1.9198   XZ=              0.2856   YZ=             -0.0069

 Normal termination of Gaussian 09 at Wed Aug 26 13:05:40 2020.
