 Gaussian 09, Revision D.01,
 Gaussian 09:  ES64L-G09RevD.01 24-Apr-2013

 --------------------
 #p B2PLYPD3/Def2QZVP
 --------------------

 --------
 methanol
 --------
 Symbolic Z-matrix:
 Charge =  0 Multiplicity = 1

                         Standard orientation:
 ---------------------------------------------------------------------
 Center     Atomic      Atomic             Coordinates (Angstroms)
 Number     Number       Type             X           Y           Z
 ---------------------------------------------------------------------
      1          6           0        0.659079    0.046131    0.006719
      2          8           0       -0.707403   -0.171657   -0.018282
      3          1           0        0.816471    0.396952    0.949784
      4          1           0        0.968060    0.593616   -0.817204
      5          1           0        1.157121   -0.802679   -0.061548
      6          1           0       -1.236908    0.908577    0.034910
 ---------------------------------------------------------------------

 SCF Done:  E(RB2PLYPD3) =  -115.494038713     A.U. after   11 cycles
 E2(B2PLYPD3) =    -0.1505434109D+00 E(B2PLYPD3) =    -0.11564458212420D+03

 The electronic state is 1-A.
 Alpha  occ. eigenvalues --  -19.73421 -10.62253  -1.13836  -0.78835  -0.55255
 Alpha  occ. eigenvalues --   -0.54887  -0.50779  -0.38949  -0.34644
 Alpha virt. eigenvalues --    0.02311   0.07910   0.12355   0.13206   0.14321
 Alpha virt. eigenvalues --    0.17879   0.18328   0.26326   0.29255   0.32910
 Alpha virt. eigenvalues --    0.34752   0.40166   0.41839   0.43110   0.43889

 Mulliken charges:
               1
     1  C    0.079771
     2  O   -0.489053
     3  H    0.051062
     4  H    0.044241
     5  H    0.057271
     6  H    0.256707
 Sum of Mulliken charges =   0.00000

 Dipole moment (field-independent basis, Debye):
    X=              0.7709    Y=              1.6096    Z=              0.0908  Tot=              1.7870
 Quadrupole moment (field-independent basis, Debye-Ang):
   XX=            -12.7506   YY=            -12.1857   ZZ=            -13.5310
   XY=             -2.7624   XZ=             -0.2943   YZ=              0.0092

 Normal termination of Gaussian 09 at Wed Aug 26 22:32:59 2020.
