 Gaussian 09, Revision D.01,
 Gaussian 09:  ES64L-G09RevD.01 24-Apr-2013

 --------------------
 #p B2PLYPD3/Def2QZVP
 --------------------

 --------
 methanol
 --------
 Symbolic Z-matrix:
 Charge =  0 Multiplicity = 1

                         Standard orientation:
 ---------------------------------------------------------------------
 Center     Atomic      Atomic             Coordinates (Angstroms)
 Number     Number       Type             X           Y           Z
 ---------------------------------------------------------------------
      1          6           0       -0.664509    0.008755   -0.021893
      2          8           0        0.747151   -0.138525    0.008957
      3          1           0       -1.093758    0.443193   -0.837158
      4          1           0       -0.992018    0.661077    0.845634
      5          1           0       -1.072933   -0.919138    0.123782
      6          1           0        1.168552    0.870538   -0.072551
 ---------------------------------------------------------------------

 SCF Done:  E(RB2PLYPD3) =  -115.528052416     A.U. after   11 cycles
 E2(B2PLYPD3) =    -0.1496452643D+00 E(B2PLYPD3) =    -0.11567769768041D+03

 The electronic state is 1-A.
 Alpha  occ. eigenvalues --  -19.73754 -10.64367  -1.13988  -0.78856  -0.57552
 Alpha  occ. eigenvalues --   -0.51079  -0.50100  -0.41264  -0.34865
 Alpha virt. eigenvalues --    0.03728   0.07811   0.12569   0.12634   0.14987
 Alpha virt. eigenvalues --    0.17413   0.18256   0.28905   0.30316   0.32874
 Alpha virt. eigenvalues --    0.34457   0.38176   0.40033   0.41361   0.44562

 Mulliken charges:
               1
     1  C    0.079890
     2  O   -0.481069
     3  H    0.048924
     4  H    0.029821
     5  H    0.070727
     6  H    0.251706
 Sum of Mulliken charges =   0.00000

 Dipole moment (field-independent basis, Debye):
    X=             -0.8789    Y=              1.5730    Z=             -0.2186  Tot=              1.8151
 Quadrupole moment (field-independent basis, Debye-Ang):
   XX=            -12.9378   YY=            -11.9636   ZZ=            -13.9848
   XY=              2.4190   XZ=              0.0103   YZ=             -0.2361

 Normal termination of Gaussian 09 at Wed Aug 26 15:52:38 2020.
