 Gaussian 09, Revision D.01,
 Gaussian 09:  ES64L-G09RevD.01 24-Apr-2013

 --------------------
 #p B2PLYPD3/Def2QZVP
 --------------------

 --------
 methanol
 --------
 Symbolic Z-matrix:
 Charge =  0 Multiplicity = 1

                         Standard orientation:
 ---------------------------------------------------------------------
 Center     Atomic      Atomic             Coordinates (Angstroms)
 Number     Number       Type             X           Y           Z
 ---------------------------------------------------------------------
      1          6           0       -0.688351   -0.000103    0.038437
      2          8           0        0.757199   -0.059451   -0.042527
      3          1           0       -0.914997    1.229330   -0.284387
      4          1           0       -1.077257   -0.366607    0.957783
      5          1           0       -1.045991   -0.704262   -0.841163
      6          1           0        1.110753    0.317762    0.277358
 ---------------------------------------------------------------------

 SCF Done:  E(RB2PLYPD3) =  -115.219691061     A.U. after   11 cycles
 E2(B2PLYPD3) =    -0.1438045854D+00 E(B2PLYPD3) =    -0.11536349564634D+03

 The electronic state is 1-A.
 Alpha  occ. eigenvalues --  -19.68208 -10.69666  -1.27213  -0.82953  -0.61954
 Alpha  occ. eigenvalues --   -0.51697  -0.49766  -0.39874  -0.36259
 Alpha virt. eigenvalues --    0.04996   0.09411   0.10797   0.11939   0.13789
 Alpha virt. eigenvalues --    0.16583   0.17978   0.28449   0.29984   0.32562
 Alpha virt. eigenvalues --    0.34399   0.36603   0.40261   0.41535   0.42845

 Mulliken charges:
               1
     1  C    0.048639
     2  O   -0.176904
     3  H    0.040106
     4  H    0.081335
     5  H    0.083005
     6  H   -0.076182
 Sum of Mulliken charges =   0.00000

 Dipole moment (field-independent basis, Debye):
    X=             -1.0139    Y=              0.6843    Z=              0.8056  Tot=              1.4646
 Quadrupole moment (field-independent basis, Debye-Ang):
   XX=            -13.0780   YY=            -12.9631   ZZ=            -13.0247
   XY=              1.7289   XZ=              0.9577   YZ=              0.2195

 Normal termination of Gaussian 09 at Wed Aug 26 23:55:22 2020.
