 Gaussian 09, Revision D.01,
 Gaussian 09:  ES64L-G09RevD.01 24-Apr-2013

 --------------------
 #p B2PLYPD3/Def2QZVP
 --------------------

 --------
 methanol
 --------
 Symbolic Z-matrix:
 Charge =  0 Multiplicity = 1

                         Standard orientation:
 ---------------------------------------------------------------------
 Center     Atomic      Atomic             Coordinates (Angstroms)
 Number     Number       Type             X           Y           Z
 ---------------------------------------------------------------------
      1          6           0       -0.672639   -0.021062    0.002638
      2          8           0        0.757640    0.104091   -0.002189
      3          1           0       -1.048782   -0.529228    0.923460
      4          1           0       -1.021654   -0.577395   -0.918738
      5          1           0       -1.113886    1.022813   -0.025217
      6          1           0        1.159036   -0.622546    0.022175
 ---------------------------------------------------------------------

 SCF Done:  E(RB2PLYPD3) =  -115.529763816     A.U. after   10 cycles
 E2(B2PLYPD3) =    -0.1455906261D+00 E(B2PLYPD3) =    -0.11567535444226D+03

 The electronic state is 1-A.
 Alpha  occ. eigenvalues --  -19.71202 -10.67292  -1.18743  -0.79565  -0.60059
 Alpha  occ. eigenvalues --   -0.51365  -0.49795  -0.40709  -0.35769
 Alpha virt. eigenvalues --    0.05390   0.08568   0.12118   0.12222   0.14575
 Alpha virt. eigenvalues --    0.17166   0.17993   0.28998   0.32457   0.33276
 Alpha virt. eigenvalues --    0.36991   0.38961   0.39453   0.39879   0.42781

 Mulliken charges:
               1
     1  C    0.064779
     2  O   -0.394182
     3  H    0.053586
     4  H    0.051171
     5  H    0.074915
     6  H    0.149731
 Sum of Mulliken charges =   0.00000

 Dipole moment (field-independent basis, Debye):
    X=             -0.8965    Y=             -1.3626    Z=              0.0588  Tot=              1.6321
 Quadrupole moment (field-independent basis, Debye-Ang):
   XX=            -12.8345   YY=            -12.5237   ZZ=            -13.6919
   XY=             -2.1671   XZ=              0.0260   YZ=             -0.0423

 Normal termination of Gaussian 09 at Wed Aug 26 10:09:45 2020.
