 Gaussian 09, Revision D.01,
 Gaussian 09:  ES64L-G09RevD.01 24-Apr-2013

 --------------------
 #p B2PLYPD3/Def2QZVP
 --------------------

 --------
 methanol
 --------
 Symbolic Z-matrix:
 Charge =  0 Multiplicity = 1

                         Standard orientation:
 ---------------------------------------------------------------------
 Center     Atomic      Atomic             Coordinates (Angstroms)
 Number     Number       Type             X           Y           Z
 ---------------------------------------------------------------------
      1          6           0        0.666609    0.018935    0.000910
      2          8           0       -0.746861   -0.146807   -0.008366
      3          1           0        1.049518    0.434368    0.900172
      4          1           0        1.015169    0.628418   -0.828470
      5          1           0        1.116857   -0.882007   -0.073038
      6          1           0       -1.206313    0.880069    0.062803
 ---------------------------------------------------------------------

 SCF Done:  E(RB2PLYPD3) =  -115.525638035     A.U. after   11 cycles
 E2(B2PLYPD3) =    -0.1500768326D+00 E(B2PLYPD3) =    -0.11567571486718D+03

 The electronic state is 1-A.
 Alpha  occ. eigenvalues --  -19.73832 -10.64141  -1.13353  -0.78847  -0.56301
 Alpha  occ. eigenvalues --   -0.51661  -0.50261  -0.40610  -0.35077
 Alpha virt. eigenvalues --    0.03430   0.07684   0.12539   0.12883   0.14778
 Alpha virt. eigenvalues --    0.17565   0.18385   0.28344   0.29741   0.33383
 Alpha virt. eigenvalues --    0.33877   0.38958   0.40806   0.41467   0.43298

 Mulliken charges:
               1
     1  C    0.079520
     2  O   -0.492159
     3  H    0.045645
     4  H    0.042211
     5  H    0.069021
     6  H    0.255763
 Sum of Mulliken charges =   0.00000

 Dipole moment (field-independent basis, Debye):
    X=              0.8733    Y=              1.5849    Z=              0.1301  Tot=              1.8143
 Quadrupole moment (field-independent basis, Debye-Ang):
   XX=            -12.7498   YY=            -12.0776   ZZ=            -13.8967
   XY=             -2.5548   XZ=             -0.1155   YZ=              0.0818

 Normal termination of Gaussian 09 at Wed Aug 26 23:05:01 2020.
