 Gaussian 09, Revision D.01,
 Gaussian 09:  ES64L-G09RevD.01 24-Apr-2013

 --------------------
 #p B2PLYPD3/Def2QZVP
 --------------------

 --------
 methanol
 --------
 Symbolic Z-matrix:
 Charge =  0 Multiplicity = 1

                         Standard orientation:
 ---------------------------------------------------------------------
 Center     Atomic      Atomic             Coordinates (Angstroms)
 Number     Number       Type             X           Y           Z
 ---------------------------------------------------------------------
      1          6           0        0.662360    0.036371    0.015743
      2          8           0       -0.743639   -0.158493   -0.018810
      3          1           0        1.052764    0.363992    0.833859
      4          1           0        1.082431    0.637633   -0.784290
      5          1           0        1.057264   -0.924173   -0.085956
      6          1           0       -1.217503    0.972266    0.092410
 ---------------------------------------------------------------------

 SCF Done:  E(RB2PLYPD3) =  -115.491770433     A.U. after   11 cycles
 E2(B2PLYPD3) =    -0.1523066688D+00 E(B2PLYPD3) =    -0.11564407710152D+03

 The electronic state is 1-A.
 Alpha  occ. eigenvalues --  -19.74741 -10.63240  -1.12704  -0.79312  -0.55998
 Alpha  occ. eigenvalues --   -0.52173  -0.48999  -0.40269  -0.35410
 Alpha virt. eigenvalues --    0.01910   0.07516   0.12500   0.12890   0.15130
 Alpha virt. eigenvalues --    0.17160   0.18700   0.25491   0.29368   0.33892
 Alpha virt. eigenvalues --    0.34426   0.38392   0.39090   0.42057   0.45078

 Mulliken charges:
               1
     1  C    0.081558
     2  O   -0.484325
     3  H    0.051671
     4  H    0.041466
     5  H    0.058782
     6  H    0.250847
 Sum of Mulliken charges =   0.00000

 Dipole moment (field-independent basis, Debye):
    X=              0.9131    Y=              1.6662    Z=              0.2656  Tot=              1.9185
 Quadrupole moment (field-independent basis, Debye-Ang):
   XX=            -12.8211   YY=            -11.8532   ZZ=            -13.9668
   XY=             -2.3995   XZ=             -0.1087   YZ=              0.1629

 Normal termination of Gaussian 09 at Wed Aug 26 16:36:44 2020.
