 Gaussian 09, Revision D.01,
 Gaussian 09:  ES64L-G09RevD.01 24-Apr-2013

 --------------------
 #p B2PLYPD3/Def2QZVP
 --------------------

 --------
 methanol
 --------
 Symbolic Z-matrix:
 Charge =  0 Multiplicity = 1

                         Standard orientation:
 ---------------------------------------------------------------------
 Center     Atomic      Atomic             Coordinates (Angstroms)
 Number     Number       Type             X           Y           Z
 ---------------------------------------------------------------------
      1          6           0        0.670624    0.041115   -0.011871
      2          8           0       -0.732875   -0.183957   -0.018872
      3          1           0        0.835187    0.338533    0.926122
      4          1           0        1.007370    0.673962   -0.676671
      5          1           0        1.187950   -0.820665   -0.078667
      6          1           0       -1.191255    1.033139    0.051420
 ---------------------------------------------------------------------

 SCF Done:  E(RB2PLYPD3) =  -115.465189324     A.U. after   11 cycles
 E2(B2PLYPD3) =    -0.1532248135D+00 E(B2PLYPD3) =    -0.11561841413735D+03

 The electronic state is 1-A.
 Alpha  occ. eigenvalues --  -19.74443 -10.61888  -1.12095  -0.79647  -0.55477
 Alpha  occ. eigenvalues --   -0.53533  -0.49308  -0.39863  -0.34787
 Alpha virt. eigenvalues --    0.00584   0.07654   0.12433   0.13101   0.14280
 Alpha virt. eigenvalues --    0.17775   0.18601   0.24014   0.29610   0.32697
 Alpha virt. eigenvalues --    0.34295   0.40048   0.40718   0.42378   0.44563

 Mulliken charges:
               1
     1  C    0.099155
     2  O   -0.490673
     3  H    0.051437
     4  H    0.040498
     5  H    0.052664
     6  H    0.246919
 Sum of Mulliken charges =   0.00000

 Dipole moment (field-independent basis, Debye):
    X=              1.0452    Y=              1.7472    Z=              0.1163  Tot=              2.0393
 Quadrupole moment (field-independent basis, Debye-Ang):
   XX=            -13.0198   YY=            -11.6601   ZZ=            -13.8091
   XY=             -2.5690   XZ=             -0.3014   YZ=             -0.0493

 Normal termination of Gaussian 09 at Wed Aug 26 22:44:58 2020.
