 Gaussian 09, Revision D.01,
 Gaussian 09:  ES64L-G09RevD.01 24-Apr-2013

 --------------------
 #p B2PLYPD3/Def2QZVP
 --------------------

 --------
 methanol
 --------
 Symbolic Z-matrix:
 Charge =  0 Multiplicity = 1

                         Standard orientation:
 ---------------------------------------------------------------------
 Center     Atomic      Atomic             Coordinates (Angstroms)
 Number     Number       Type             X           Y           Z
 ---------------------------------------------------------------------
      1          6           0        0.661425    0.005514   -0.014225
      2          8           0       -0.730345   -0.143473    0.009518
      3          1           0        1.026481    0.576169    0.878152
      4          1           0        0.984904    0.540684   -0.848931
      5          1           0        1.056419   -0.882964    0.010168
      6          1           0       -1.193588    0.880811   -0.030185
 ---------------------------------------------------------------------

 SCF Done:  E(RB2PLYPD3) =  -115.519715144     A.U. after   11 cycles
 E2(B2PLYPD3) =    -0.1495684063D+00 E(B2PLYPD3) =    -0.11566928355042D+03

 The electronic state is 1-A.
 Alpha  occ. eigenvalues --  -19.73550 -10.63679  -1.14146  -0.78848  -0.57341
 Alpha  occ. eigenvalues --   -0.51513  -0.50947  -0.40856  -0.34528
 Alpha virt. eigenvalues --    0.03369   0.07919   0.12577   0.12855   0.14979
 Alpha virt. eigenvalues --    0.17420   0.18055   0.28540   0.29851   0.33050
 Alpha virt. eigenvalues --    0.34750   0.38627   0.40905   0.41696   0.43915

 Mulliken charges:
               1
     1  C    0.081229
     2  O   -0.485978
     3  H    0.032785
     4  H    0.041786
     5  H    0.075291
     6  H    0.254887
 Sum of Mulliken charges =   0.00000

 Dipole moment (field-independent basis, Debye):
    X=              0.7900    Y=              1.5654    Z=             -0.1406  Tot=              1.7591
 Quadrupole moment (field-independent basis, Debye-Ang):
   XX=            -12.9111   YY=            -11.9045   ZZ=            -13.9267
   XY=             -2.5412   XZ=              0.0202   YZ=             -0.1241

 Normal termination of Gaussian 09 at Wed Aug 26 14:09:49 2020.
