 Gaussian 09, Revision D.01,
 Gaussian 09:  ES64L-G09RevD.01 24-Apr-2013

 --------------------
 #p B2PLYPD3/Def2QZVP
 --------------------

 --------
 methanol
 --------
 Symbolic Z-matrix:
 Charge =  0 Multiplicity = 1

                         Standard orientation:
 ---------------------------------------------------------------------
 Center     Atomic      Atomic             Coordinates (Angstroms)
 Number     Number       Type             X           Y           Z
 ---------------------------------------------------------------------
      1          6           0       -0.659089   -0.011288    0.002918
      2          8           0        0.765008    0.086801   -0.009134
      3          1           0       -1.030601   -0.538223    0.953305
      4          1           0       -1.141590   -0.552747   -0.923319
      5          1           0       -1.053672    1.066165    0.014786
      6          1           0        1.060330   -0.601876    0.010792
 ---------------------------------------------------------------------

 SCF Done:  E(RB2PLYPD3) =  -115.476133256     A.U. after   10 cycles
 E2(B2PLYPD3) =    -0.1449246276D+00 E(B2PLYPD3) =    -0.11562105788381D+03

 The electronic state is 1-A.
 Alpha  occ. eigenvalues --  -19.70916 -10.68243  -1.22544  -0.79859  -0.61208
 Alpha  occ. eigenvalues --   -0.50928  -0.49893  -0.41588  -0.36079
 Alpha virt. eigenvalues --    0.05345   0.08779   0.11893   0.11957   0.14739
 Alpha virt. eigenvalues --    0.17059   0.18040   0.28665   0.32300   0.33236
 Alpha virt. eigenvalues --    0.36388   0.38334   0.38828   0.40161   0.42490

 Mulliken charges:
               1
     1  C    0.049580
     2  O   -0.292807
     3  H    0.050215
     4  H    0.048044
     5  H    0.075078
     6  H    0.069890
 Sum of Mulliken charges =   0.00000

 Dipole moment (field-independent basis, Debye):
    X=             -0.9657    Y=             -1.2799    Z=              0.0723  Tot=              1.6050
 Quadrupole moment (field-independent basis, Debye-Ang):
   XX=            -13.2252   YY=            -12.4560   ZZ=            -13.7205
   XY=             -1.9168   XZ=              0.1053   YZ=             -0.0315

 Normal termination of Gaussian 09 at Wed Aug 26 16:33:39 2020.
