 Gaussian 09, Revision D.01,
 Gaussian 09:  ES64L-G09RevD.01 24-Apr-2013

 --------------------
 #p B2PLYPD3/Def2QZVP
 --------------------

 --------
 methanol
 --------
 Symbolic Z-matrix:
 Charge =  0 Multiplicity = 1

                         Standard orientation:
 ---------------------------------------------------------------------
 Center     Atomic      Atomic             Coordinates (Angstroms)
 Number     Number       Type             X           Y           Z
 ---------------------------------------------------------------------
      1          6           0       -0.668686   -0.016372    0.003659
      2          8           0        0.759975    0.095953   -0.007329
      3          1           0       -1.027156   -0.540519    0.918421
      4          1           0       -1.093672   -0.552198   -0.909503
      5          1           0       -1.043534    1.061780    0.010531
      6          1           0        1.096673   -0.638453    0.017227
 ---------------------------------------------------------------------

 SCF Done:  E(RB2PLYPD3) =  -115.519746030     A.U. after   10 cycles
 E2(B2PLYPD3) =    -0.1454137604D+00 E(B2PLYPD3) =    -0.11566515978994D+03

 The electronic state is 1-A.
 Alpha  occ. eigenvalues --  -19.71198 -10.67354  -1.19914  -0.79518  -0.60541
 Alpha  occ. eigenvalues --   -0.51260  -0.49487  -0.41475  -0.35913
 Alpha virt. eigenvalues --    0.05360   0.08705   0.11989   0.12128   0.14828
 Alpha virt. eigenvalues --    0.16982   0.17978   0.28924   0.32509   0.33313
 Alpha virt. eigenvalues --    0.37256   0.38629   0.39578   0.39986   0.42439

 Mulliken charges:
               1
     1  C    0.058665
     2  O   -0.363244
     3  H    0.053106
     4  H    0.050708
     5  H    0.073370
     6  H    0.127395
 Sum of Mulliken charges =   0.00000

 Dipole moment (field-independent basis, Debye):
    X=             -0.9504    Y=             -1.3697    Z=              0.0769  Tot=              1.6689
 Quadrupole moment (field-independent basis, Debye-Ang):
   XX=            -13.1501   YY=            -12.3507   ZZ=            -13.7180
   XY=             -1.9773   XZ=              0.0817   YZ=             -0.0418

 Normal termination of Gaussian 09 at Wed Aug 26 23:58:57 2020.
