 Gaussian 09, Revision D.01,
 Gaussian 09:  ES64L-G09RevD.01 24-Apr-2013

 --------------------
 #p B2PLYPD3/Def2QZVP
 --------------------

 --------
 methanol
 --------
 Symbolic Z-matrix:
 Charge =  0 Multiplicity = 1

                         Standard orientation:
 ---------------------------------------------------------------------
 Center     Atomic      Atomic             Coordinates (Angstroms)
 Number     Number       Type             X           Y           Z
 ---------------------------------------------------------------------
      1          6           0       -0.679698    0.016790    0.003150
      2          8           0        0.749635   -0.133308   -0.020770
      3          1           0       -1.152326    0.630915   -0.747871
      4          1           0       -0.902717    0.451101    0.873707
      5          1           0       -0.989471   -1.008499   -0.019009
      6          1           0        1.125625    0.892207    0.040432
 ---------------------------------------------------------------------

 SCF Done:  E(RB2PLYPD3) =  -115.526174265     A.U. after   11 cycles
 E2(B2PLYPD3) =    -0.1499882069D+00 E(B2PLYPD3) =    -0.11567616247187D+03

 The electronic state is 1-A.
 Alpha  occ. eigenvalues --  -19.73476 -10.64130  -1.13527  -0.78769  -0.57705
 Alpha  occ. eigenvalues --   -0.52041  -0.48219  -0.41663  -0.35131
 Alpha virt. eigenvalues --    0.03838   0.07933   0.12068   0.12783   0.15096
 Alpha virt. eigenvalues --    0.16848   0.18098   0.28828   0.30692   0.32612
 Alpha virt. eigenvalues --    0.34242   0.38684   0.39507   0.40690   0.45048

 Mulliken charges:
               1
     1  C    0.076356
     2  O   -0.485357
     3  H    0.044667
     4  H    0.051662
     5  H    0.070495
     6  H    0.242177
 Sum of Mulliken charges =   0.00000

 Dipole moment (field-independent basis, Debye):
    X=             -1.0154    Y=              1.6472    Z=              0.1859  Tot=              1.9439
 Quadrupole moment (field-independent basis, Debye-Ang):
   XX=            -13.2999   YY=            -11.6637   ZZ=            -13.9609
   XY=              2.1047   XZ=              0.2162   YZ=              0.0815

 Normal termination of Gaussian 09 at Wed Aug 26 22:30:42 2020.
