 Gaussian 09, Revision D.01,
 Gaussian 09:  ES64L-G09RevD.01 24-Apr-2013

 --------------------
 #p B2PLYPD3/Def2QZVP
 --------------------

 --------
 methanol
 --------
 Symbolic Z-matrix:
 Charge =  0 Multiplicity = 1

                         Standard orientation:
 ---------------------------------------------------------------------
 Center     Atomic      Atomic             Coordinates (Angstroms)
 Number     Number       Type             X           Y           Z
 ---------------------------------------------------------------------
      1          6           0        0.654976   -0.018200    0.005328
      2          8           0       -0.743518    0.103893   -0.012288
      3          1           0        1.027634   -0.694726   -0.838832
      4          1           0        1.015993   -0.394017    0.979646
      5          1           0        1.081826    1.009530   -0.141524
      6          1           0       -1.107160   -0.642730    0.067047
 ---------------------------------------------------------------------

 SCF Done:  E(RB2PLYPD3) =  -115.532618958     A.U. after   10 cycles
 E2(B2PLYPD3) =    -0.1452541175D+00 E(B2PLYPD3) =    -0.11567787307594D+03

 The electronic state is 1-A.
 Alpha  occ. eigenvalues --  -19.71401 -10.66794  -1.19838  -0.79486  -0.60535
 Alpha  occ. eigenvalues --   -0.51823  -0.50328  -0.40893  -0.35608
 Alpha virt. eigenvalues --    0.05351   0.08756   0.12101   0.12328   0.14739
 Alpha virt. eigenvalues --    0.17192   0.17992   0.28925   0.33064   0.33842
 Alpha virt. eigenvalues --    0.37198   0.38914   0.39676   0.40487   0.43208

 Mulliken charges:
               1
     1  C    0.061576
     2  O   -0.380244
     3  H    0.042720
     4  H    0.050777
     5  H    0.071667
     6  H    0.153503
 Sum of Mulliken charges =   0.00000

 Dipole moment (field-independent basis, Debye):
    X=              0.8226    Y=             -1.3561    Z=              0.1795  Tot=              1.5962
 Quadrupole moment (field-independent basis, Debye-Ang):
   XX=            -13.1007   YY=            -12.4396   ZZ=            -13.6744
   XY=              2.1138   XZ=             -0.1935   YZ=             -0.1140

 Normal termination of Gaussian 09 at Wed Aug 26 14:18:02 2020.
