 Gaussian 09, Revision D.01,
 Gaussian 09:  ES64L-G09RevD.01 24-Apr-2013

 --------------------
 #p B2PLYPD3/Def2QZVP
 --------------------

 --------
 methanol
 --------
 Symbolic Z-matrix:
 Charge =  0 Multiplicity = 1

                         Standard orientation:
 ---------------------------------------------------------------------
 Center     Atomic      Atomic             Coordinates (Angstroms)
 Number     Number       Type             X           Y           Z
 ---------------------------------------------------------------------
      1          6           0       -0.655357    0.011632    0.002727
      2          8           0        0.743731   -0.141024   -0.008472
      3          1           0       -1.043610    0.592777   -0.829506
      4          1           0       -1.016175    0.486511    0.865315
      5          1           0       -1.081825   -0.916381   -0.025943
      6          1           0        1.123903    0.895499    0.041546
 ---------------------------------------------------------------------

 SCF Done:  E(RB2PLYPD3) =  -115.530544048     A.U. after   11 cycles
 E2(B2PLYPD3) =    -0.1495660732D+00 E(B2PLYPD3) =    -0.11568011012166D+03

 The electronic state is 1-A.
 Alpha  occ. eigenvalues --  -19.73827 -10.63993  -1.14410  -0.78712  -0.57358
 Alpha  occ. eigenvalues --   -0.51669  -0.50209  -0.41261  -0.35015
 Alpha virt. eigenvalues --    0.03618   0.07892   0.12603   0.12706   0.15018
 Alpha virt. eigenvalues --    0.17587   0.18184   0.28746   0.30058   0.33359
 Alpha virt. eigenvalues --    0.34590   0.39041   0.40504   0.41363   0.43915

 Mulliken charges:
               1
     1  C    0.081130
     2  O   -0.478740
     3  H    0.037406
     4  H    0.040904
     5  H    0.067742
     6  H    0.251558
 Sum of Mulliken charges =   0.00000

 Dipole moment (field-independent basis, Debye):
    X=             -0.9206    Y=              1.6071    Z=              0.1182  Tot=              1.8558
 Quadrupole moment (field-independent basis, Debye-Ang):
   XX=            -13.1351   YY=            -11.8632   ZZ=            -13.9415
   XY=              2.3545   XZ=              0.0756   YZ=              0.0755

 Normal termination of Gaussian 09 at Thu Aug 27 00:03:24 2020.
