 Gaussian 09, Revision D.01,
 Gaussian 09:  ES64L-G09RevD.01 24-Apr-2013

 --------------------
 #p B2PLYPD3/Def2QZVP
 --------------------

 --------
 methanol
 --------
 Symbolic Z-matrix:
 Charge =  0 Multiplicity = 1

                         Standard orientation:
 ---------------------------------------------------------------------
 Center     Atomic      Atomic             Coordinates (Angstroms)
 Number     Number       Type             X           Y           Z
 ---------------------------------------------------------------------
      1          6           0        0.658782   -0.018924   -0.004537
      2          8           0       -0.741232    0.111456    0.004624
      3          1           0        0.991412   -0.554936   -0.908444
      4          1           0        1.006080   -0.574043    0.914362
      5          1           0        1.122144    0.999856    0.003600
      6          1           0       -1.142470   -0.648981   -0.019288
 ---------------------------------------------------------------------

 SCF Done:  E(RB2PLYPD3) =  -115.541070462     A.U. after   10 cycles
 E2(B2PLYPD3) =    -0.1455202506D+00 E(B2PLYPD3) =    -0.11568659071223D+03

 The electronic state is 1-A.
 Alpha  occ. eigenvalues --  -19.71475 -10.66579  -1.18799  -0.79349  -0.60171
 Alpha  occ. eigenvalues --   -0.51820  -0.50443  -0.40632  -0.35394
 Alpha virt. eigenvalues --    0.05317   0.08631   0.12214   0.12380   0.14688
 Alpha virt. eigenvalues --    0.17338   0.17845   0.29053   0.33006   0.33774
 Alpha virt. eigenvalues --    0.36936   0.39138   0.39734   0.40360   0.43471

 Mulliken charges:
               1
     1  C    0.067268
     2  O   -0.407574
     3  H    0.047621
     4  H    0.044377
     5  H    0.073417
     6  H    0.174891
 Sum of Mulliken charges =   0.00000

 Dipole moment (field-independent basis, Debye):
    X=              0.7958    Y=             -1.3923    Z=             -0.0716  Tot=              1.6052
 Quadrupole moment (field-independent basis, Debye-Ang):
   XX=            -12.9432   YY=            -12.4446   ZZ=            -13.7193
   XY=              2.2337   XZ=              0.0399   YZ=              0.0507

 Normal termination of Gaussian 09 at Thu Aug 27 00:15:12 2020.
