 Gaussian 09, Revision D.01,
 Gaussian 09:  ES64L-G09RevD.01 24-Apr-2013

 --------------------
 #p B2PLYPD3/Def2QZVP
 --------------------

 --------
 methanol
 --------
 Symbolic Z-matrix:
 Charge =  0 Multiplicity = 1

                         Standard orientation:
 ---------------------------------------------------------------------
 Center     Atomic      Atomic             Coordinates (Angstroms)
 Number     Number       Type             X           Y           Z
 ---------------------------------------------------------------------
      1          6           0       -0.669001    0.018589    0.011672
      2          8           0        0.751791   -0.083846   -0.022013
      3          1           0       -0.911585    0.963039   -0.680421
      4          1           0       -1.086117    0.098476    1.061304
      5          1           0       -1.093933   -0.966433   -0.462920
      6          1           0        1.091308    0.464150    0.188107
 ---------------------------------------------------------------------

 SCF Done:  E(RB2PLYPD3) =  -115.385413710     A.U. after   11 cycles
 E2(B2PLYPD3) =    -0.1439065767D+00 E(B2PLYPD3) =    -0.11552932028689D+03

 The electronic state is 1-A.
 Alpha  occ. eigenvalues --  -19.69345 -10.68811  -1.24895  -0.81398  -0.61399
 Alpha  occ. eigenvalues --   -0.51833  -0.50025  -0.40512  -0.36068
 Alpha virt. eigenvalues --    0.05271   0.09235   0.11613   0.11947   0.14139
 Alpha virt. eigenvalues --    0.16926   0.17765   0.28561   0.31744   0.33212
 Alpha virt. eigenvalues --    0.36027   0.37570   0.39062   0.40627   0.42932

 Mulliken charges:
               1
     1  C    0.051450
     2  O   -0.234758
     3  H    0.045922
     4  H    0.060084
     5  H    0.078540
     6  H   -0.001237
 Sum of Mulliken charges =   0.00000

 Dipole moment (field-independent basis, Debye):
    X=             -0.9334    Y=              1.0910    Z=              0.4713  Tot=              1.5112
 Quadrupole moment (field-independent basis, Debye-Ang):
   XX=            -13.1494   YY=            -12.7180   ZZ=            -13.3655
   XY=              1.9477   XZ=              0.4947   YZ=              0.2667

 Normal termination of Gaussian 09 at Wed Aug 26 15:45:12 2020.
