 Gaussian 09, Revision D.01,
 Gaussian 09:  ES64L-G09RevD.01 24-Apr-2013

 --------------------
 #p B2PLYPD3/Def2QZVP
 --------------------

 --------
 methanol
 --------
 Symbolic Z-matrix:
 Charge =  0 Multiplicity = 1

                         Standard orientation:
 ---------------------------------------------------------------------
 Center     Atomic      Atomic             Coordinates (Angstroms)
 Number     Number       Type             X           Y           Z
 ---------------------------------------------------------------------
      1          6           0       -0.650110    0.021004   -0.025537
      2          8           0        0.737896   -0.186386    0.001341
      3          1           0       -1.074241    0.525480   -0.694834
      4          1           0       -1.073243    0.521346    0.761695
      5          1           0       -1.038339   -0.868562    0.056696
      6          1           0        1.183313    1.186799    0.018938
 ---------------------------------------------------------------------

 SCF Done:  E(RB2PLYPD3) =  -115.414873234     A.U. after   11 cycles
 E2(B2PLYPD3) =    -0.1567684474D+00 E(B2PLYPD3) =    -0.11557164168176D+03

 The electronic state is 1-A.
 Alpha  occ. eigenvalues --  -19.76016 -10.61376  -1.12487  -0.80996  -0.56674
 Alpha  occ. eigenvalues --   -0.51387  -0.49409  -0.39650  -0.35002
 Alpha virt. eigenvalues --   -0.02399   0.07360   0.12419   0.13402   0.15093
 Alpha virt. eigenvalues --    0.17429   0.18501   0.21603   0.29853   0.33768
 Alpha virt. eigenvalues --    0.35104   0.37946   0.38990   0.42483   0.46002

 Mulliken charges:
               1
     1  C    0.106718
     2  O   -0.461768
     3  H    0.040889
     4  H    0.028273
     5  H    0.056799
     6  H    0.229088
 Sum of Mulliken charges =   0.00000

 Dipole moment (field-independent basis, Debye):
    X=             -1.1020    Y=              1.7774    Z=             -0.0031  Tot=              2.0913
 Quadrupole moment (field-independent basis, Debye-Ang):
   XX=            -13.0949   YY=            -11.1315   ZZ=            -14.2843
   XY=              2.2400   XZ=              0.0522   YZ=             -0.0990

 Normal termination of Gaussian 09 at Wed Aug 26 23:53:47 2020.
