 Gaussian 09, Revision D.01,
 Gaussian 09:  ES64L-G09RevD.01 24-Apr-2013

 --------------------
 #p B2PLYPD3/Def2QZVP
 --------------------

 --------
 methanol
 --------
 Symbolic Z-matrix:
 Charge =  0 Multiplicity = 1

                         Standard orientation:
 ---------------------------------------------------------------------
 Center     Atomic      Atomic             Coordinates (Angstroms)
 Number     Number       Type             X           Y           Z
 ---------------------------------------------------------------------
      1          6           0        0.661625   -0.019359   -0.003037
      2          8           0       -0.751622    0.117356   -0.005180
      3          1           0        1.016302   -0.626974   -0.855371
      4          1           0        1.059374   -0.439533    0.941672
      5          1           0        1.087306    0.977928   -0.080282
      6          1           0       -1.119754   -0.734114    0.053642
 ---------------------------------------------------------------------

 SCF Done:  E(RB2PLYPD3) =  -115.552064798     A.U. after   10 cycles
 E2(B2PLYPD3) =    -0.1468727235D+00 E(B2PLYPD3) =    -0.11569893752126D+03

 The electronic state is 1-A.
 Alpha  occ. eigenvalues --  -19.72432 -10.65963  -1.16931  -0.78778  -0.59051
 Alpha  occ. eigenvalues --   -0.51688  -0.49975  -0.41163  -0.35513
 Alpha virt. eigenvalues --    0.05097   0.08307   0.12254   0.12486   0.14779
 Alpha virt. eigenvalues --    0.17324   0.18203   0.29028   0.33242   0.33486
 Alpha virt. eigenvalues --    0.35856   0.38699   0.39961   0.40587   0.43797

 Mulliken charges:
               1
     1  C    0.066324
     2  O   -0.444153
     3  H    0.047447
     4  H    0.047426
     5  H    0.070419
     6  H    0.212536
 Sum of Mulliken charges =   0.00000

 Dipole moment (field-independent basis, Debye):
    X=              0.8949    Y=             -1.4595    Z=              0.0970  Tot=              1.7148
 Quadrupole moment (field-independent basis, Debye-Ang):
   XX=            -13.0668   YY=            -12.2972   ZZ=            -13.7642
   XY=              2.2296   XZ=             -0.1175   YZ=             -0.0471

 Normal termination of Gaussian 09 at Thu Aug 27 00:00:12 2020.
