 Gaussian 09, Revision D.01,
 Gaussian 09:  ES64L-G09RevD.01 24-Apr-2013

 --------------------
 #p B2PLYPD3/Def2QZVP
 --------------------

 --------
 methanol
 --------
 Symbolic Z-matrix:
 Charge =  0 Multiplicity = 1

                         Standard orientation:
 ---------------------------------------------------------------------
 Center     Atomic      Atomic             Coordinates (Angstroms)
 Number     Number       Type             X           Y           Z
 ---------------------------------------------------------------------
      1          6           0        0.670200   -0.018535    0.006792
      2          8           0       -0.747893    0.096637   -0.003908
      3          1           0        1.028427   -0.593140   -0.914762
      4          1           0        1.044755   -0.523345    0.919735
      5          1           0        1.045698    1.060292   -0.039751
      6          1           0       -1.156936   -0.605690    0.025292
 ---------------------------------------------------------------------

 SCF Done:  E(RB2PLYPD3) =  -115.521591124     A.U. after   10 cycles
 E2(B2PLYPD3) =    -0.1452027366D+00 E(B2PLYPD3) =    -0.11566679386032D+03

 The electronic state is 1-A.
 Alpha  occ. eigenvalues --  -19.70883 -10.67336  -1.19523  -0.79851  -0.60534
 Alpha  occ. eigenvalues --   -0.51397  -0.49768  -0.40685  -0.35643
 Alpha virt. eigenvalues --    0.05389   0.08757   0.12028   0.12163   0.14781
 Alpha virt. eigenvalues --    0.16856   0.17891   0.29040   0.32911   0.33282
 Alpha virt. eigenvalues --    0.37363   0.38739   0.39697   0.40081   0.42288

 Mulliken charges:
               1
     1  C    0.061224
     2  O   -0.372521
     3  H    0.048096
     4  H    0.054674
     5  H    0.075969
     6  H    0.132559
 Sum of Mulliken charges =   0.00000

 Dipole moment (field-independent basis, Debye):
    X=              0.8209    Y=             -1.3425    Z=              0.0886  Tot=              1.5761
 Quadrupole moment (field-independent basis, Debye-Ang):
   XX=            -12.9212   YY=            -12.4469   ZZ=            -13.6992
   XY=              2.0529   XZ=             -0.0246   YZ=             -0.0748

 Normal termination of Gaussian 09 at Wed Aug 26 14:52:44 2020.
