 Gaussian 09, Revision D.01,
 Gaussian 09:  ES64L-G09RevD.01 24-Apr-2013

 --------------------
 #p B2PLYPD3/Def2QZVP
 --------------------

 --------
 methanol
 --------
 Symbolic Z-matrix:
 Charge =  0 Multiplicity = 1

                         Standard orientation:
 ---------------------------------------------------------------------
 Center     Atomic      Atomic             Coordinates (Angstroms)
 Number     Number       Type             X           Y           Z
 ---------------------------------------------------------------------
      1          6           0       -0.664304   -0.000112    0.015830
      2          8           0        0.742742    0.076705   -0.021470
      3          1           0       -0.977590   -0.352716    1.046929
      4          1           0       -1.011427   -0.787099   -0.850928
      5          1           0       -1.039577    1.023724   -0.227903
      6          1           0        1.072476   -0.496878    0.108681
 ---------------------------------------------------------------------

 SCF Done:  E(RB2PLYPD3) =  -115.381983120     A.U. after   11 cycles
 E2(B2PLYPD3) =    -0.1434774467D+00 E(B2PLYPD3) =    -0.11552546056660D+03

 The electronic state is 1-A.
 Alpha  occ. eigenvalues --  -19.69230 -10.68358  -1.25391  -0.81979  -0.61460
 Alpha  occ. eigenvalues --   -0.51715  -0.50983  -0.41037  -0.35660
 Alpha virt. eigenvalues --    0.05333   0.09431   0.11571   0.12098   0.14343
 Alpha virt. eigenvalues --    0.16826   0.17518   0.28567   0.32327   0.32939
 Alpha virt. eigenvalues --    0.36333   0.38834   0.39390   0.40865   0.42840

 Mulliken charges:
               1
     1  C    0.054887
     2  O   -0.227584
     3  H    0.053152
     4  H    0.035636
     5  H    0.088614
     6  H   -0.004704
 Sum of Mulliken charges =   0.00000

 Dipole moment (field-independent basis, Debye):
    X=             -0.8859    Y=             -1.0842    Z=              0.3443  Tot=              1.4418
 Quadrupole moment (field-independent basis, Debye-Ang):
   XX=            -13.2966   YY=            -12.5337   ZZ=            -13.4182
   XY=             -1.9582   XZ=              0.3515   YZ=             -0.2846

 Normal termination of Gaussian 09 at Wed Aug 26 11:53:18 2020.
