 Gaussian 09, Revision D.01,
 Gaussian 09:  ES64L-G09RevD.01 24-Apr-2013

 --------------------
 #p B2PLYPD3/Def2QZVP
 --------------------

 --------
 methanol
 --------
 Symbolic Z-matrix:
 Charge =  0 Multiplicity = 1

                         Standard orientation:
 ---------------------------------------------------------------------
 Center     Atomic      Atomic             Coordinates (Angstroms)
 Number     Number       Type             X           Y           Z
 ---------------------------------------------------------------------
      1          6           0        0.675111   -0.012072    0.010803
      2          8           0       -0.764846    0.089680   -0.014682
      3          1           0        1.117855   -0.732433   -0.801455
      4          1           0        1.012384   -0.352282    0.994220
      5          1           0        1.037045    1.056231   -0.186423
      6          1           0       -1.099182   -0.616526    0.046299
 ---------------------------------------------------------------------

 SCF Done:  E(RB2PLYPD3) =  -115.503372584     A.U. after   10 cycles
 E2(B2PLYPD3) =    -0.1452336823D+00 E(B2PLYPD3) =    -0.11564860626596D+03

 The electronic state is 1-A.
 Alpha  occ. eigenvalues --  -19.70842 -10.67669  -1.20402  -0.79816  -0.60599
 Alpha  occ. eigenvalues --   -0.51192  -0.49317  -0.41505  -0.36015
 Alpha virt. eigenvalues --    0.05369   0.08736   0.11801   0.12166   0.14785
 Alpha virt. eigenvalues --    0.16880   0.17924   0.28926   0.31899   0.33258
 Alpha virt. eigenvalues --    0.36775   0.38276   0.39694   0.40493   0.42305

 Mulliken charges:
               1
     1  C    0.058137
     2  O   -0.343042
     3  H    0.045283
     4  H    0.061149
     5  H    0.076358
     6  H    0.102116
 Sum of Mulliken charges =   0.00000

 Dipole moment (field-independent basis, Debye):
    X=              0.9923    Y=             -1.3241    Z=              0.1832  Tot=              1.6648
 Quadrupole moment (field-independent basis, Debye-Ang):
   XX=            -13.1408   YY=            -12.3635   ZZ=            -13.6857
   XY=              1.9379   XZ=             -0.1825   YZ=             -0.1344

 Normal termination of Gaussian 09 at Wed Aug 26 12:25:01 2020.
