 Gaussian 09, Revision D.01,
 Gaussian 09:  ES64L-G09RevD.01 24-Apr-2013

 --------------------
 #p B2PLYPD3/Def2QZVP
 --------------------

 --------
 methanol
 --------
 Symbolic Z-matrix:
 Charge =  0 Multiplicity = 1

                         Standard orientation:
 ---------------------------------------------------------------------
 Center     Atomic      Atomic             Coordinates (Angstroms)
 Number     Number       Type             X           Y           Z
 ---------------------------------------------------------------------
      1          6           0       -0.659054   -0.025985   -0.000340
      2          8           0        0.742095    0.133403   -0.003397
      3          1           0       -1.032922   -0.549152    0.847264
      4          1           0       -1.107556   -0.538953   -0.829818
      5          1           0       -1.065828    0.993691    0.017248
      6          1           0        1.223872   -0.816899   -0.005479
 ---------------------------------------------------------------------

 SCF Done:  E(RB2PLYPD3) =  -115.540045265     A.U. after   11 cycles
 E2(B2PLYPD3) =    -0.1490332866D+00 E(B2PLYPD3) =    -0.11568907855204D+03

 The electronic state is 1-A.
 Alpha  occ. eigenvalues --  -19.73554 -10.64974  -1.14575  -0.78346  -0.58097
 Alpha  occ. eigenvalues --   -0.51321  -0.49408  -0.40629  -0.35142
 Alpha virt. eigenvalues --    0.04159   0.07735   0.12312   0.12825   0.15263
 Alpha virt. eigenvalues --    0.17127   0.18310   0.29107   0.31330   0.33552
 Alpha virt. eigenvalues --    0.34531   0.38243   0.39291   0.41363   0.43964

 Mulliken charges:
               1
     1  C    0.070251
     2  O   -0.476824
     3  H    0.045974
     4  H    0.046015
     5  H    0.066144
     6  H    0.248440
 Sum of Mulliken charges =   0.00000

 Dipole moment (field-independent basis, Debye):
    X=             -0.7381    Y=             -1.6047    Z=              0.0099  Tot=              1.7663
 Quadrupole moment (field-independent basis, Debye-Ang):
   XX=            -12.6468   YY=            -12.1319   ZZ=            -14.0458
   XY=             -2.3162   XZ=              0.0355   YZ=              0.0028

 Normal termination of Gaussian 09 at Wed Aug 26 12:15:12 2020.
