 Gaussian 09, Revision D.01,
 Gaussian 09:  ES64L-G09RevD.01 24-Apr-2013

 --------------------
 #p B2PLYPD3/Def2QZVP
 --------------------

 --------
 methanol
 --------
 Symbolic Z-matrix:
 Charge =  0 Multiplicity = 1

                         Standard orientation:
 ---------------------------------------------------------------------
 Center     Atomic      Atomic             Coordinates (Angstroms)
 Number     Number       Type             X           Y           Z
 ---------------------------------------------------------------------
      1          6           0       -0.660961   -0.028501   -0.006153
      2          8           0        0.737094    0.140340    0.006217
      3          1           0       -1.035268   -0.531757    0.863077
      4          1           0       -0.946721   -0.547847   -0.856593
      5          1           0       -1.111137    0.949458   -0.019324
      6          1           0        1.162137   -0.821564    0.000024
 ---------------------------------------------------------------------

 SCF Done:  E(RB2PLYPD3) =  -115.542365252     A.U. after   11 cycles
 E2(B2PLYPD3) =    -0.1484229727D+00 E(B2PLYPD3) =    -0.11569078822516D+03

 The electronic state is 1-A.
 Alpha  occ. eigenvalues --  -19.73110 -10.64356  -1.14866  -0.78579  -0.57742
 Alpha  occ. eigenvalues --   -0.52616  -0.49787  -0.40697  -0.35161
 Alpha virt. eigenvalues --    0.04276   0.08034   0.12572   0.12588   0.14879
 Alpha virt. eigenvalues --    0.17489   0.18092   0.29157   0.31619   0.33251
 Alpha virt. eigenvalues --    0.34393   0.39297   0.40029   0.41982   0.44204

 Mulliken charges:
               1
     1  C    0.078360
     2  O   -0.479642
     3  H    0.044200
     4  H    0.046972
     5  H    0.065467
     6  H    0.244643
 Sum of Mulliken charges =   0.00000

 Dipole moment (field-independent basis, Debye):
    X=             -0.8497    Y=             -1.6047    Z=             -0.0430  Tot=              1.8163
 Quadrupole moment (field-independent basis, Debye-Ang):
   XX=            -12.9722   YY=            -12.0929   ZZ=            -13.7996
   XY=             -2.3782   XZ=             -0.0489   YZ=              0.0345

 Normal termination of Gaussian 09 at Wed Aug 26 10:31:31 2020.
