 Gaussian 09, Revision D.01,
 Gaussian 09:  ES64L-G09RevD.01 24-Apr-2013

 --------------------
 #p B2PLYPD3/Def2QZVP
 --------------------

 --------
 methanol
 --------
 Symbolic Z-matrix:
 Charge =  0 Multiplicity = 1

                         Standard orientation:
 ---------------------------------------------------------------------
 Center     Atomic      Atomic             Coordinates (Angstroms)
 Number     Number       Type             X           Y           Z
 ---------------------------------------------------------------------
      1          6           0       -0.664612   -0.013580   -0.009741
      2          8           0        0.742332    0.111341    0.002591
      3          1           0       -1.006949   -0.557904    0.927783
      4          1           0       -0.997056   -0.567084   -0.892843
      5          1           0       -1.081465    0.993146    0.006032
      6          1           0        1.134490   -0.677406   -0.003254
 ---------------------------------------------------------------------

 SCF Done:  E(RB2PLYPD3) =  -115.545996601     A.U. after   10 cycles
 E2(B2PLYPD3) =    -0.1458490326D+00 E(B2PLYPD3) =    -0.11569184563325D+03

 The electronic state is 1-A.
 Alpha  occ. eigenvalues --  -19.71604 -10.66254  -1.18048  -0.79247  -0.59733
 Alpha  occ. eigenvalues --   -0.51693  -0.50492  -0.40992  -0.35266
 Alpha virt. eigenvalues --    0.05256   0.08612   0.12196   0.12412   0.14745
 Alpha virt. eigenvalues --    0.17201   0.17843   0.29115   0.33003   0.33593
 Alpha virt. eigenvalues --    0.36912   0.39306   0.39810   0.40433   0.43546

 Mulliken charges:
               1
     1  C    0.069581
     2  O   -0.424096
     3  H    0.041354
     4  H    0.049008
     5  H    0.076436
     6  H    0.187716
 Sum of Mulliken charges =   0.00000

 Dipole moment (field-independent basis, Debye):
    X=             -0.8348    Y=             -1.4012    Z=             -0.0510  Tot=              1.6319
 Quadrupole moment (field-independent basis, Debye-Ang):
   XX=            -13.0435   YY=            -12.3191   ZZ=            -13.7269
   XY=             -2.2376   XZ=              0.0279   YZ=              0.0660

 Normal termination of Gaussian 09 at Wed Aug 26 13:26:35 2020.
