 Gaussian 09, Revision D.01,
 Gaussian 09:  ES64L-G09RevD.01 24-Apr-2013

 --------------------
 #p B2PLYPD3/Def2QZVP
 --------------------

 --------
 methanol
 --------
 Symbolic Z-matrix:
 Charge =  0 Multiplicity = 1

                         Standard orientation:
 ---------------------------------------------------------------------
 Center     Atomic      Atomic             Coordinates (Angstroms)
 Number     Number       Type             X           Y           Z
 ---------------------------------------------------------------------
      1          6           0        0.649950    0.052308   -0.029349
      2          8           0       -0.747382   -0.193726    0.008829
      3          1           0        1.027499    0.529503    0.773710
      4          1           0        1.019714    0.475308   -0.687809
      5          1           0        1.204717   -0.891767    0.040620
      6          1           0       -1.172572    1.122917   -0.021055
 ---------------------------------------------------------------------

 SCF Done:  E(RB2PLYPD3) =  -115.409762556     A.U. after   11 cycles
 E2(B2PLYPD3) =    -0.1555919471D+00 E(B2PLYPD3) =    -0.11556535450332D+03

 The electronic state is 1-A.
 Alpha  occ. eigenvalues --  -19.75908 -10.61841  -1.12139  -0.81554  -0.55291
 Alpha  occ. eigenvalues --   -0.52704  -0.49063  -0.39329  -0.35711
 Alpha virt. eigenvalues --   -0.01246   0.07237   0.12472   0.13173   0.14704
 Alpha virt. eigenvalues --    0.18158   0.18683   0.22177   0.29550   0.33657
 Alpha virt. eigenvalues --    0.34574   0.37225   0.39548   0.42134   0.45517

 Mulliken charges:
               1
     1  C    0.070369
     2  O   -0.470717
     3  H    0.040482
     4  H    0.079792
     5  H    0.041199
     6  H    0.238876
 Sum of Mulliken charges =   0.00000

 Dipole moment (field-independent basis, Debye):
    X=              1.0838    Y=              1.8862    Z=             -0.1019  Tot=              2.1778
 Quadrupole moment (field-independent basis, Debye-Ang):
   XX=            -13.0194   YY=            -11.4822   ZZ=            -14.0926
   XY=             -2.2781   XZ=             -0.0122   YZ=             -0.1428

 Normal termination of Gaussian 09 at Wed Aug 26 21:26:22 2020.
