 Gaussian 09, Revision D.01,
 Gaussian 09:  ES64L-G09RevD.01 24-Apr-2013

 --------------------
 #p B2PLYPD3/Def2QZVP
 --------------------

 --------
 methanol
 --------
 Symbolic Z-matrix:
 Charge =  0 Multiplicity = 1

                         Standard orientation:
 ---------------------------------------------------------------------
 Center     Atomic      Atomic             Coordinates (Angstroms)
 Number     Number       Type             X           Y           Z
 ---------------------------------------------------------------------
      1          6           0        0.670631   -0.023015    0.002376
      2          8           0       -0.747888    0.102574   -0.000799
      3          1           0        0.966597   -0.610951   -0.918276
      4          1           0        1.028759   -0.481525    0.961986
      5          1           0        1.088360    1.018282   -0.078809
      6          1           0       -1.124395   -0.608308    0.027235
 ---------------------------------------------------------------------

 SCF Done:  E(RB2PLYPD3) =  -115.518808522     A.U. after   10 cycles
 E2(B2PLYPD3) =    -0.1450109316D+00 E(B2PLYPD3) =    -0.11566381945363D+03

 The electronic state is 1-A.
 Alpha  occ. eigenvalues --  -19.70717 -10.67149  -1.19892  -0.79867  -0.60174
 Alpha  occ. eigenvalues --   -0.52001  -0.50097  -0.40667  -0.35736
 Alpha virt. eigenvalues --    0.05408   0.08863   0.11978   0.12276   0.14389
 Alpha virt. eigenvalues --    0.17093   0.17911   0.28918   0.32711   0.33167
 Alpha virt. eigenvalues --    0.37254   0.39092   0.39901   0.40062   0.43179

 Mulliken charges:
               1
     1  C    0.062973
     2  O   -0.366158
     3  H    0.050383
     4  H    0.053818
     5  H    0.074951
     6  H    0.124033
 Sum of Mulliken charges =   0.00000

 Dipole moment (field-independent basis, Debye):
    X=              0.8913    Y=             -1.3299    Z=              0.0557  Tot=              1.6019
 Quadrupole moment (field-independent basis, Debye-Ang):
   XX=            -13.0669   YY=            -12.5120   ZZ=            -13.5381
   XY=              2.1451   XZ=             -0.0232   YZ=             -0.0499

 Normal termination of Gaussian 09 at Thu Aug 27 00:15:03 2020.
