 Gaussian 09, Revision D.01,
 Gaussian 09:  ES64L-G09RevD.01 24-Apr-2013

 --------------------
 #p B2PLYPD3/Def2QZVP
 --------------------

 --------
 methanol
 --------
 Symbolic Z-matrix:
 Charge =  0 Multiplicity = 1

                         Standard orientation:
 ---------------------------------------------------------------------
 Center     Atomic      Atomic             Coordinates (Angstroms)
 Number     Number       Type             X           Y           Z
 ---------------------------------------------------------------------
      1          6           0        0.659473   -0.001773   -0.000498
      2          8           0       -0.743128    0.078499   -0.014899
      3          1           0        1.007530   -0.773230   -0.826692
      4          1           0        0.987907   -0.354882    1.058195
      5          1           0        1.026702    1.034349   -0.199992
      6          1           0       -1.033952   -0.523593    0.090673
 ---------------------------------------------------------------------

 SCF Done:  E(RB2PLYPD3) =  -115.388984178     A.U. after   11 cycles
 E2(B2PLYPD3) =    -0.1434356492D+00 E(B2PLYPD3) =    -0.11553241982750D+03

 The electronic state is 1-A.
 Alpha  occ. eigenvalues --  -19.69411 -10.68132  -1.25749  -0.81591  -0.61536
 Alpha  occ. eigenvalues --   -0.51605  -0.51141  -0.41522  -0.35737
 Alpha virt. eigenvalues --    0.05350   0.09450   0.11645   0.12077   0.14467
 Alpha virt. eigenvalues --    0.16845   0.17515   0.28502   0.32586   0.33116
 Alpha virt. eigenvalues --    0.36752   0.38535   0.39287   0.41055   0.43006

 Mulliken charges:
               1
     1  C    0.054039
     2  O   -0.228082
     3  H    0.041686
     4  H    0.044943
     5  H    0.086151
     6  H    0.001262
 Sum of Mulliken charges =   0.00000

 Dipole moment (field-independent basis, Debye):
    X=              0.9225    Y=             -1.1424    Z=              0.2161  Tot=              1.4842
 Quadrupole moment (field-independent basis, Debye-Ang):
   XX=            -13.4569   YY=            -12.3788   ZZ=            -13.4914
   XY=              1.9006   XZ=             -0.3354   YZ=             -0.1624

 Normal termination of Gaussian 09 at Wed Aug 26 18:30:12 2020.
