 Gaussian 09, Revision D.01,
 Gaussian 09:  ES64L-G09RevD.01 24-Apr-2013

 --------------------
 #p B2PLYPD3/Def2QZVP
 --------------------

 --------
 methanol
 --------
 Symbolic Z-matrix:
 Charge =  0 Multiplicity = 1

                         Standard orientation:
 ---------------------------------------------------------------------
 Center     Atomic      Atomic             Coordinates (Angstroms)
 Number     Number       Type             X           Y           Z
 ---------------------------------------------------------------------
      1          6           0       -0.661052    0.022437    0.011395
      2          8           0        0.748765   -0.139700   -0.009373
      3          1           0       -1.062102    0.567618   -0.846253
      4          1           0       -0.969537    0.521485    0.853343
      5          1           0       -1.138197   -0.943824   -0.013322
      6          1           0        1.146028    0.837696    0.012845
 ---------------------------------------------------------------------

 SCF Done:  E(RB2PLYPD3) =  -115.540547223     A.U. after   11 cycles
 E2(B2PLYPD3) =    -0.1488012770D+00 E(B2PLYPD3) =    -0.11568934849976D+03

 The electronic state is 1-A.
 Alpha  occ. eigenvalues --  -19.73424 -10.64605  -1.14600  -0.78682  -0.57610
 Alpha  occ. eigenvalues --   -0.52054  -0.49706  -0.41022  -0.35255
 Alpha virt. eigenvalues --    0.04217   0.07896   0.12553   0.12602   0.14879
 Alpha virt. eigenvalues --    0.17699   0.18120   0.29156   0.31285   0.33330
 Alpha virt. eigenvalues --    0.33993   0.39076   0.39883   0.41537   0.44129

 Mulliken charges:
               1
     1  C    0.079892
     2  O   -0.479678
     3  H    0.040252
     4  H    0.047870
     5  H    0.065527
     6  H    0.246138
 Sum of Mulliken charges =   0.00000

 Dipole moment (field-independent basis, Debye):
    X=             -0.9132    Y=              1.6144    Z=              0.0943  Tot=              1.8572
 Quadrupole moment (field-independent basis, Debye-Ang):
   XX=            -12.9799   YY=            -12.0607   ZZ=            -13.8940
   XY=              2.3627   XZ=              0.0573   YZ=              0.0842

 Normal termination of Gaussian 09 at Thu Aug 27 00:10:28 2020.
