 Gaussian 09, Revision D.01,
 Gaussian 09:  ES64L-G09RevD.01 24-Apr-2013

 --------------------
 #p B2PLYPD3/Def2QZVP
 --------------------

 --------
 methanol
 --------
 Symbolic Z-matrix:
 Charge =  0 Multiplicity = 1

                         Standard orientation:
 ---------------------------------------------------------------------
 Center     Atomic      Atomic             Coordinates (Angstroms)
 Number     Number       Type             X           Y           Z
 ---------------------------------------------------------------------
      1          6           0        0.653670   -0.021935    0.006448
      2          8           0       -0.742464    0.110320   -0.015498
      3          1           0        0.996820   -0.705969   -0.841256
      4          1           0        1.044494   -0.371461    0.966844
      5          1           0        1.102980    0.987103   -0.149811
      6          1           0       -1.126601   -0.660623    0.109519
 ---------------------------------------------------------------------

 SCF Done:  E(RB2PLYPD3) =  -115.543010285     A.U. after   10 cycles
 E2(B2PLYPD3) =    -0.1457580995D+00 E(B2PLYPD3) =    -0.11568876838448D+03

 The electronic state is 1-A.
 Alpha  occ. eigenvalues --  -19.71803 -10.66503  -1.18827  -0.79175  -0.60137
 Alpha  occ. eigenvalues --   -0.51934  -0.50285  -0.40653  -0.35537
 Alpha virt. eigenvalues --    0.05290   0.08568   0.12159   0.12435   0.14702
 Alpha virt. eigenvalues --    0.17300   0.18136   0.28934   0.33034   0.34084
 Alpha virt. eigenvalues --    0.36719   0.38868   0.39599   0.40770   0.43425

 Mulliken charges:
               1
     1  C    0.062320
     2  O   -0.407849
     3  H    0.043016
     4  H    0.050838
     5  H    0.069589
     6  H    0.182087
 Sum of Mulliken charges =   0.00000

 Dipole moment (field-independent basis, Debye):
    X=              0.7949    Y=             -1.3739    Z=              0.2706  Tot=              1.6102
 Quadrupole moment (field-independent basis, Debye-Ang):
   XX=            -13.0014   YY=            -12.4946   ZZ=            -13.6789
   XY=              2.1941   XZ=             -0.2389   YZ=             -0.1603

 Normal termination of Gaussian 09 at Wed Aug 26 12:38:17 2020.
