 Gaussian 09, Revision D.01,
 Gaussian 09:  ES64L-G09RevD.01 24-Apr-2013

 --------------------
 #p B2PLYPD3/Def2QZVP
 --------------------

 --------
 methanol
 --------
 Symbolic Z-matrix:
 Charge =  0 Multiplicity = 1

                         Standard orientation:
 ---------------------------------------------------------------------
 Center     Atomic      Atomic             Coordinates (Angstroms)
 Number     Number       Type             X           Y           Z
 ---------------------------------------------------------------------
      1          6           0        0.656782    0.044110    0.005381
      2          8           0       -0.745900   -0.202014   -0.009745
      3          1           0        0.923682    0.439811    0.848280
      4          1           0        1.074753    0.528027   -0.773367
      5          1           0        1.261808   -0.753242   -0.027162
      6          1           0       -1.233738    1.136855   -0.002073
 ---------------------------------------------------------------------

 SCF Done:  E(RB2PLYPD3) =  -115.429267370     A.U. after   11 cycles
 E2(B2PLYPD3) =    -0.1562708124D+00 E(B2PLYPD3) =    -0.11558553818221D+03

 The electronic state is 1-A.
 Alpha  occ. eigenvalues --  -19.75717 -10.61877  -1.11552  -0.80676  -0.54082
 Alpha  occ. eigenvalues --   -0.52433  -0.49791  -0.38447  -0.35639
 Alpha virt. eigenvalues --   -0.02035   0.07234   0.12707   0.13007   0.14249
 Alpha virt. eigenvalues --    0.18717   0.18812   0.21933   0.29373   0.32943
 Alpha virt. eigenvalues --    0.34191   0.39119   0.40840   0.42224   0.43472

 Mulliken charges:
               1
     1  C    0.100610
     2  O   -0.480460
     3  H    0.049712
     4  H    0.043938
     5  H    0.043296
     6  H    0.242904
 Sum of Mulliken charges =   0.00000

 Dipole moment (field-independent basis, Debye):
    X=              1.0859    Y=              1.7712    Z=              0.0359  Tot=              2.0779
 Quadrupole moment (field-independent basis, Debye-Ang):
   XX=            -12.7133   YY=            -11.7866   ZZ=            -13.8991
   XY=             -2.6730   XZ=             -0.1222   YZ=              0.0209

 Normal termination of Gaussian 09 at Wed Aug 26 22:46:50 2020.
