 Gaussian 09, Revision D.01,
 Gaussian 09:  ES64L-G09RevD.01 24-Apr-2013

 --------------------
 #p B2PLYPD3/Def2QZVP
 --------------------

 --------
 methanol
 --------
 Symbolic Z-matrix:
 Charge =  0 Multiplicity = 1

                         Standard orientation:
 ---------------------------------------------------------------------
 Center     Atomic      Atomic             Coordinates (Angstroms)
 Number     Number       Type             X           Y           Z
 ---------------------------------------------------------------------
      1          6           0        0.666303    0.025841   -0.000635
      2          8           0       -0.742197   -0.160486    0.010517
      3          1           0        1.085411    0.539166    0.816387
      4          1           0        1.027544    0.548394   -0.794124
      5          1           0        1.095356   -0.910590   -0.057226
      6          1           0       -1.268551    0.951872   -0.045367
 ---------------------------------------------------------------------

 SCF Done:  E(RB2PLYPD3) =  -115.498867899     A.U. after   11 cycles
 E2(B2PLYPD3) =    -0.1520747135D+00 E(B2PLYPD3) =    -0.11565094261255D+03

 The electronic state is 1-A.
 Alpha  occ. eigenvalues --  -19.74530 -10.63371  -1.12442  -0.79068  -0.56009
 Alpha  occ. eigenvalues --   -0.51439  -0.49462  -0.40404  -0.35006
 Alpha virt. eigenvalues --    0.01850   0.07473   0.12592   0.13019   0.15092
 Alpha virt. eigenvalues --    0.17372   0.18340   0.25536   0.29600   0.33685
 Alpha virt. eigenvalues --    0.34304   0.39085   0.39339   0.41885   0.44245

 Mulliken charges:
               1
     1  C    0.088088
     2  O   -0.494203
     3  H    0.043926
     4  H    0.041771
     5  H    0.065623
     6  H    0.254794
 Sum of Mulliken charges =   0.00000

 Dipole moment (field-independent basis, Debye):
    X=              0.8467    Y=              1.6958    Z=             -0.1363  Tot=              1.9003
 Quadrupole moment (field-independent basis, Debye-Ang):
   XX=            -12.5447   YY=            -11.8423   ZZ=            -14.1037
   XY=             -2.5125   XZ=              0.0857   YZ=             -0.0520

 Normal termination of Gaussian 09 at Wed Aug 26 10:49:50 2020.
