 Gaussian 09, Revision D.01,
 Gaussian 09:  ES64L-G09RevD.01 24-Apr-2013

 --------------------
 #p B2PLYPD3/Def2QZVP
 --------------------

 --------
 methanol
 --------
 Symbolic Z-matrix:
 Charge =  0 Multiplicity = 1

                         Standard orientation:
 ---------------------------------------------------------------------
 Center     Atomic      Atomic             Coordinates (Angstroms)
 Number     Number       Type             X           Y           Z
 ---------------------------------------------------------------------
      1          6           0       -0.687610   -0.019404    0.005839
      2          8           0        0.761053    0.086640   -0.015821
      3          1           0       -1.071320   -0.307727    0.994731
      4          1           0       -0.957176   -0.795621   -0.812928
      5          1           0       -1.041886    1.061691   -0.236312
      6          1           0        1.107615   -0.535042    0.146046
 ---------------------------------------------------------------------

 SCF Done:  E(RB2PLYPD3) =  -115.456840630     A.U. after   11 cycles
 E2(B2PLYPD3) =    -0.1445204767D+00 E(B2PLYPD3) =    -0.11560136110676D+03

 The electronic state is 1-A.
 Alpha  occ. eigenvalues --  -19.69683 -10.68034  -1.21853  -0.80590  -0.60772
 Alpha  occ. eigenvalues --   -0.51700  -0.49174  -0.41135  -0.36051
 Alpha virt. eigenvalues --    0.05354   0.09043   0.11750   0.11935   0.14444
 Alpha virt. eigenvalues --    0.16743   0.17708   0.28884   0.31159   0.33305
 Alpha virt. eigenvalues --    0.36876   0.37941   0.40025   0.40493   0.42284

 Mulliken charges:
               1
     1  C    0.058884
     2  O   -0.296369
     3  H    0.061607
     4  H    0.054145
     5  H    0.079469
     6  H    0.042264
 Sum of Mulliken charges =   0.00000

 Dipole moment (field-independent basis, Debye):
    X=             -1.0317    Y=             -1.2400    Z=              0.3756  Tot=              1.6563
 Quadrupole moment (field-independent basis, Debye-Ang):
   XX=            -13.1590   YY=            -12.4390   ZZ=            -13.4774
   XY=             -1.9217   XZ=              0.2913   YZ=             -0.2071

 Normal termination of Gaussian 09 at Wed Aug 26 16:00:27 2020.
