 Gaussian 09, Revision D.01,
 Gaussian 09:  ES64L-G09RevD.01 24-Apr-2013

 --------------------
 #p B2PLYPD3/Def2QZVP
 --------------------

 --------
 methanol
 --------
 Symbolic Z-matrix:
 Charge =  0 Multiplicity = 1

                         Standard orientation:
 ---------------------------------------------------------------------
 Center     Atomic      Atomic             Coordinates (Angstroms)
 Number     Number       Type             X           Y           Z
 ---------------------------------------------------------------------
      1          6           0       -0.689083   -0.004181    0.004709
      2          8           0        0.758996   -0.164286   -0.028229
      3          1           0       -1.148081    0.626206   -0.808284
      4          1           0       -0.968786    0.408821    0.881488
      5          1           0       -1.013143   -0.785383    0.014257
      6          1           0        1.192539    1.089727    0.110116
 ---------------------------------------------------------------------

 SCF Done:  E(RB2PLYPD3) =  -115.415684154     A.U. after   11 cycles
 E2(B2PLYPD3) =    -0.1549812015D+00 E(B2PLYPD3) =    -0.11557066535542D+03

 The electronic state is 1-A.
 Alpha  occ. eigenvalues --  -19.75062 -10.62295  -1.10900  -0.81171  -0.55937
 Alpha  occ. eigenvalues --   -0.51021  -0.49081  -0.40685  -0.35036
 Alpha virt. eigenvalues --    0.00040   0.07384   0.12427   0.13001   0.14520
 Alpha virt. eigenvalues --    0.17308   0.18554   0.23478   0.29297   0.32535
 Alpha virt. eigenvalues --    0.33489   0.37585   0.40026   0.41879   0.43770

 Mulliken charges:
               1
     1  C    0.023851
     2  O   -0.498830
     3  H    0.047665
     4  H    0.046599
     5  H    0.133519
     6  H    0.247198
 Sum of Mulliken charges =   0.00000

 Dipole moment (field-independent basis, Debye):
    X=             -1.1372    Y=              1.6190    Z=              0.3166  Tot=              2.0037
 Quadrupole moment (field-independent basis, Debye-Ang):
   XX=            -13.0794   YY=            -11.4434   ZZ=            -13.9257
   XY=              2.5251   XZ=              0.2194   YZ=              0.1538

 Normal termination of Gaussian 09 at Wed Aug 26 23:05:08 2020.
