 Gaussian 09, Revision D.01,
 Gaussian 09:  ES64L-G09RevD.01 24-Apr-2013

 --------------------
 #p B2PLYPD3/Def2QZVP
 --------------------

 --------
 methanol
 --------
 Symbolic Z-matrix:
 Charge =  0 Multiplicity = 1

                         Standard orientation:
 ---------------------------------------------------------------------
 Center     Atomic      Atomic             Coordinates (Angstroms)
 Number     Number       Type             X           Y           Z
 ---------------------------------------------------------------------
      1          6           0        0.682522    0.016077   -0.011763
      2          8           0       -0.773676    0.070469   -0.024602
      3          1           0        1.162746   -0.900159   -0.667038
      4          1           0        1.067082   -0.150362    1.079195
      5          1           0        0.929643    0.999171   -0.317971
      6          1           0       -1.065197   -0.608863    0.173205
 ---------------------------------------------------------------------

 SCF Done:  E(RB2PLYPD3) =  -115.481016837     A.U. after   11 cycles
 E2(B2PLYPD3) =    -0.1455570238D+00 E(B2PLYPD3) =    -0.11562657386086D+03

 The electronic state is 1-A.
 Alpha  occ. eigenvalues --  -19.70765 -10.68235  -1.20941  -0.80053  -0.60178
 Alpha  occ. eigenvalues --   -0.50360  -0.49556  -0.42583  -0.35606
 Alpha virt. eigenvalues --    0.05256   0.08592   0.11462   0.12233   0.14778
 Alpha virt. eigenvalues --    0.16511   0.17984   0.28731   0.31292   0.32566
 Alpha virt. eigenvalues --    0.35370   0.37754   0.40008   0.40549   0.42813

 Mulliken charges:
               1
     1  C    0.052109
     2  O   -0.321245
     3  H    0.043679
     4  H    0.048505
     5  H    0.093343
     6  H    0.083608
 Sum of Mulliken charges =   0.00000

 Dipole moment (field-independent basis, Debye):
    X=              1.0541    Y=             -1.1678    Z=              0.3893  Tot=              1.6206
 Quadrupole moment (field-independent basis, Debye-Ang):
   XX=            -13.3897   YY=            -12.2244   ZZ=            -13.7614
   XY=              1.7800   XZ=             -0.5332   YZ=             -0.3436

 Normal termination of Gaussian 09 at Wed Aug 26 22:19:17 2020.
