 Gaussian 09, Revision D.01,
 Gaussian 09:  ES64L-G09RevD.01 24-Apr-2013

 --------------------
 #p B2PLYPD3/Def2QZVP
 --------------------

 --------
 methanol
 --------
 Symbolic Z-matrix:
 Charge =  0 Multiplicity = 1

                         Standard orientation:
 ---------------------------------------------------------------------
 Center     Atomic      Atomic             Coordinates (Angstroms)
 Number     Number       Type             X           Y           Z
 ---------------------------------------------------------------------
      1          6           0        0.650534   -0.032929   -0.027539
      2          8           0       -0.761793    0.062851    0.012135
      3          1           0        1.088360   -0.486398   -0.945259
      4          1           0        1.227872   -0.542475    0.958932
      5          1           0        0.980079    1.202145    0.044598
      6          1           0       -1.105169   -0.478510    0.009888
 ---------------------------------------------------------------------

 SCF Done:  E(RB2PLYPD3) =  -115.297198786     A.U. after   11 cycles
 E2(B2PLYPD3) =    -0.1446003099D+00 E(B2PLYPD3) =    -0.11544179909578D+03

 The electronic state is 1-A.
 Alpha  occ. eigenvalues --  -19.70017 -10.70206  -1.27372  -0.82040  -0.62796
 Alpha  occ. eigenvalues --   -0.51025  -0.49193  -0.39682  -0.36577
 Alpha virt. eigenvalues --    0.05011   0.08691   0.10942   0.11825   0.14929
 Alpha virt. eigenvalues --    0.16526   0.18405   0.28348   0.31554   0.32861
 Alpha virt. eigenvalues --    0.34592   0.35581   0.39723   0.40753   0.41775

 Mulliken charges:
               1
     1  C    0.021875
     2  O   -0.171049
     3  H    0.074207
     4  H    0.044874
     5  H    0.062459
     6  H   -0.032366
 Sum of Mulliken charges =   0.00000

 Dipole moment (field-independent basis, Debye):
    X=              0.7750    Y=             -1.2163    Z=             -0.1476  Tot=              1.4497
 Quadrupole moment (field-independent basis, Debye-Ang):
   XX=            -12.9491   YY=            -12.8159   ZZ=            -13.6748
   XY=              1.5545   XZ=             -0.0531   YZ=              0.1598

 Normal termination of Gaussian 09 at Wed Aug 26 22:18:46 2020.
