 Gaussian 09, Revision D.01,
 Gaussian 09:  ES64L-G09RevD.01 24-Apr-2013

 --------------------
 #p B2PLYPD3/Def2QZVP
 --------------------

 --------
 methanol
 --------
 Symbolic Z-matrix:
 Charge =  0 Multiplicity = 1

                         Standard orientation:
 ---------------------------------------------------------------------
 Center     Atomic      Atomic             Coordinates (Angstroms)
 Number     Number       Type             X           Y           Z
 ---------------------------------------------------------------------
      1          6           0        0.708080    0.023279    0.022067
      2          8           0       -0.766025   -0.061346   -0.066225
      3          1           0        0.910555   -0.346829    1.060525
      4          1           0        1.116885    1.071667   -0.324930
      5          1           0        1.050170   -0.802320   -0.670565
      6          1           0       -1.197887    0.428577    0.332370
 ---------------------------------------------------------------------

 SCF Done:  E(RB2PLYPD3) =  -115.480915153     A.U. after   11 cycles
 E2(B2PLYPD3) =    -0.1454660812D+00 E(B2PLYPD3) =    -0.11562638123453D+03

 The electronic state is 1-A.
 Alpha  occ. eigenvalues --  -19.69621 -10.68396  -1.19240  -0.80370  -0.59102
 Alpha  occ. eigenvalues --   -0.51719  -0.49226  -0.39835  -0.35872
 Alpha virt. eigenvalues --    0.05398   0.08681   0.11526   0.12260   0.13635
 Alpha virt. eigenvalues --    0.16544   0.18284   0.28609   0.30313   0.33358
 Alpha virt. eigenvalues --    0.35986   0.38217   0.39739   0.40218   0.42909

 Mulliken charges:
               1
     1  C    0.060648
     2  O   -0.349683
     3  H    0.067573
     4  H    0.064404
     5  H    0.080604
     6  H    0.076455
 Sum of Mulliken charges =   0.00000

 Dipole moment (field-independent basis, Debye):
    X=              1.0205    Y=              0.9225    Z=              0.8143  Tot=              1.5985
 Quadrupole moment (field-independent basis, Debye-Ang):
   XX=            -12.8154   YY=            -12.7799   ZZ=            -13.2851
   XY=             -1.5168   XZ=             -1.4492   YZ=              0.2498

 Normal termination of Gaussian 09 at Wed Aug 26 23:45:08 2020.
