 Gaussian 09, Revision D.01,
 Gaussian 09:  ES64L-G09RevD.01 24-Apr-2013

 --------------------
 #p B2PLYPD3/Def2QZVP
 --------------------

 --------
 methanol
 --------
 Symbolic Z-matrix:
 Charge =  0 Multiplicity = 1

                         Standard orientation:
 ---------------------------------------------------------------------
 Center     Atomic      Atomic             Coordinates (Angstroms)
 Number     Number       Type             X           Y           Z
 ---------------------------------------------------------------------
      1          6           0        0.687738   -0.000822    0.016803
      2          8           0       -0.763742   -0.042035    0.024481
      3          1           0        0.958493    1.216031   -0.017369
      4          1           0        1.148634   -0.615497   -0.982506
      5          1           0        0.914982   -0.502332    1.001124
      6          1           0       -1.038602    0.243012   -0.297914
 ---------------------------------------------------------------------

 SCF Done:  E(RB2PLYPD3) =  -114.825899144     A.U. after   12 cycles
 E2(B2PLYPD3) =    -0.1436997280D+00 E(B2PLYPD3) =    -0.11496959887176D+03

 The electronic state is 1-A.
 Alpha  occ. eigenvalues --  -19.68201 -10.70923  -1.32597  -0.83982  -0.61208
 Alpha  occ. eigenvalues --   -0.51059  -0.50207  -0.41156  -0.36290
 Alpha virt. eigenvalues --    0.04792   0.09516   0.10805   0.11681   0.13790
 Alpha virt. eigenvalues --    0.16274   0.17396   0.27994   0.30218   0.31971
 Alpha virt. eigenvalues --    0.33332   0.35600   0.38758   0.41434   0.42556

 Mulliken charges:
               1
     1  C    0.044779
     2  O   -0.053667
     3  H    0.047542
     4  H    0.056609
     5  H    0.105520
     6  H   -0.200783
 Sum of Mulliken charges =   0.00000

 Dipole moment (field-independent basis, Debye):
    X=              1.1177    Y=              0.6688    Z=             -0.6573  Tot=              1.4589
 Quadrupole moment (field-independent basis, Debye-Ang):
   XX=            -13.4774   YY=            -12.9411   ZZ=            -12.7055
   XY=             -1.1975   XZ=              1.1797   YZ=             -0.4490

 Normal termination of Gaussian 09 at Wed Aug 26 23:55:42 2020.
