 Gaussian 09, Revision D.01,
 Gaussian 09:  ES64L-G09RevD.01 24-Apr-2013

 --------------------
 #p B2PLYPD3/Def2QZVP
 --------------------

 --------
 methanol
 --------
 Symbolic Z-matrix:
 Charge =  0 Multiplicity = 1

                         Standard orientation:
 ---------------------------------------------------------------------
 Center     Atomic      Atomic             Coordinates (Angstroms)
 Number     Number       Type             X           Y           Z
 ---------------------------------------------------------------------
      1          6           0        0.669508   -0.020541   -0.002933
      2          8           0       -0.756919    0.102780   -0.007037
      3          1           0        1.014379   -0.680110   -0.849698
      4          1           0        1.084978   -0.393590    0.980701
      5          1           0        1.075785    1.015894   -0.134628
      6          1           0       -1.136835   -0.641191    0.077515
 ---------------------------------------------------------------------

 SCF Done:  E(RB2PLYPD3) =  -115.533523136     A.U. after   10 cycles
 E2(B2PLYPD3) =    -0.1457595281D+00 E(B2PLYPD3) =    -0.11567928266375D+03

 The electronic state is 1-A.
 Alpha  occ. eigenvalues --  -19.71434 -10.67153  -1.18748  -0.79383  -0.59965
 Alpha  occ. eigenvalues --   -0.51429  -0.49711  -0.40962  -0.35773
 Alpha virt. eigenvalues --    0.05364   0.08551   0.12077   0.12258   0.14649
 Alpha virt. eigenvalues --    0.17063   0.18136   0.28930   0.32658   0.33343
 Alpha virt. eigenvalues --    0.37078   0.38863   0.39552   0.39866   0.42766

 Mulliken charges:
               1
     1  C    0.061674
     2  O   -0.396164
     3  H    0.051504
     4  H    0.051561
     5  H    0.074123
     6  H    0.157302
 Sum of Mulliken charges =   0.00000

 Dipole moment (field-independent basis, Debye):
    X=              0.8972    Y=             -1.3585    Z=              0.1478  Tot=              1.6347
 Quadrupole moment (field-independent basis, Debye-Ang):
   XX=            -12.9655   YY=            -12.4698   ZZ=            -13.6942
   XY=              2.1272   XZ=             -0.1812   YZ=             -0.0735

 Normal termination of Gaussian 09 at Wed Aug 26 10:29:54 2020.
