 Gaussian 09, Revision D.01,
 Gaussian 09:  ES64L-G09RevD.01 24-Apr-2013

 --------------------
 #p B2PLYPD3/Def2QZVP
 --------------------

 --------
 methanol
 --------
 Symbolic Z-matrix:
 Charge =  0 Multiplicity = 1

                         Standard orientation:
 ---------------------------------------------------------------------
 Center     Atomic      Atomic             Coordinates (Angstroms)
 Number     Number       Type             X           Y           Z
 ---------------------------------------------------------------------
      1          6           0       -0.662079   -0.029942   -0.038944
      2          8           0        0.757777    0.002853    0.067332
      3          1           0       -0.971231   -0.771821   -0.808116
      4          1           0       -1.222377    1.207633   -0.139272
      5          1           0       -1.067379   -0.409662    1.014195
      6          1           0        1.171247    0.130682   -0.371798
 ---------------------------------------------------------------------

 SCF Done:  E(RB2PLYPD3) =  -115.230445210     A.U. after   11 cycles
 E2(B2PLYPD3) =    -0.1445462322D+00 E(B2PLYPD3) =    -0.11537499144220D+03

 The electronic state is 1-A.
 Alpha  occ. eigenvalues --  -19.69094 -10.70890  -1.27382  -0.83556  -0.62066
 Alpha  occ. eigenvalues --   -0.51262  -0.49464  -0.39383  -0.35846
 Alpha virt. eigenvalues --    0.04824   0.08863   0.10776   0.11820   0.13980
 Alpha virt. eigenvalues --    0.16601   0.18502   0.28042   0.30422   0.31935
 Alpha virt. eigenvalues --    0.34122   0.36010   0.39772   0.41017   0.42052

 Mulliken charges:
               1
     1  C    0.043185
     2  O   -0.166971
     3  H    0.074330
     4  H    0.033301
     5  H    0.082703
     6  H   -0.066548
 Sum of Mulliken charges =   0.00000

 Dipole moment (field-independent basis, Debye):
    X=             -0.7459    Y=             -0.0179    Z=             -0.9946  Tot=              1.2434
 Quadrupole moment (field-independent basis, Debye-Ang):
   XX=            -12.7304   YY=            -13.4638   ZZ=            -13.0725
   XY=              0.6613   XZ=             -1.7739   YZ=              0.0349

 Normal termination of Gaussian 09 at Wed Aug 26 23:36:16 2020.
