 Gaussian 09, Revision D.01,
 Gaussian 09:  ES64L-G09RevD.01 24-Apr-2013

 --------------------
 #p B2PLYPD3/Def2QZVP
 --------------------

 --------
 methanol
 --------
 Symbolic Z-matrix:
 Charge =  0 Multiplicity = 1

                         Standard orientation:
 ---------------------------------------------------------------------
 Center     Atomic      Atomic             Coordinates (Angstroms)
 Number     Number       Type             X           Y           Z
 ---------------------------------------------------------------------
      1          6           0        0.674860    0.023264    0.004022
      2          8           0       -0.747029   -0.138215   -0.005264
      3          1           0        0.958527    0.523549    0.885989
      4          1           0        1.037540    0.550433   -0.860799
      5          1           0        1.102752   -0.931853   -0.005418
      6          1           0       -1.171751    0.824008   -0.001792
 ---------------------------------------------------------------------

 SCF Done:  E(RB2PLYPD3) =  -115.542362772     A.U. after   11 cycles
 E2(B2PLYPD3) =    -0.1487000140D+00 E(B2PLYPD3) =    -0.11569106278640D+03

 The electronic state is 1-A.
 Alpha  occ. eigenvalues --  -19.73031 -10.64472  -1.14028  -0.78821  -0.57145
 Alpha  occ. eigenvalues --   -0.52289  -0.49802  -0.40890  -0.35194
 Alpha virt. eigenvalues --    0.04326   0.07985   0.12467   0.12658   0.14715
 Alpha virt. eigenvalues --    0.17421   0.18102   0.29158   0.31742   0.33143
 Alpha virt. eigenvalues --    0.33611   0.39377   0.40342   0.41671   0.43893

 Mulliken charges:
               1
     1  C    0.079806
     2  O   -0.489844
     3  H    0.049397
     4  H    0.046359
     5  H    0.070065
     6  H    0.244217
 Sum of Mulliken charges =   0.00000

 Dipole moment (field-independent basis, Debye):
    X=              0.9317    Y=              1.5751    Z=              0.0268  Tot=              1.8302
 Quadrupole moment (field-independent basis, Debye-Ang):
   XX=            -12.9411   YY=            -12.0929   ZZ=            -13.7676
   XY=             -2.4223   XZ=             -0.0569   YZ=              0.0177

 Normal termination of Gaussian 09 at Wed Aug 26 10:17:07 2020.
