 Gaussian 09, Revision D.01,
 Gaussian 09:  ES64L-G09RevD.01 24-Apr-2013

 --------------------
 #p B2PLYPD3/Def2QZVP
 --------------------

 --------
 methanol
 --------
 Symbolic Z-matrix:
 Charge =  0 Multiplicity = 1

                         Standard orientation:
 ---------------------------------------------------------------------
 Center     Atomic      Atomic             Coordinates (Angstroms)
 Number     Number       Type             X           Y           Z
 ---------------------------------------------------------------------
      1          6           0       -0.690557   -0.027881    0.009779
      2          8           0        0.742916    0.073647    0.005149
      3          1           0       -1.054855   -0.494574    0.969686
      4          1           0       -0.897178   -0.664313   -0.958273
      5          1           0       -1.079402    1.115833   -0.134188
      6          1           0        1.231448   -0.378829    0.022909
 ---------------------------------------------------------------------

 SCF Done:  E(RB2PLYPD3) =  -115.350393744     A.U. after   11 cycles
 E2(B2PLYPD3) =    -0.1440892750D+00 E(B2PLYPD3) =    -0.11549448301899D+03

 The electronic state is 1-A.
 Alpha  occ. eigenvalues --  -19.68018 -10.69721  -1.23447  -0.82852  -0.60953
 Alpha  occ. eigenvalues --   -0.51763  -0.49678  -0.38340  -0.35728
 Alpha virt. eigenvalues --    0.05187   0.09308   0.11569   0.11760   0.13880
 Alpha virt. eigenvalues --    0.16486   0.17524   0.29091   0.30743   0.32858
 Alpha virt. eigenvalues --    0.35237   0.37587   0.39054   0.40614   0.42508

 Mulliken charges:
               1
     1  C    0.062017
     2  O   -0.239976
     3  H    0.068544
     4  H    0.056084
     5  H    0.083799
     6  H   -0.030469
 Sum of Mulliken charges =   0.00000

 Dipole moment (field-independent basis, Debye):
    X=             -0.8132    Y=             -1.0685    Z=              0.0757  Tot=              1.3449
 Quadrupole moment (field-independent basis, Debye-Ang):
   XX=            -12.5482   YY=            -12.8422   ZZ=            -13.3848
   XY=             -1.8212   XZ=             -0.1330   YZ=             -0.1066

 Normal termination of Gaussian 09 at Wed Aug 26 23:15:53 2020.
