 Gaussian 09, Revision D.01,
 Gaussian 09:  ES64L-G09RevD.01 24-Apr-2013

 --------------------
 #p B2PLYPD3/Def2QZVP
 --------------------

 --------
 methanol
 --------
 Symbolic Z-matrix:
 Charge =  0 Multiplicity = 1

                         Standard orientation:
 ---------------------------------------------------------------------
 Center     Atomic      Atomic             Coordinates (Angstroms)
 Number     Number       Type             X           Y           Z
 ---------------------------------------------------------------------
      1          6           0       -0.661852   -0.022423    0.002754
      2          8           0        0.752081    0.102112   -0.007002
      3          1           0       -0.975608   -0.523351    0.965144
      4          1           0       -1.042187   -0.576847   -0.924831
      5          1           0       -1.136548    1.014759   -0.014130
      6          1           0        1.108806   -0.596914    0.013314
 ---------------------------------------------------------------------

 SCF Done:  E(RB2PLYPD3) =  -115.506140696     A.U. after   10 cycles
 E2(B2PLYPD3) =    -0.1448629171D+00 E(B2PLYPD3) =    -0.11565100361304D+03

 The electronic state is 1-A.
 Alpha  occ. eigenvalues --  -19.70809 -10.67566  -1.20938  -0.79892  -0.60647
 Alpha  occ. eigenvalues --   -0.51839  -0.50205  -0.40642  -0.35876
 Alpha virt. eigenvalues --    0.05400   0.08850   0.11931   0.12273   0.14346
 Alpha virt. eigenvalues --    0.17336   0.17955   0.28771   0.32820   0.33160
 Alpha virt. eigenvalues --    0.36692   0.38890   0.39510   0.39989   0.43303

 Mulliken charges:
               1
     1  C    0.059432
     2  O   -0.339421
     3  H    0.051456
     4  H    0.049550
     5  H    0.073285
     6  H    0.105698
 Sum of Mulliken charges =   0.00000

 Dipole moment (field-independent basis, Debye):
    X=             -0.8972    Y=             -1.3126    Z=              0.0563  Tot=              1.5909
 Quadrupole moment (field-independent basis, Debye-Ang):
   XX=            -13.0437   YY=            -12.5959   ZZ=            -13.5805
   XY=             -2.1412   XZ=              0.1022   YZ=             -0.0252

 Normal termination of Gaussian 09 at Wed Aug 26 13:45:14 2020.
