 Gaussian 09, Revision D.01,
 Gaussian 09:  ES64L-G09RevD.01 24-Apr-2013

 --------------------
 #p B2PLYPD3/Def2QZVP
 --------------------

 --------
 methanol
 --------
 Symbolic Z-matrix:
 Charge =  0 Multiplicity = 1

                         Standard orientation:
 ---------------------------------------------------------------------
 Center     Atomic      Atomic             Coordinates (Angstroms)
 Number     Number       Type             X           Y           Z
 ---------------------------------------------------------------------
      1          6           0       -0.673486   -0.000866    0.027851
      2          8           0        0.744773    0.066448   -0.038363
      3          1           0       -0.891506   -0.420760    1.025755
      4          1           0       -1.201348   -0.648223   -0.903162
      5          1           0       -0.902529    1.079568   -0.076755
      6          1           0        1.078118   -0.536971    0.093960
 ---------------------------------------------------------------------

 SCF Done:  E(RB2PLYPD3) =  -115.416245553     A.U. after   11 cycles
 E2(B2PLYPD3) =    -0.1441905284D+00 E(B2PLYPD3) =    -0.11556043608114D+03

 The electronic state is 1-A.
 Alpha  occ. eigenvalues --  -19.69531 -10.68148  -1.23957  -0.81551  -0.61062
 Alpha  occ. eigenvalues --   -0.51612  -0.49923  -0.41324  -0.35714
 Alpha virt. eigenvalues --    0.05340   0.08985   0.11699   0.11988   0.14498
 Alpha virt. eigenvalues --    0.16380   0.17876   0.28735   0.31862   0.32699
 Alpha virt. eigenvalues --    0.35153   0.38716   0.39595   0.41150   0.43464

 Mulliken charges:
               1
     1  C    0.043617
     2  O   -0.245474
     3  H    0.058578
     4  H    0.039458
     5  H    0.087868
     6  H    0.015953
 Sum of Mulliken charges =   0.00000

 Dipole moment (field-independent basis, Debye):
    X=             -0.8567    Y=             -1.1183    Z=              0.4227  Tot=              1.4708
 Quadrupole moment (field-independent basis, Debye-Ang):
   XX=            -13.3920   YY=            -12.4538   ZZ=            -13.4375
   XY=             -1.7753   XZ=              0.4721   YZ=             -0.2676

 Normal termination of Gaussian 09 at Wed Aug 26 23:49:35 2020.
