 Gaussian 09, Revision D.01,
 Gaussian 09:  ES64L-G09RevD.01 24-Apr-2013

 --------------------
 #p B2PLYPD3/Def2QZVP
 --------------------

 --------
 methanol
 --------
 Symbolic Z-matrix:
 Charge =  0 Multiplicity = 1

                         Standard orientation:
 ---------------------------------------------------------------------
 Center     Atomic      Atomic             Coordinates (Angstroms)
 Number     Number       Type             X           Y           Z
 ---------------------------------------------------------------------
      1          6           0       -0.677611    0.016362   -0.000151
      2          8           0        0.751951   -0.137131   -0.000238
      3          1           0       -1.019355    0.541458   -0.857827
      4          1           0       -1.048516    0.515386    0.858351
      5          1           0       -1.031871   -0.939844   -0.010889
      6          1           0        1.149801    0.881872    0.013172
 ---------------------------------------------------------------------

 SCF Done:  E(RB2PLYPD3) =  -115.532909575     A.U. after   11 cycles
 E2(B2PLYPD3) =    -0.1497073537D+00 E(B2PLYPD3) =    -0.11568261692843D+03

 The electronic state is 1-A.
 Alpha  occ. eigenvalues --  -19.73498 -10.64088  -1.13372  -0.78934  -0.57065
 Alpha  occ. eigenvalues --   -0.51830  -0.49294  -0.41445  -0.35213
 Alpha virt. eigenvalues --    0.03888   0.07903   0.12566   0.12569   0.14915
 Alpha virt. eigenvalues --    0.17161   0.18190   0.28855   0.30604   0.33360
 Alpha virt. eigenvalues --    0.33637   0.38955   0.40214   0.41590   0.44023

 Mulliken charges:
               1
     1  C    0.080054
     2  O   -0.492049
     3  H    0.046728
     4  H    0.046806
     5  H    0.071913
     6  H    0.246549
 Sum of Mulliken charges =   0.00000

 Dipole moment (field-independent basis, Debye):
    X=             -1.0022    Y=              1.5989    Z=              0.0220  Tot=              1.8872
 Quadrupole moment (field-independent basis, Debye-Ang):
   XX=            -13.1030   YY=            -11.8633   ZZ=            -13.8476
   XY=              2.3124   XZ=              0.0013   YZ=              0.0159

 Normal termination of Gaussian 09 at Wed Aug 26 23:09:19 2020.
