 Gaussian 09, Revision D.01,
 Gaussian 09:  ES64L-G09RevD.01 24-Apr-2013

 --------------------
 #p B2PLYPD3/Def2QZVP
 --------------------

 --------
 methanol
 --------
 Symbolic Z-matrix:
 Charge =  0 Multiplicity = 1

                         Standard orientation:
 ---------------------------------------------------------------------
 Center     Atomic      Atomic             Coordinates (Angstroms)
 Number     Number       Type             X           Y           Z
 ---------------------------------------------------------------------
      1          6           0        0.656066    0.036713    0.008207
      2          8           0       -0.737024   -0.154058   -0.005789
      3          1           0        1.013412    0.510929    0.815541
      4          1           0        1.010855    0.588314   -0.814051
      5          1           0        1.164680   -0.949255   -0.031524
      6          1           0       -1.229152    0.862201    0.027103
 ---------------------------------------------------------------------

 SCF Done:  E(RB2PLYPD3) =  -115.522872029     A.U. after   11 cycles
 E2(B2PLYPD3) =    -0.1498490151D+00 E(B2PLYPD3) =    -0.11567272104458D+03

 The electronic state is 1-A.
 Alpha  occ. eigenvalues --  -19.73851 -10.64013  -1.13898  -0.78696  -0.57087
 Alpha  occ. eigenvalues --   -0.52338  -0.49429  -0.40221  -0.35153
 Alpha virt. eigenvalues --    0.03369   0.07624   0.12517   0.12900   0.15034
 Alpha virt. eigenvalues --    0.17671   0.18201   0.28248   0.29775   0.33542
 Alpha virt. eigenvalues --    0.34571   0.38343   0.39824   0.42412   0.44257

 Mulliken charges:
               1
     1  C    0.084768
     2  O   -0.487549
     3  H    0.046922
     4  H    0.042145
     5  H    0.059050
     6  H    0.254664
 Sum of Mulliken charges =   0.00000

 Dipole moment (field-independent basis, Debye):
    X=              0.7763    Y=              1.7060    Z=              0.0942  Tot=              1.8767
 Quadrupole moment (field-independent basis, Debye-Ang):
   XX=            -12.6250   YY=            -12.0766   ZZ=            -13.9871
   XY=             -2.4431   XZ=             -0.0221   YZ=              0.0719

 Normal termination of Gaussian 09 at Wed Aug 26 14:44:50 2020.
