 Gaussian 09, Revision D.01,
 Gaussian 09:  ES64L-G09RevD.01 24-Apr-2013

 --------------------
 #p B2PLYPD3/Def2QZVP
 --------------------

 --------
 methanol
 --------
 Symbolic Z-matrix:
 Charge =  0 Multiplicity = 1

                         Standard orientation:
 ---------------------------------------------------------------------
 Center     Atomic      Atomic             Coordinates (Angstroms)
 Number     Number       Type             X           Y           Z
 ---------------------------------------------------------------------
      1          6           0       -0.663786   -0.021425    0.000045
      2          8           0        0.754404    0.101353   -0.013100
      3          1           0       -1.033346   -0.417903    0.970199
      4          1           0       -1.002653   -0.673326   -0.862765
      5          1           0       -1.098144    1.030525   -0.100874
      6          1           0        1.081624   -0.621571    0.097965
 ---------------------------------------------------------------------

 SCF Done:  E(RB2PLYPD3) =  -115.516920040     A.U. after   10 cycles
 E2(B2PLYPD3) =    -0.1450908667D+00 E(B2PLYPD3) =    -0.11566201090655D+03

 The electronic state is 1-A.
 Alpha  occ. eigenvalues --  -19.71030 -10.67189  -1.20444  -0.79604  -0.60564
 Alpha  occ. eigenvalues --   -0.51918  -0.49793  -0.41194  -0.35908
 Alpha virt. eigenvalues --    0.05373   0.08850   0.12019   0.12151   0.14587
 Alpha virt. eigenvalues --    0.17216   0.17940   0.28868   0.32711   0.33303
 Alpha virt. eigenvalues --    0.37156   0.38538   0.39964   0.40159   0.43116

 Mulliken charges:
               1
     1  C    0.061835
     2  O   -0.355849
     3  H    0.051531
     4  H    0.050695
     5  H    0.071030
     6  H    0.120757
 Sum of Mulliken charges =   0.00000

 Dipole moment (field-independent basis, Debye):
    X=             -0.9500    Y=             -1.3485    Z=              0.2330  Tot=              1.6659
 Quadrupole moment (field-independent basis, Debye-Ang):
   XX=            -13.2019   YY=            -12.4341   ZZ=            -13.6058
   XY=             -2.0427   XZ=              0.2310   YZ=             -0.1120

 Normal termination of Gaussian 09 at Thu Aug 27 00:08:32 2020.
