 Gaussian 09, Revision D.01,
 Gaussian 09:  ES64L-G09RevD.01 24-Apr-2013

 --------------------
 #p B2PLYPD3/Def2QZVP
 --------------------

 --------
 methanol
 --------
 Symbolic Z-matrix:
 Charge =  0 Multiplicity = 1

                         Standard orientation:
 ---------------------------------------------------------------------
 Center     Atomic      Atomic             Coordinates (Angstroms)
 Number     Number       Type             X           Y           Z
 ---------------------------------------------------------------------
      1          6           0       -0.643172   -0.021422   -0.007051
      2          8           0        0.739524    0.110407   -0.009622
      3          1           0       -1.067038   -0.428721    0.961682
      4          1           0       -0.953383   -0.701049   -0.847638
      5          1           0       -1.163325    0.997509   -0.105614
      6          1           0        1.126584   -0.622461    0.110849
 ---------------------------------------------------------------------

 SCF Done:  E(RB2PLYPD3) =  -115.530800708     A.U. after   10 cycles
 E2(B2PLYPD3) =    -0.1452999095D+00 E(B2PLYPD3) =    -0.11567610061800D+03

 The electronic state is 1-A.
 Alpha  occ. eigenvalues --  -19.71624 -10.67099  -1.20243  -0.79349  -0.60945
 Alpha  occ. eigenvalues --   -0.52135  -0.50303  -0.40313  -0.35446
 Alpha virt. eigenvalues --    0.05318   0.08604   0.12182   0.12336   0.14675
 Alpha virt. eigenvalues --    0.17463   0.18030   0.28892   0.32726   0.34498
 Alpha virt. eigenvalues --    0.36444   0.38617   0.39514   0.40476   0.43254

 Mulliken charges:
               1
     1  C    0.060400
     2  O   -0.375727
     3  H    0.040834
     4  H    0.045453
     5  H    0.069338
     6  H    0.159702
 Sum of Mulliken charges =   0.00000

 Dipole moment (field-independent basis, Debye):
    X=             -0.7279    Y=             -1.3571    Z=              0.2214  Tot=              1.5559
 Quadrupole moment (field-independent basis, Debye-Ang):
   XX=            -12.9283   YY=            -12.5786   ZZ=            -13.7789
   XY=             -2.1991   XZ=              0.2302   YZ=             -0.0854

 Normal termination of Gaussian 09 at Wed Aug 26 13:24:21 2020.
