 Gaussian 09, Revision D.01,
 Gaussian 09:  ES64L-G09RevD.01 24-Apr-2013

 --------------------
 #p B2PLYPD3/Def2QZVP
 --------------------

 --------
 methanol
 --------
 Symbolic Z-matrix:
 Charge =  0 Multiplicity = 1

                         Standard orientation:
 ---------------------------------------------------------------------
 Center     Atomic      Atomic             Coordinates (Angstroms)
 Number     Number       Type             X           Y           Z
 ---------------------------------------------------------------------
      1          6           0        0.671684    0.025032   -0.011456
      2          8           0       -0.730405   -0.151747    0.011893
      3          1           0        1.044639    0.547113    0.829956
      4          1           0        0.944315    0.554696   -0.797108
      5          1           0        1.046815   -0.938293   -0.031315
      6          1           0       -1.222635    0.900269   -0.027939
 ---------------------------------------------------------------------

 SCF Done:  E(RB2PLYPD3) =  -115.512713322     A.U. after   11 cycles
 E2(B2PLYPD3) =    -0.1503197112D+00 E(B2PLYPD3) =    -0.11566303303291D+03

 The electronic state is 1-A.
 Alpha  occ. eigenvalues --  -19.73607 -10.63059  -1.13204  -0.79012  -0.57279
 Alpha  occ. eigenvalues --   -0.52342  -0.49378  -0.40735  -0.34828
 Alpha virt. eigenvalues --    0.03013   0.07856   0.12495   0.12910   0.15141
 Alpha virt. eigenvalues --    0.17155   0.17968   0.27749   0.29709   0.33294
 Alpha virt. eigenvalues --    0.34495   0.39293   0.39671   0.42182   0.45126

 Mulliken charges:
               1
     1  C    0.090046
     2  O   -0.496288
     3  H    0.041621
     4  H    0.044334
     5  H    0.070360
     6  H    0.249927
 Sum of Mulliken charges =   0.00000

 Dipole moment (field-independent basis, Debye):
    X=              0.8597    Y=              1.6672    Z=             -0.1275  Tot=              1.8801
 Quadrupole moment (field-independent basis, Debye-Ang):
   XX=            -12.8369   YY=            -11.7753   ZZ=            -13.9227
   XY=             -2.4174   XZ=              0.0795   YZ=             -0.0897

 Normal termination of Gaussian 09 at Wed Aug 26 15:26:40 2020.
