 Gaussian 09, Revision D.01,
 Gaussian 09:  ES64L-G09RevD.01 24-Apr-2013

 --------------------
 #p B2PLYPD3/Def2QZVP
 --------------------

 --------
 methanol
 --------
 Symbolic Z-matrix:
 Charge =  0 Multiplicity = 1

                         Standard orientation:
 ---------------------------------------------------------------------
 Center     Atomic      Atomic             Coordinates (Angstroms)
 Number     Number       Type             X           Y           Z
 ---------------------------------------------------------------------
      1          6           0       -0.676481    0.011909    0.006871
      2          8           0        0.750465   -0.128624   -0.009863
      3          1           0       -1.059283    0.562071   -0.884175
      4          1           0       -1.009996    0.513202    0.885679
      5          1           0       -1.044374   -0.936155   -0.001250
      6          1           0        1.168818    0.818425    0.037422
 ---------------------------------------------------------------------

 SCF Done:  E(RB2PLYPD3) =  -115.542661549     A.U. after   10 cycles
 E2(B2PLYPD3) =    -0.1486027021D+00 E(B2PLYPD3) =    -0.11569126425079D+03

 The electronic state is 1-A.
 Alpha  occ. eigenvalues --  -19.73027 -10.64774  -1.14207  -0.78902  -0.57498
 Alpha  occ. eigenvalues --   -0.51380  -0.50093  -0.41264  -0.35136
 Alpha virt. eigenvalues --    0.04451   0.07988   0.12404   0.12657   0.14842
 Alpha virt. eigenvalues --    0.17162   0.18168   0.29107   0.32439   0.33355
 Alpha virt. eigenvalues --    0.33360   0.38744   0.40546   0.40821   0.43949

 Mulliken charges:
               1
     1  C    0.075421
     2  O   -0.485451
     3  H    0.044258
     4  H    0.048220
     5  H    0.075665
     6  H    0.241886
 Sum of Mulliken charges =   0.00000

 Dipole moment (field-independent basis, Debye):
    X=             -0.9220    Y=              1.5208    Z=              0.1290  Tot=              1.7831
 Quadrupole moment (field-independent basis, Debye-Ang):
   XX=            -12.9724   YY=            -12.0641   ZZ=            -13.8157
   XY=              2.3720   XZ=              0.0828   YZ=              0.0829

 Normal termination of Gaussian 09 at Wed Aug 26 14:50:02 2020.
