 Gaussian 09, Revision D.01,
 Gaussian 09:  ES64L-G09RevD.01 24-Apr-2013

 --------------------
 #p B2PLYPD3/Def2QZVP
 --------------------

 --------
 methanol
 --------
 Symbolic Z-matrix:
 Charge =  0 Multiplicity = 1

                         Standard orientation:
 ---------------------------------------------------------------------
 Center     Atomic      Atomic             Coordinates (Angstroms)
 Number     Number       Type             X           Y           Z
 ---------------------------------------------------------------------
      1          6           0       -0.661885    0.017293    0.006075
      2          8           0        0.742896   -0.133184   -0.011921
      3          1           0       -1.078670    0.578067   -0.863342
      4          1           0       -1.006701    0.505893    0.885020
      5          1           0       -1.085323   -0.936708   -0.004385
      6          1           0        1.198835    0.814461    0.041628
 ---------------------------------------------------------------------

 SCF Done:  E(RB2PLYPD3) =  -115.542233186     A.U. after   11 cycles
 E2(B2PLYPD3) =    -0.1486844208D+00 E(B2PLYPD3) =    -0.11569091760633D+03

 The electronic state is 1-A.
 Alpha  occ. eigenvalues --  -19.73323 -10.64864  -1.14645  -0.78545  -0.57667
 Alpha  occ. eigenvalues --   -0.51371  -0.50282  -0.40753  -0.35059
 Alpha virt. eigenvalues --    0.04269   0.07856   0.12533   0.12682   0.14966
 Alpha virt. eigenvalues --    0.17326   0.18271   0.29113   0.31644   0.33335
 Alpha virt. eigenvalues --    0.34196   0.38950   0.40182   0.40857   0.43845

 Mulliken charges:
               1
     1  C    0.072892
     2  O   -0.479702
     3  H    0.041292
     4  H    0.045988
     5  H    0.071509
     6  H    0.248022
 Sum of Mulliken charges =   0.00000

 Dipole moment (field-independent basis, Debye):
    X=             -0.7907    Y=              1.5368    Z=              0.1464  Tot=              1.7345
 Quadrupole moment (field-independent basis, Debye-Ang):
   XX=            -12.7689   YY=            -12.1751   ZZ=            -13.9085
   XY=              2.4360   XZ=              0.1097   YZ=              0.0858

 Normal termination of Gaussian 09 at Thu Aug 27 00:12:39 2020.
