 Gaussian 09, Revision D.01,
 Gaussian 09:  ES64L-G09RevD.01 24-Apr-2013

 --------------------
 #p B2PLYPD3/Def2QZVP
 --------------------

 --------
 methanol
 --------
 Symbolic Z-matrix:
 Charge =  0 Multiplicity = 1

                         Standard orientation:
 ---------------------------------------------------------------------
 Center     Atomic      Atomic             Coordinates (Angstroms)
 Number     Number       Type             X           Y           Z
 ---------------------------------------------------------------------
      1          6           0        0.664059   -0.041588    0.028930
      2          8           0       -0.747090    0.081024   -0.016527
      3          1           0        0.897928   -0.914973   -0.761362
      4          1           0        0.990636   -0.263845    0.977115
      5          1           0        1.183368    1.137966   -0.342890
      6          1           0       -1.079562   -0.357811    0.085773
 ---------------------------------------------------------------------

 SCF Done:  E(RB2PLYPD3) =  -115.053235684     A.U. after   11 cycles
 E2(B2PLYPD3) =    -0.1432285440D+00 E(B2PLYPD3) =    -0.11519646422813D+03

 The electronic state is 1-A.
 Alpha  occ. eigenvalues --  -19.68200 -10.69660  -1.30643  -0.84181  -0.63578
 Alpha  occ. eigenvalues --   -0.52981  -0.48860  -0.39485  -0.36785
 Alpha virt. eigenvalues --    0.04673   0.09675   0.10693   0.11848   0.14318
 Alpha virt. eigenvalues --    0.16831   0.17356   0.28267   0.30601   0.32180
 Alpha virt. eigenvalues --    0.33073   0.36964   0.40623   0.42559   0.43085

 Mulliken charges:
               1
     1  C    0.057235
     2  O   -0.114669
     3  H    0.048531
     4  H    0.075844
     5  H    0.061694
     6  H   -0.128635
 Sum of Mulliken charges =   0.00000

 Dipole moment (field-independent basis, Debye):
    X=              0.9255    Y=             -1.1673    Z=              0.4239  Tot=              1.5488
 Quadrupole moment (field-independent basis, Debye-Ang):
   XX=            -13.0923   YY=            -12.6341   ZZ=            -13.3245
   XY=              1.7324   XZ=             -0.1197   YZ=             -0.1537

 Normal termination of Gaussian 09 at Wed Aug 26 23:06:01 2020.
