 Gaussian 09, Revision D.01,
 Gaussian 09:  ES64L-G09RevD.01 24-Apr-2013

 --------------------
 #p B2PLYPD3/Def2QZVP
 --------------------

 --------
 methanol
 --------
 Symbolic Z-matrix:
 Charge =  0 Multiplicity = 1

                         Standard orientation:
 ---------------------------------------------------------------------
 Center     Atomic      Atomic             Coordinates (Angstroms)
 Number     Number       Type             X           Y           Z
 ---------------------------------------------------------------------
      1          6           0        0.631013    0.037686    0.021260
      2          8           0       -0.719045   -0.177870   -0.029236
      3          1           0        0.922910    0.330350    0.919461
      4          1           0        1.070977    0.652380   -0.798188
      5          1           0        1.221686   -0.769710   -0.105656
      6          1           0       -1.249291    0.983820    0.090713
 ---------------------------------------------------------------------

 SCF Done:  E(RB2PLYPD3) =  -115.474332741     A.U. after   12 cycles
 E2(B2PLYPD3) =    -0.1524896734D+00 E(B2PLYPD3) =    -0.11562682241420D+03

 The electronic state is 1-A.
 Alpha  occ. eigenvalues --  -19.74849 -10.62940  -1.14196  -0.78854  -0.54866
 Alpha  occ. eigenvalues --   -0.53233  -0.51067  -0.38278  -0.35034
 Alpha virt. eigenvalues --    0.00612   0.07416   0.12495   0.13358   0.14511
 Alpha virt. eigenvalues --    0.18408   0.18903   0.23907   0.29122   0.33241
 Alpha virt. eigenvalues --    0.35423   0.39128   0.41629   0.42289   0.43217

 Mulliken charges:
               1
     1  C    0.074438
     2  O   -0.473734
     3  H    0.049338
     4  H    0.035361
     5  H    0.051383
     6  H    0.263213
 Sum of Mulliken charges =   0.00000

 Dipole moment (field-independent basis, Debye):
    X=              0.7048    Y=              1.6213    Z=              0.2722  Tot=              1.7887
 Quadrupole moment (field-independent basis, Debye-Ang):
   XX=            -12.5674   YY=            -12.2503   ZZ=            -13.8277
   XY=             -2.8082   XZ=             -0.2845   YZ=              0.1668

 Normal termination of Gaussian 09 at Wed Aug 26 22:37:25 2020.
