 Gaussian 09, Revision D.01,
 Gaussian 09:  ES64L-G09RevD.01 24-Apr-2013

 --------------------
 #p B2PLYPD3/Def2QZVP
 --------------------

 --------
 methanol
 --------
 Symbolic Z-matrix:
 Charge =  0 Multiplicity = 1

                         Standard orientation:
 ---------------------------------------------------------------------
 Center     Atomic      Atomic             Coordinates (Angstroms)
 Number     Number       Type             X           Y           Z
 ---------------------------------------------------------------------
      1          6           0       -0.661096   -0.034342   -0.004566
      2          8           0        0.757681    0.090143   -0.015067
      3          1           0       -0.975399   -0.532930    0.960355
      4          1           0       -1.073179   -0.602244   -0.890966
      5          1           0       -1.163639    1.114257    0.014897
      6          1           0        1.117339   -0.494174    0.063646
 ---------------------------------------------------------------------

 SCF Done:  E(RB2PLYPD3) =  -115.401438461     A.U. after   11 cycles
 E2(B2PLYPD3) =    -0.1441609192D+00 E(B2PLYPD3) =    -0.11554559938027D+03

 The electronic state is 1-A.
 Alpha  occ. eigenvalues --  -19.69792 -10.68902  -1.24455  -0.81164  -0.62077
 Alpha  occ. eigenvalues --   -0.51943  -0.49191  -0.40059  -0.36459
 Alpha virt. eigenvalues --    0.05210   0.09097   0.11457   0.12013   0.14472
 Alpha virt. eigenvalues --    0.17091   0.17826   0.28717   0.32414   0.33125
 Alpha virt. eigenvalues --    0.33911   0.38797   0.39406   0.40189   0.42646

 Mulliken charges:
               1
     1  C    0.052850
     2  O   -0.243748
     3  H    0.053981
     4  H    0.061607
     5  H    0.064957
     6  H    0.010352
 Sum of Mulliken charges =   0.00000

 Dipole moment (field-independent basis, Debye):
    X=             -0.8996    Y=             -1.3000    Z=              0.1785  Tot=              1.5910
 Quadrupole moment (field-independent basis, Debye-Ang):
   XX=            -12.9238   YY=            -12.6930   ZZ=            -13.5795
   XY=             -1.8591   XZ=              0.2984   YZ=             -0.0349

 Normal termination of Gaussian 09 at Wed Aug 26 11:38:09 2020.
