 Gaussian 09, Revision D.01,
 Gaussian 09:  ES64L-G09RevD.01 24-Apr-2013

 --------------------
 #p B2PLYPD3/Def2QZVP
 --------------------

 --------
 methanol
 --------
 Symbolic Z-matrix:
 Charge =  0 Multiplicity = 1

                         Standard orientation:
 ---------------------------------------------------------------------
 Center     Atomic      Atomic             Coordinates (Angstroms)
 Number     Number       Type             X           Y           Z
 ---------------------------------------------------------------------
      1          6           0        0.662912   -0.012910    0.005491
      2          8           0       -0.763593    0.080404   -0.013737
      3          1           0        1.110563   -0.708160   -0.844687
      4          1           0        1.048900   -0.386479    1.010460
      5          1           0        1.053277    1.080364   -0.151593
      6          1           0       -1.081468   -0.551500    0.062766
 ---------------------------------------------------------------------

 SCF Done:  E(RB2PLYPD3) =  -115.434869275     A.U. after   11 cycles
 E2(B2PLYPD3) =    -0.1444508680D+00 E(B2PLYPD3) =    -0.11557932014293D+03

 The electronic state is 1-A.
 Alpha  occ. eigenvalues --  -19.70277 -10.68646  -1.23751  -0.80558  -0.61556
 Alpha  occ. eigenvalues --   -0.50947  -0.49772  -0.41258  -0.36199
 Alpha virt. eigenvalues --    0.05325   0.08953   0.11716   0.11943   0.14698
 Alpha virt. eigenvalues --    0.16906   0.17945   0.28674   0.32284   0.33077
 Alpha virt. eigenvalues --    0.36205   0.37673   0.39106   0.40369   0.42179

 Mulliken charges:
               1
     1  C    0.048778
     2  O   -0.259554
     3  H    0.047268
     4  H    0.055546
     5  H    0.076423
     6  H    0.031538
 Sum of Mulliken charges =   0.00000

 Dipole moment (field-independent basis, Debye):
    X=              0.9520    Y=             -1.2334    Z=              0.1959  Tot=              1.5703
 Quadrupole moment (field-independent basis, Debye-Ang):
   XX=            -13.1316   YY=            -12.5093   ZZ=            -13.6606
   XY=              1.8598   XZ=             -0.2225   YZ=             -0.1224

 Normal termination of Gaussian 09 at Wed Aug 26 14:07:11 2020.
