 Gaussian 09, Revision D.01,
 Gaussian 09:  ES64L-G09RevD.01 24-Apr-2013

 --------------------
 #p B2PLYPD3/Def2QZVP
 --------------------

 --------
 methanol
 --------
 Symbolic Z-matrix:
 Charge =  0 Multiplicity = 1

                         Standard orientation:
 ---------------------------------------------------------------------
 Center     Atomic      Atomic             Coordinates (Angstroms)
 Number     Number       Type             X           Y           Z
 ---------------------------------------------------------------------
      1          6           0       -0.641780   -0.008622    0.012126
      2          8           0        0.739442    0.092619   -0.027085
      3          1           0       -1.053564   -0.271308    1.044201
      4          1           0       -0.965083   -0.854857   -0.784519
      5          1           0       -1.184177    0.942735   -0.293543
      6          1           0        1.137963   -0.505795    0.177785
 ---------------------------------------------------------------------

 SCF Done:  E(RB2PLYPD3) =  -115.470913698     A.U. after   11 cycles
 E2(B2PLYPD3) =    -0.1442784930D+00 E(B2PLYPD3) =    -0.11561519219114D+03

 The electronic state is 1-A.
 Alpha  occ. eigenvalues --  -19.70648 -10.68261  -1.23110  -0.81020  -0.61870
 Alpha  occ. eigenvalues --   -0.51511  -0.51258  -0.39921  -0.35410
 Alpha virt. eigenvalues --    0.05370   0.08898   0.11807   0.12439   0.14335
 Alpha virt. eigenvalues --    0.17520   0.17867   0.28632   0.32321   0.34067
 Alpha virt. eigenvalues --    0.36285   0.38079   0.39189   0.40743   0.43085

 Mulliken charges:
               1
     1  C    0.051378
     2  O   -0.279809
     3  H    0.046309
     4  H    0.032708
     5  H    0.079762
     6  H    0.069653
 Sum of Mulliken charges =   0.00000

 Dipole moment (field-independent basis, Debye):
    X=             -0.6924    Y=             -1.0925    Z=              0.4589  Tot=              1.3725
 Quadrupole moment (field-independent basis, Debye-Ang):
   XX=            -12.7855   YY=            -12.9326   ZZ=            -13.6019
   XY=             -2.1493   XZ=              0.5272   YZ=             -0.2990

 Normal termination of Gaussian 09 at Wed Aug 26 20:51:38 2020.
