 Gaussian 09, Revision D.01,
 Gaussian 09:  ES64L-G09RevD.01 24-Apr-2013

 --------------------
 #p B2PLYPD3/Def2QZVP
 --------------------

 --------
 methanol
 --------
 Symbolic Z-matrix:
 Charge =  0 Multiplicity = 1

                         Standard orientation:
 ---------------------------------------------------------------------
 Center     Atomic      Atomic             Coordinates (Angstroms)
 Number     Number       Type             X           Y           Z
 ---------------------------------------------------------------------
      1          6           0       -0.661373    0.016922   -0.008398
      2          8           0        0.750353   -0.154076    0.005069
      3          1           0       -1.068181    0.474044   -0.811801
      4          1           0       -0.961472    0.624427    0.815837
      5          1           0       -1.145824   -0.901548    0.066960
      6          1           0        1.140889    0.934149   -0.061160
 ---------------------------------------------------------------------

 SCF Done:  E(RB2PLYPD3) =  -115.515487012     A.U. after   11 cycles
 E2(B2PLYPD3) =    -0.1507374264D+00 E(B2PLYPD3) =    -0.11566622443870D+03

 The electronic state is 1-A.
 Alpha  occ. eigenvalues --  -19.74205 -10.63641  -1.13301  -0.79095  -0.56508
 Alpha  occ. eigenvalues --   -0.51932  -0.49640  -0.41104  -0.35058
 Alpha virt. eigenvalues --    0.02913   0.07695   0.12626   0.12765   0.14859
 Alpha virt. eigenvalues --    0.17911   0.18153   0.27386   0.29740   0.33028
 Alpha virt. eigenvalues --    0.34281   0.39274   0.39787   0.41851   0.44097

 Mulliken charges:
               1
     1  C    0.091487
     2  O   -0.487232
     3  H    0.041786
     4  H    0.036426
     5  H    0.063363
     6  H    0.254171
 Sum of Mulliken charges =   0.00000

 Dipole moment (field-independent basis, Debye):
    X=             -0.9899    Y=              1.6873    Z=             -0.1454  Tot=              1.9616
 Quadrupole moment (field-independent basis, Debye-Ang):
   XX=            -13.0354   YY=            -11.7890   ZZ=            -14.0081
   XY=              2.4093   XZ=              0.0046   YZ=             -0.1199

 Normal termination of Gaussian 09 at Wed Aug 26 11:22:44 2020.
