 Gaussian 09, Revision D.01,
 Gaussian 09:  ES64L-G09RevD.01 24-Apr-2013

 --------------------
 #p B2PLYPD3/Def2QZVP
 --------------------

 --------
 methanol
 --------
 Symbolic Z-matrix:
 Charge =  0 Multiplicity = 1

                         Standard orientation:
 ---------------------------------------------------------------------
 Center     Atomic      Atomic             Coordinates (Angstroms)
 Number     Number       Type             X           Y           Z
 ---------------------------------------------------------------------
      1          6           0        0.669682    0.024919    0.003715
      2          8           0       -0.744728   -0.146198   -0.001688
      3          1           0        0.998670    0.485479    0.865738
      4          1           0        0.986823    0.559120   -0.842829
      5          1           0        1.083750   -0.919659   -0.042314
      6          1           0       -1.129509    0.895126    0.010614
 ---------------------------------------------------------------------

 SCF Done:  E(RB2PLYPD3) =  -115.528835249     A.U. after   11 cycles
 E2(B2PLYPD3) =    -0.1496919610D+00 E(B2PLYPD3) =    -0.11567852720968D+03

 The electronic state is 1-A.
 Alpha  occ. eigenvalues --  -19.73530 -10.63609  -1.13633  -0.78961  -0.56794
 Alpha  occ. eigenvalues --   -0.52799  -0.49466  -0.41071  -0.35232
 Alpha virt. eigenvalues --    0.03672   0.07967   0.12546   0.12666   0.14777
 Alpha virt. eigenvalues --    0.17499   0.18151   0.28711   0.30017   0.33417
 Alpha virt. eigenvalues --    0.33904   0.39357   0.40471   0.42420   0.43942

 Mulliken charges:
               1
     1  C    0.086151
     2  O   -0.490720
     3  H    0.047081
     4  H    0.043959
     5  H    0.065374
     6  H    0.248155
 Sum of Mulliken charges =   0.00000

 Dipole moment (field-independent basis, Debye):
    X=              1.0070    Y=              1.6326    Z=              0.0289  Tot=              1.9184
 Quadrupole moment (field-independent basis, Debye-Ang):
   XX=            -13.1783   YY=            -11.8778   ZZ=            -13.7593
   XY=             -2.3560   XZ=             -0.0080   YZ=              0.0320

 Normal termination of Gaussian 09 at Thu Aug 27 00:02:29 2020.
