 Gaussian 09, Revision D.01,
 Gaussian 09:  ES64L-G09RevD.01 24-Apr-2013

 --------------------
 #p B2PLYPD3/Def2QZVP
 --------------------

 --------
 methanol
 --------
 Symbolic Z-matrix:
 Charge =  0 Multiplicity = 1

                         Standard orientation:
 ---------------------------------------------------------------------
 Center     Atomic      Atomic             Coordinates (Angstroms)
 Number     Number       Type             X           Y           Z
 ---------------------------------------------------------------------
      1          6           0        0.665783   -0.025429   -0.003310
      2          8           0       -0.745584    0.117240   -0.004381
      3          1           0        1.057440   -0.557768   -0.871881
      4          1           0        1.006985   -0.530219    0.908522
      5          1           0        1.083982    1.008326    0.006944
      6          1           0       -1.178436   -0.705683    0.011323
 ---------------------------------------------------------------------

 SCF Done:  E(RB2PLYPD3) =  -115.551826805     A.U. after   10 cycles
 E2(B2PLYPD3) =    -0.1467430959D+00 E(B2PLYPD3) =    -0.11569856990083D+03

 The electronic state is 1-A.
 Alpha  occ. eigenvalues --  -19.72186 -10.66015  -1.16625  -0.78862  -0.59242
 Alpha  occ. eigenvalues --   -0.51753  -0.49698  -0.40651  -0.35447
 Alpha virt. eigenvalues --    0.05139   0.08272   0.12320   0.12421   0.14883
 Alpha virt. eigenvalues --    0.17134   0.18132   0.29130   0.33286   0.33717
 Alpha virt. eigenvalues --    0.35990   0.38512   0.39659   0.40879   0.43420

 Mulliken charges:
               1
     1  C    0.067813
     2  O   -0.450857
     3  H    0.051342
     4  H    0.048719
     5  H    0.069827
     6  H    0.213156
 Sum of Mulliken charges =   0.00000

 Dipole moment (field-independent basis, Debye):
    X=              0.8022    Y=             -1.4772    Z=              0.0290  Tot=              1.6812
 Quadrupole moment (field-independent basis, Debye-Ang):
   XX=            -12.8172   YY=            -12.3628   ZZ=            -13.7840
   XY=              2.2359   XZ=             -0.0833   YZ=              0.0097

 Normal termination of Gaussian 09 at Thu Aug 27 00:15:12 2020.
