 Gaussian 09, Revision D.01,
 Gaussian 09:  ES64L-G09RevD.01 24-Apr-2013

 --------------------
 #p B2PLYPD3/Def2QZVP
 --------------------

 --------
 methanol
 --------
 Symbolic Z-matrix:
 Charge =  0 Multiplicity = 1

                         Standard orientation:
 ---------------------------------------------------------------------
 Center     Atomic      Atomic             Coordinates (Angstroms)
 Number     Number       Type             X           Y           Z
 ---------------------------------------------------------------------
      1          6           0        0.659637    0.021262   -0.015679
      2          8           0       -0.747888   -0.159667    0.007010
      3          1           0        0.999820    0.584358    0.860249
      4          1           0        1.097997    0.472798   -0.813201
      5          1           0        1.132656   -0.868849    0.053846
      6          1           0       -1.205187    0.961455   -0.062900
 ---------------------------------------------------------------------

 SCF Done:  E(RB2PLYPD3) =  -115.500934176     A.U. after   11 cycles
 E2(B2PLYPD3) =    -0.1518691342D+00 E(B2PLYPD3) =    -0.11565280331012D+03

 The electronic state is 1-A.
 Alpha  occ. eigenvalues --  -19.74650 -10.63614  -1.12834  -0.79098  -0.55737
 Alpha  occ. eigenvalues --   -0.51527  -0.49934  -0.40493  -0.35045
 Alpha virt. eigenvalues --    0.02084   0.07490   0.12678   0.12857   0.14815
 Alpha virt. eigenvalues --    0.17755   0.18537   0.25852   0.29555   0.33102
 Alpha virt. eigenvalues --    0.34567   0.38716   0.40085   0.41566   0.43933

 Mulliken charges:
               1
     1  C    0.084538
     2  O   -0.486871
     3  H    0.036933
     4  H    0.045207
     5  H    0.062480
     6  H    0.257714
 Sum of Mulliken charges =   0.00000

 Dipole moment (field-independent basis, Debye):
    X=              0.9004    Y=              1.6540    Z=             -0.1661  Tot=              1.8905
 Quadrupole moment (field-independent basis, Debye-Ang):
   XX=            -12.7697   YY=            -11.9234   ZZ=            -14.0181
   XY=             -2.5616   XZ=             -0.0099   YZ=             -0.1524

 Normal termination of Gaussian 09 at Wed Aug 26 15:11:58 2020.
