 Gaussian 09, Revision D.01,
 Gaussian 09:  ES64L-G09RevD.01 24-Apr-2013

 --------------------
 #p B2PLYPD3/Def2QZVP
 --------------------

 --------
 methanol
 --------
 Symbolic Z-matrix:
 Charge =  0 Multiplicity = 1

                         Standard orientation:
 ---------------------------------------------------------------------
 Center     Atomic      Atomic             Coordinates (Angstroms)
 Number     Number       Type             X           Y           Z
 ---------------------------------------------------------------------
      1          6           0        0.652630   -0.029095   -0.000924
      2          8           0       -0.746400    0.109341   -0.003156
      3          1           0        1.025016   -0.600131   -0.870891
      4          1           0        1.059685   -0.472076    0.924326
      5          1           0        1.087899    1.042079   -0.057747
      6          1           0       -1.117184   -0.670032    0.035103
 ---------------------------------------------------------------------

 SCF Done:  E(RB2PLYPD3) =  -115.540561098     A.U. after   10 cycles
 E2(B2PLYPD3) =    -0.1458382232D+00 E(B2PLYPD3) =    -0.11568639932087D+03

 The electronic state is 1-A.
 Alpha  occ. eigenvalues --  -19.71897 -10.66668  -1.19041  -0.79059  -0.60468
 Alpha  occ. eigenvalues --   -0.51995  -0.49643  -0.40698  -0.35785
 Alpha virt. eigenvalues --    0.05283   0.08556   0.12101   0.12320   0.14889
 Alpha virt. eigenvalues --    0.17207   0.18174   0.28945   0.33345   0.33867
 Alpha virt. eigenvalues --    0.36902   0.38083   0.39926   0.40675   0.42968

 Mulliken charges:
               1
     1  C    0.059544
     2  O   -0.400584
     3  H    0.050545
     4  H    0.051152
     5  H    0.063179
     6  H    0.176163
 Sum of Mulliken charges =   0.00000

 Dipole moment (field-independent basis, Debye):
    X=              0.8101    Y=             -1.4498    Z=              0.0734  Tot=              1.6624
 Quadrupole moment (field-independent basis, Debye-Ang):
   XX=            -13.0369   YY=            -12.4336   ZZ=            -13.7432
   XY=              2.0691   XZ=             -0.0649   YZ=             -0.0271

 Normal termination of Gaussian 09 at Thu Aug 27 00:08:31 2020.
