 Gaussian 09, Revision D.01,
 Gaussian 09:  ES64L-G09RevD.01 24-Apr-2013

 --------------------
 #p B2PLYPD3/Def2QZVP
 --------------------

 --------
 methanol
 --------
 Symbolic Z-matrix:
 Charge =  0 Multiplicity = 1

                         Standard orientation:
 ---------------------------------------------------------------------
 Center     Atomic      Atomic             Coordinates (Angstroms)
 Number     Number       Type             X           Y           Z
 ---------------------------------------------------------------------
      1          6           0        0.657904    0.018928    0.005947
      2          8           0       -0.743617   -0.132741   -0.006439
      3          1           0        1.051446    0.468187    0.885406
      4          1           0        1.004743    0.602085   -0.864370
      5          1           0        1.089119   -0.940944   -0.058321
      6          1           0       -1.143793    0.819029    0.053111
 ---------------------------------------------------------------------

 SCF Done:  E(RB2PLYPD3) =  -115.545515956     A.U. after   10 cycles
 E2(B2PLYPD3) =    -0.1483534536D+00 E(B2PLYPD3) =    -0.11569386940944D+03

 The electronic state is 1-A.
 Alpha  occ. eigenvalues --  -19.73255 -10.64820  -1.15217  -0.78541  -0.57938
 Alpha  occ. eigenvalues --   -0.51823  -0.50132  -0.40989  -0.35185
 Alpha virt. eigenvalues --    0.04407   0.08017   0.12465   0.12645   0.14904
 Alpha virt. eigenvalues --    0.17447   0.18249   0.29094   0.32145   0.33272
 Alpha virt. eigenvalues --    0.34430   0.39018   0.40092   0.41335   0.44001

 Mulliken charges:
               1
     1  C    0.072178
     2  O   -0.471283
     3  H    0.046613
     4  H    0.040998
     5  H    0.068254
     6  H    0.243239
 Sum of Mulliken charges =   0.00000

 Dipole moment (field-independent basis, Debye):
    X=              0.8583    Y=              1.5453    Z=              0.1328  Tot=              1.7727
 Quadrupole moment (field-independent basis, Debye-Ang):
   XX=            -13.0164   YY=            -12.1293   ZZ=            -13.8424
   XY=             -2.3570   XZ=             -0.0530   YZ=              0.1015

 Normal termination of Gaussian 09 at Wed Aug 26 12:22:26 2020.
