 Gaussian 09, Revision D.01,
 Gaussian 09:  ES64L-G09RevD.01 24-Apr-2013

 --------------------
 #p B2PLYPD3/Def2QZVP
 --------------------

 --------
 methanol
 --------
 Symbolic Z-matrix:
 Charge =  0 Multiplicity = 1

                         Standard orientation:
 ---------------------------------------------------------------------
 Center     Atomic      Atomic             Coordinates (Angstroms)
 Number     Number       Type             X           Y           Z
 ---------------------------------------------------------------------
      1          6           0       -0.677799   -0.020673   -0.002880
      2          8           0        0.745203    0.081759   -0.004114
      3          1           0       -1.063715   -0.481355    0.986369
      4          1           0       -0.971287   -0.645624   -0.923596
      5          1           0       -1.051955    1.079388   -0.080187
      6          1           0        1.192131   -0.482444    0.067607
 ---------------------------------------------------------------------

 SCF Done:  E(RB2PLYPD3) =  -115.445661963     A.U. after   11 cycles
 E2(B2PLYPD3) =    -0.1442721936D+00 E(B2PLYPD3) =    -0.11558993415691D+03

 The electronic state is 1-A.
 Alpha  occ. eigenvalues --  -19.69381 -10.68635  -1.22042  -0.81483  -0.60856
 Alpha  occ. eigenvalues --   -0.51536  -0.49923  -0.39593  -0.35779
 Alpha virt. eigenvalues --    0.05381   0.09095   0.11862   0.11931   0.14315
 Alpha virt. eigenvalues --    0.16646   0.17762   0.28975   0.32059   0.33031
 Alpha virt. eigenvalues --    0.36810   0.38138   0.39084   0.40354   0.42254

 Mulliken charges:
               1
     1  C    0.056978
     2  O   -0.281151
     3  H    0.053047
     4  H    0.056676
     5  H    0.082994
     6  H    0.031456
 Sum of Mulliken charges =   0.00000

 Dipole moment (field-independent basis, Debye):
    X=             -0.7954    Y=             -1.1707    Z=              0.1437  Tot=              1.4226
 Quadrupole moment (field-independent basis, Debye-Ang):
   XX=            -12.7434   YY=            -12.6903   ZZ=            -13.5214
   XY=             -1.9619   XZ=              0.1469   YZ=             -0.0590

 Normal termination of Gaussian 09 at Wed Aug 26 14:18:09 2020.
