 Gaussian 09, Revision D.01,
 Gaussian 09:  ES64L-G09RevD.01 24-Apr-2013

 --------------------
 #p B2PLYPD3/Def2QZVP
 --------------------

 --------
 methanol
 --------
 Symbolic Z-matrix:
 Charge =  0 Multiplicity = 1

                         Standard orientation:
 ---------------------------------------------------------------------
 Center     Atomic      Atomic             Coordinates (Angstroms)
 Number     Number       Type             X           Y           Z
 ---------------------------------------------------------------------
      1          6           0       -0.658446    0.016948    0.008763
      2          8           0        0.738039   -0.145293   -0.015584
      3          1           0       -1.056293    0.594632   -0.850174
      4          1           0       -0.989260    0.484566    0.868423
      5          1           0       -1.097762   -0.898096   -0.010333
      6          1           0        1.189674    0.879556    0.064177
 ---------------------------------------------------------------------

 SCF Done:  E(RB2PLYPD3) =  -115.525831834     A.U. after   11 cycles
 E2(B2PLYPD3) =    -0.1497398903D+00 E(B2PLYPD3) =    -0.11567557172415D+03

 The electronic state is 1-A.
 Alpha  occ. eigenvalues --  -19.73776 -10.63957  -1.14036  -0.78710  -0.56949
 Alpha  occ. eigenvalues --   -0.51685  -0.50465  -0.40686  -0.34926
 Alpha virt. eigenvalues --    0.03440   0.07788   0.12599   0.12819   0.14938
 Alpha virt. eigenvalues --    0.17530   0.18271   0.28451   0.29812   0.33267
 Alpha virt. eigenvalues --    0.34558   0.39050   0.40766   0.41219   0.43882

 Mulliken charges:
               1
     1  C    0.079832
     2  O   -0.485081
     3  H    0.038045
     4  H    0.043670
     5  H    0.068607
     6  H    0.254928
 Sum of Mulliken charges =   0.00000

 Dipole moment (field-independent basis, Debye):
    X=             -0.8244    Y=              1.5870    Z=              0.2064  Tot=              1.8002
 Quadrupole moment (field-independent basis, Debye-Ang):
   XX=            -12.8567   YY=            -12.0183   ZZ=            -13.9046
   XY=              2.5046   XZ=              0.1249   YZ=              0.1289

 Normal termination of Gaussian 09 at Wed Aug 26 10:04:18 2020.
