 Gaussian 09, Revision D.01,
 Gaussian 09:  ES64L-G09RevD.01 24-Apr-2013

 --------------------
 #p B2PLYPD3/Def2QZVP
 --------------------

 --------
 methanol
 --------
 Symbolic Z-matrix:
 Charge =  0 Multiplicity = 1

                         Standard orientation:
 ---------------------------------------------------------------------
 Center     Atomic      Atomic             Coordinates (Angstroms)
 Number     Number       Type             X           Y           Z
 ---------------------------------------------------------------------
      1          6           0        0.675567    0.031660   -0.014278
      2          8           0       -0.735064   -0.145734    0.016010
      3          1           0        1.075806    0.548968    0.839486
      4          1           0        0.984898    0.501301   -0.813046
      5          1           0        1.003671   -0.964609   -0.015851
      6          1           0       -1.237267    0.890253   -0.052998
 ---------------------------------------------------------------------

 SCF Done:  E(RB2PLYPD3) =  -115.514128566     A.U. after   11 cycles
 E2(B2PLYPD3) =    -0.1504679588D+00 E(B2PLYPD3) =    -0.11566459652476D+03

 The electronic state is 1-A.
 Alpha  occ. eigenvalues --  -19.73690 -10.63408  -1.13024  -0.78998  -0.57236
 Alpha  occ. eigenvalues --   -0.52301  -0.48820  -0.40643  -0.35106
 Alpha virt. eigenvalues --    0.03215   0.07787   0.12413   0.12842   0.15203
 Alpha virt. eigenvalues --    0.16866   0.18265   0.28037   0.29642   0.33551
 Alpha virt. eigenvalues --    0.34193   0.38906   0.39200   0.41911   0.45447

 Mulliken charges:
               1
     1  C    0.080498
     2  O   -0.494323
     3  H    0.045936
     4  H    0.050074
     5  H    0.069424
     6  H    0.248392
 Sum of Mulliken charges =   0.00000

 Dipole moment (field-independent basis, Debye):
    X=              0.8533    Y=              1.6409    Z=             -0.1954  Tot=              1.8598
 Quadrupole moment (field-independent basis, Debye-Ang):
   XX=            -12.7874   YY=            -11.8838   ZZ=            -13.8803
   XY=             -2.3388   XZ=              0.1077   YZ=             -0.1291

 Normal termination of Gaussian 09 at Wed Aug 26 16:07:30 2020.
