 Gaussian 09, Revision D.01,
 Gaussian 09:  ES64L-G09RevD.01 24-Apr-2013

 --------------------
 #p B2PLYPD3/Def2QZVP
 --------------------

 --------
 methanol
 --------
 Symbolic Z-matrix:
 Charge =  0 Multiplicity = 1

                         Standard orientation:
 ---------------------------------------------------------------------
 Center     Atomic      Atomic             Coordinates (Angstroms)
 Number     Number       Type             X           Y           Z
 ---------------------------------------------------------------------
      1          6           0        0.674581    0.029021   -0.023333
      2          8           0       -0.730116   -0.189196   -0.009264
      3          1           0        1.002058    0.296143    0.938944
      4          1           0        0.817718    0.708357   -0.725716
      5          1           0        1.179912   -0.710138   -0.128260
      6          1           0       -1.206247    1.045085    0.129141
 ---------------------------------------------------------------------

 SCF Done:  E(RB2PLYPD3) =  -115.436547808     A.U. after   11 cycles
 E2(B2PLYPD3) =    -0.1537409720D+00 E(B2PLYPD3) =    -0.11559028877977D+03

 The electronic state is 1-A.
 Alpha  occ. eigenvalues --  -19.74437 -10.61450  -1.11860  -0.80536  -0.56373
 Alpha  occ. eigenvalues --   -0.52472  -0.50057  -0.39341  -0.34666
 Alpha virt. eigenvalues --   -0.00036   0.07668   0.12392   0.13108   0.14275
 Alpha virt. eigenvalues --    0.17868   0.18735   0.23614   0.29369   0.32527
 Alpha virt. eigenvalues --    0.33337   0.39651   0.41185   0.42396   0.45676

 Mulliken charges:
               1
     1  C    0.082778
     2  O   -0.493819
     3  H    0.040906
     4  H    0.045573
     5  H    0.075567
     6  H    0.248995
 Sum of Mulliken charges =   0.00000

 Dipole moment (field-independent basis, Debye):
    X=              1.0406    Y=              1.6708    Z=              0.1361  Tot=              1.9731
 Quadrupole moment (field-independent basis, Debye-Ang):
   XX=            -12.9275   YY=            -11.6891   ZZ=            -13.7503
   XY=             -2.8215   XZ=             -0.2099   YZ=              0.0146

 Normal termination of Gaussian 09 at Wed Aug 26 22:01:51 2020.
