 Gaussian 09, Revision D.01,
 Gaussian 09:  ES64L-G09RevD.01 24-Apr-2013

 --------------------
 #p B2PLYPD3/Def2QZVP
 --------------------

 --------
 methanol
 --------
 Symbolic Z-matrix:
 Charge =  0 Multiplicity = 1

                         Standard orientation:
 ---------------------------------------------------------------------
 Center     Atomic      Atomic             Coordinates (Angstroms)
 Number     Number       Type             X           Y           Z
 ---------------------------------------------------------------------
      1          6           0       -0.669525   -0.003897   -0.012715
      2          8           0        0.783199   -0.030373   -0.030728
      3          1           0       -1.208059    1.174894    0.008520
      4          1           0       -1.139754   -0.657352    0.961780
      5          1           0       -0.964889   -0.548055   -0.954968
      6          1           0        1.064261    0.296881    0.306786
 ---------------------------------------------------------------------

 SCF Done:  E(RB2PLYPD3) =  -115.004894257     A.U. after   12 cycles
 E2(B2PLYPD3) =    -0.1443467076D+00 E(B2PLYPD3) =    -0.11514924096423D+03

 The electronic state is 1-A.
 Alpha  occ. eigenvalues --  -19.69169 -10.71288  -1.31349  -0.83096  -0.61742
 Alpha  occ. eigenvalues --   -0.50738  -0.49372  -0.41422  -0.36385
 Alpha virt. eigenvalues --    0.04788   0.08938   0.10657   0.11842   0.14298
 Alpha virt. eigenvalues --    0.16479   0.18050   0.28129   0.30269   0.31547
 Alpha virt. eigenvalues --    0.32521   0.35979   0.38719   0.41231   0.42208

 Mulliken charges:
               1
     1  C    0.034986
     2  O   -0.098554
     3  H    0.044465
     4  H    0.052251
     5  H    0.101753
     6  H   -0.134902
 Sum of Mulliken charges =   0.00000

 Dipole moment (field-independent basis, Debye):
    X=             -1.0754    Y=              0.6672    Z=              0.6391  Tot=              1.4177
 Quadrupole moment (field-independent basis, Debye-Ang):
   XX=            -13.1232   YY=            -13.0784   ZZ=            -13.0952
   XY=              1.1044   XZ=              1.2648   YZ=              0.5018

 Normal termination of Gaussian 09 at Wed Aug 26 20:03:42 2020.
