 Gaussian 09, Revision D.01,
 Gaussian 09:  ES64L-G09RevD.01 24-Apr-2013

 --------------------
 #p B2PLYPD3/Def2QZVP
 --------------------

 --------
 methanol
 --------
 Symbolic Z-matrix:
 Charge =  0 Multiplicity = 1

                         Standard orientation:
 ---------------------------------------------------------------------
 Center     Atomic      Atomic             Coordinates (Angstroms)
 Number     Number       Type             X           Y           Z
 ---------------------------------------------------------------------
      1          6           0        0.662478   -0.017911    0.001051
      2          8           0       -0.752477    0.104536   -0.002074
      3          1           0        1.010054   -0.586640   -0.927287
      4          1           0        1.029660   -0.519762    0.953081
      5          1           0        1.133486    0.996670   -0.034883
      6          1           0       -1.128245   -0.619094    0.019374
 ---------------------------------------------------------------------

 SCF Done:  E(RB2PLYPD3) =  -115.523402029     A.U. after   10 cycles
 E2(B2PLYPD3) =    -0.1452574493D+00 E(B2PLYPD3) =    -0.11566865947831D+03

 The electronic state is 1-A.
 Alpha  occ. eigenvalues --  -19.71176 -10.67356  -1.19828  -0.79643  -0.60319
 Alpha  occ. eigenvalues --   -0.51502  -0.50410  -0.40663  -0.35708
 Alpha virt. eigenvalues --    0.05385   0.08692   0.11978   0.12389   0.14428
 Alpha virt. eigenvalues --    0.17361   0.17988   0.28866   0.32953   0.33107
 Alpha virt. eigenvalues --    0.36737   0.39276   0.39560   0.39657   0.43223

 Mulliken charges:
               1
     1  C    0.061758
     2  O   -0.371597
     3  H    0.047619
     4  H    0.048990
     5  H    0.075666
     6  H    0.137564
 Sum of Mulliken charges =   0.00000

 Dipole moment (field-independent basis, Debye):
    X=              0.8725    Y=             -1.3221    Z=              0.0437  Tot=              1.5846
 Quadrupole moment (field-independent basis, Debye-Ang):
   XX=            -12.9577   YY=            -12.5753   ZZ=            -13.6519
   XY=              2.2065   XZ=             -0.0408   YZ=             -0.0308

 Normal termination of Gaussian 09 at Wed Aug 26 10:53:13 2020.
