 Gaussian 09, Revision D.01,
 Gaussian 09:  ES64L-G09RevD.01 24-Apr-2013

 --------------------
 #p B2PLYPD3/Def2QZVP
 --------------------

 --------
 methanol
 --------
 Symbolic Z-matrix:
 Charge =  0 Multiplicity = 1

                         Standard orientation:
 ---------------------------------------------------------------------
 Center     Atomic      Atomic             Coordinates (Angstroms)
 Number     Number       Type             X           Y           Z
 ---------------------------------------------------------------------
      1          6           0        0.670642    0.031154   -0.028071
      2          8           0       -0.743075   -0.165440    0.017035
      3          1           0        1.053748    0.539090    0.843833
      4          1           0        0.913223    0.515339   -0.775140
      5          1           0        1.123805   -0.894302   -0.004293
      6          1           0       -1.170029    0.976471   -0.032248
 ---------------------------------------------------------------------

 SCF Done:  E(RB2PLYPD3) =  -115.484045062     A.U. after   11 cycles
 E2(B2PLYPD3) =    -0.1518027261D+00 E(B2PLYPD3) =    -0.11563584778787D+03

 The electronic state is 1-A.
 Alpha  occ. eigenvalues --  -19.74268 -10.62628  -1.12467  -0.79748  -0.56680
 Alpha  occ. eigenvalues --   -0.52535  -0.49058  -0.40747  -0.35101
 Alpha virt. eigenvalues --    0.02082   0.07676   0.12562   0.12821   0.14809
 Alpha virt. eigenvalues --    0.17699   0.18172   0.25842   0.29564   0.33098
 Alpha virt. eigenvalues --    0.33851   0.39230   0.40105   0.41929   0.44870

 Mulliken charges:
               1
     1  C    0.089805
     2  O   -0.496717
     3  H    0.039937
     4  H    0.055017
     5  H    0.062366
     6  H    0.249592
 Sum of Mulliken charges =   0.00000

 Dipole moment (field-independent basis, Debye):
    X=              1.0260    Y=              1.7117    Z=             -0.1790  Tot=              2.0037
 Quadrupole moment (field-independent basis, Debye-Ang):
   XX=            -13.0480   YY=            -11.6948   ZZ=            -13.8708
   XY=             -2.4519   XZ=              0.0733   YZ=             -0.1851

 Normal termination of Gaussian 09 at Wed Aug 26 11:08:54 2020.
