 Gaussian 09, Revision D.01,
 Gaussian 09:  ES64L-G09RevD.01 24-Apr-2013

 --------------------
 #p B2PLYPD3/Def2QZVP
 --------------------

 --------
 methanol
 --------
 Symbolic Z-matrix:
 Charge =  0 Multiplicity = 1

                         Standard orientation:
 ---------------------------------------------------------------------
 Center     Atomic      Atomic             Coordinates (Angstroms)
 Number     Number       Type             X           Y           Z
 ---------------------------------------------------------------------
      1          6           0        0.681443    0.044160   -0.007895
      2          8           0       -0.746148   -0.168359   -0.002097
      3          1           0        1.037495    0.443756    0.840251
      4          1           0        1.005684    0.587072   -0.759056
      5          1           0        1.096154   -0.922316   -0.046746
      6          1           0       -1.258810    0.973399    0.029696
 ---------------------------------------------------------------------

 SCF Done:  E(RB2PLYPD3) =  -115.487287481     A.U. after   11 cycles
 E2(B2PLYPD3) =    -0.1526358313D+00 E(B2PLYPD3) =    -0.11563992331242D+03

 The electronic state is 1-A.
 Alpha  occ. eigenvalues --  -19.74444 -10.62806  -1.11523  -0.79658  -0.55445
 Alpha  occ. eigenvalues --   -0.52975  -0.48370  -0.40274  -0.35359
 Alpha virt. eigenvalues --    0.01684   0.07524   0.12460   0.12970   0.14896
 Alpha virt. eigenvalues --    0.17238   0.18396   0.25196   0.29398   0.33435
 Alpha virt. eigenvalues --    0.33792   0.38779   0.39634   0.43276   0.44408

 Mulliken charges:
               1
     1  C    0.097104
     2  O   -0.502804
     3  H    0.048555
     4  H    0.048632
     5  H    0.060872
     6  H    0.247641
 Sum of Mulliken charges =   0.00000

 Dipole moment (field-independent basis, Debye):
    X=              0.9909    Y=              1.7315    Z=              0.0447  Tot=              1.9955
 Quadrupole moment (field-independent basis, Debye-Ang):
   XX=            -12.6865   YY=            -11.7816   ZZ=            -13.9294
   XY=             -2.4598   XZ=             -0.0420   YZ=             -0.0217

 Normal termination of Gaussian 09 at Wed Aug 26 11:34:40 2020.
