 Gaussian 09, Revision D.01,
 Gaussian 09:  ES64L-G09RevD.01 24-Apr-2013

 --------------------
 #p B2PLYPD3/Def2QZVP
 --------------------

 --------
 methanol
 --------
 Symbolic Z-matrix:
 Charge =  0 Multiplicity = 1

                         Standard orientation:
 ---------------------------------------------------------------------
 Center     Atomic      Atomic             Coordinates (Angstroms)
 Number     Number       Type             X           Y           Z
 ---------------------------------------------------------------------
      1          6           0        0.667614   -0.015307   -0.001567
      2          8           0       -0.745460    0.126313   -0.007055
      3          1           0        1.082243   -0.563838   -0.840797
      4          1           0        1.010064   -0.530374    0.874734
      5          1           0        1.028470    0.987859    0.012648
      6          1           0       -1.162787   -0.812310    0.019262
 ---------------------------------------------------------------------

 SCF Done:  E(RB2PLYPD3) =  -115.546625951     A.U. after   10 cycles
 E2(B2PLYPD3) =    -0.1483978285D+00 E(B2PLYPD3) =    -0.11569502377951D+03

 The electronic state is 1-A.
 Alpha  occ. eigenvalues --  -19.73082 -10.64961  -1.14866  -0.78538  -0.58264
 Alpha  occ. eigenvalues --   -0.51396  -0.49569  -0.41299  -0.35134
 Alpha virt. eigenvalues --    0.04488   0.08034   0.12354   0.12617   0.15131
 Alpha virt. eigenvalues --    0.17058   0.18103   0.29184   0.32736   0.33363
 Alpha virt. eigenvalues --    0.34147   0.38874   0.39542   0.41014   0.43908

 Mulliken charges:
               1
     1  C    0.072472
     2  O   -0.475025
     3  H    0.045972
     4  H    0.044906
     5  H    0.072200
     6  H    0.239476
 Sum of Mulliken charges =   0.00000

 Dipole moment (field-independent basis, Debye):
    X=              0.8616    Y=             -1.5614    Z=              0.0644  Tot=              1.7845
 Quadrupole moment (field-independent basis, Debye-Ang):
   XX=            -12.9981   YY=            -12.0034   ZZ=            -13.9290
   XY=              2.2465   XZ=             -0.0927   YZ=             -0.0148

 Normal termination of Gaussian 09 at Thu Aug 27 00:14:25 2020.
