 Gaussian 09, Revision D.01,
 Gaussian 09:  ES64L-G09RevD.01 24-Apr-2013

 --------------------
 #p B2PLYPD3/Def2QZVP
 --------------------

 --------
 methanol
 --------
 Symbolic Z-matrix:
 Charge =  0 Multiplicity = 1

                         Standard orientation:
 ---------------------------------------------------------------------
 Center     Atomic      Atomic             Coordinates (Angstroms)
 Number     Number       Type             X           Y           Z
 ---------------------------------------------------------------------
      1          6           0       -0.669407   -0.027631    0.012214
      2          8           0        0.741688    0.138854   -0.008654
      3          1           0       -1.004208   -0.477190    0.846709
      4          1           0       -1.027105   -0.589647   -0.835866
      5          1           0       -1.054408    0.972542   -0.049285
      6          1           0        1.168662   -0.850753    0.034388
 ---------------------------------------------------------------------

 SCF Done:  E(RB2PLYPD3) =  -115.534925933     A.U. after   11 cycles
 E2(B2PLYPD3) =    -0.1491299083D+00 E(B2PLYPD3) =    -0.11568405584134D+03

 The electronic state is 1-A.
 Alpha  occ. eigenvalues --  -19.73328 -10.64110  -1.14059  -0.78797  -0.57625
 Alpha  occ. eigenvalues --   -0.52373  -0.49140  -0.40997  -0.35236
 Alpha virt. eigenvalues --    0.04041   0.07975   0.12405   0.12678   0.15059
 Alpha virt. eigenvalues --    0.17182   0.18142   0.29061   0.30973   0.33513
 Alpha virt. eigenvalues --    0.34096   0.38806   0.39560   0.42100   0.44872

 Mulliken charges:
               1
     1  C    0.080659
     2  O   -0.486029
     3  H    0.050350
     4  H    0.043191
     5  H    0.066664
     6  H    0.245164
 Sum of Mulliken charges =   0.00000

 Dipole moment (field-independent basis, Debye):
    X=             -0.9006    Y=             -1.6254    Z=              0.1268  Tot=              1.8626
 Quadrupole moment (field-independent basis, Debye-Ang):
   XX=            -13.0079   YY=            -11.9526   ZZ=            -13.8389
   XY=             -2.2930   XZ=              0.0406   YZ=             -0.1064

 Normal termination of Gaussian 09 at Thu Aug 27 00:15:10 2020.
