 Gaussian 09, Revision D.01,
 Gaussian 09:  ES64L-G09RevD.01 24-Apr-2013

 --------------------
 #p B2PLYPD3/Def2QZVP
 --------------------

 --------
 methanol
 --------
 Symbolic Z-matrix:
 Charge =  0 Multiplicity = 1

                         Standard orientation:
 ---------------------------------------------------------------------
 Center     Atomic      Atomic             Coordinates (Angstroms)
 Number     Number       Type             X           Y           Z
 ---------------------------------------------------------------------
      1          6           0       -0.652926    0.020333    0.009303
      2          8           0        0.739302   -0.140487   -0.016456
      3          1           0       -1.066254    0.613813   -0.830912
      4          1           0       -0.983160    0.470748    0.872257
      5          1           0       -1.116430   -0.929586   -0.028467
      6          1           0        1.168981    0.846922    0.062957
 ---------------------------------------------------------------------

 SCF Done:  E(RB2PLYPD3) =  -115.536182855     A.U. after   11 cycles
 E2(B2PLYPD3) =    -0.1489963783D+00 E(B2PLYPD3) =    -0.11568517923355D+03

 The electronic state is 1-A.
 Alpha  occ. eigenvalues --  -19.73608 -10.64383  -1.14804  -0.78541  -0.57647
 Alpha  occ. eigenvalues --   -0.51812  -0.50231  -0.40739  -0.35058
 Alpha virt. eigenvalues --    0.03937   0.07850   0.12593   0.12713   0.14996
 Alpha virt. eigenvalues --    0.17590   0.18235   0.29024   0.30610   0.33295
 Alpha virt. eigenvalues --    0.34675   0.39214   0.39988   0.41314   0.44149

 Mulliken charges:
               1
     1  C    0.077119
     2  O   -0.476907
     3  H    0.037436
     4  H    0.045211
     5  H    0.065982
     6  H    0.251159
 Sum of Mulliken charges =   0.00000

 Dipole moment (field-independent basis, Debye):
    X=             -0.8113    Y=              1.5908    Z=              0.2121  Tot=              1.7983
 Quadrupole moment (field-independent basis, Debye-Ang):
   XX=            -12.8948   YY=            -12.0838   ZZ=            -13.9177
   XY=              2.4170   XZ=              0.1394   YZ=              0.1341

 Normal termination of Gaussian 09 at Wed Aug 26 23:15:25 2020.
