 Gaussian 09, Revision D.01,
 Gaussian 09:  ES64L-G09RevD.01 24-Apr-2013

 --------------------
 #p B2PLYPD3/Def2QZVP
 --------------------

 --------
 methanol
 --------
 Symbolic Z-matrix:
 Charge =  0 Multiplicity = 1

                         Standard orientation:
 ---------------------------------------------------------------------
 Center     Atomic      Atomic             Coordinates (Angstroms)
 Number     Number       Type             X           Y           Z
 ---------------------------------------------------------------------
      1          6           0        0.676458    0.013307    0.010388
      2          8           0       -0.740687   -0.049038   -0.061779
      3          1           0        0.864378   -0.391272    1.079901
      4          1           0        1.038824    1.141571   -0.212281
      5          1           0        1.097403   -0.756841   -0.723893
      6          1           0       -1.133856    0.319008    0.288178
 ---------------------------------------------------------------------

 SCF Done:  E(RB2PLYPD3) =  -115.313061130     A.U. after   11 cycles
 E2(B2PLYPD3) =    -0.1435238967D+00 E(B2PLYPD3) =    -0.11545658502689D+03

 The electronic state is 1-A.
 Alpha  occ. eigenvalues --  -19.68309 -10.69144  -1.25806  -0.82957  -0.60956
 Alpha  occ. eigenvalues --   -0.51826  -0.51008  -0.39560  -0.35684
 Alpha virt. eigenvalues --    0.05251   0.09476   0.11380   0.12193   0.13683
 Alpha virt. eigenvalues --    0.16575   0.17731   0.28660   0.31707   0.32545
 Alpha virt. eigenvalues --    0.36352   0.37135   0.38959   0.41002   0.43343

 Mulliken charges:
               1
     1  C    0.057278
     2  O   -0.206966
     3  H    0.054365
     4  H    0.050047
     5  H    0.087850
     6  H   -0.042574
 Sum of Mulliken charges =   0.00000

 Dipole moment (field-independent basis, Debye):
    X=              0.8686    Y=              0.7407    Z=              0.7592  Tot=              1.3709
 Quadrupole moment (field-independent basis, Debye-Ang):
   XX=            -13.0028   YY=            -12.8162   ZZ=            -13.2272
   XY=             -1.3683   XZ=             -1.4960   YZ=              0.2977

 Normal termination of Gaussian 09 at Wed Aug 26 21:36:48 2020.
