 Gaussian 09, Revision D.01,
 Gaussian 09:  ES64L-G09RevD.01 24-Apr-2013

 --------------------
 #p B2PLYPD3/Def2QZVP
 --------------------

 --------
 methanol
 --------
 Symbolic Z-matrix:
 Charge =  0 Multiplicity = 1

                         Standard orientation:
 ---------------------------------------------------------------------
 Center     Atomic      Atomic             Coordinates (Angstroms)
 Number     Number       Type             X           Y           Z
 ---------------------------------------------------------------------
      1          6           0        0.672248    0.030074   -0.002815
      2          8           0       -0.743313   -0.142548   -0.006174
      3          1           0        0.964862    0.472406    0.911855
      4          1           0        1.010176    0.574050   -0.839411
      5          1           0        1.109506   -0.923274   -0.028248
      6          1           0       -1.171529    0.836760    0.022090
 ---------------------------------------------------------------------

 SCF Done:  E(RB2PLYPD3) =  -115.539077308     A.U. after   11 cycles
 E2(B2PLYPD3) =    -0.1489226393D+00 E(B2PLYPD3) =    -0.11568799994707D+03

 The electronic state is 1-A.
 Alpha  occ. eigenvalues --  -19.73130 -10.64209  -1.13949  -0.78788  -0.56887
 Alpha  occ. eigenvalues --   -0.52729  -0.49743  -0.40663  -0.35227
 Alpha virt. eigenvalues --    0.04168   0.07974   0.12428   0.12742   0.14641
 Alpha virt. eigenvalues --    0.17454   0.18218   0.29073   0.31138   0.33282
 Alpha virt. eigenvalues --    0.33711   0.39451   0.40422   0.42106   0.43773

 Mulliken charges:
               1
     1  C    0.079888
     2  O   -0.490603
     3  H    0.048980
     4  H    0.048950
     5  H    0.066406
     6  H    0.246379
 Sum of Mulliken charges =   0.00000

 Dipole moment (field-independent basis, Debye):
    X=              0.9246    Y=              1.5902    Z=              0.0476  Tot=              1.8401
 Quadrupole moment (field-independent basis, Debye-Ang):
   XX=            -12.9574   YY=            -12.1137   ZZ=            -13.7130
   XY=             -2.4372   XZ=             -0.1120   YZ=             -0.0008

 Normal termination of Gaussian 09 at Thu Aug 27 00:06:25 2020.
