 Gaussian 09, Revision D.01,
 Gaussian 09:  ES64L-G09RevD.01 24-Apr-2013

 --------------------
 #p B2PLYPD3/Def2QZVP
 --------------------

 --------
 methanol
 --------
 Symbolic Z-matrix:
 Charge =  0 Multiplicity = 1

                         Standard orientation:
 ---------------------------------------------------------------------
 Center     Atomic      Atomic             Coordinates (Angstroms)
 Number     Number       Type             X           Y           Z
 ---------------------------------------------------------------------
      1          6           0       -0.656640    0.033812   -0.017460
      2          8           0        0.741190   -0.162259    0.005414
      3          1           0       -1.110518    0.444145   -0.788532
      4          1           0       -1.009746    0.592378    0.819308
      5          1           0       -1.081971   -0.922006    0.081268
      6          1           0        1.212558    0.980681   -0.050595
 ---------------------------------------------------------------------

 SCF Done:  E(RB2PLYPD3) =  -115.493182995     A.U. after   11 cycles
 E2(B2PLYPD3) =    -0.1523356781D+00 E(B2PLYPD3) =    -0.11564551867281D+03

 The electronic state is 1-A.
 Alpha  occ. eigenvalues --  -19.74827 -10.63294  -1.12963  -0.79111  -0.56122
 Alpha  occ. eigenvalues --   -0.52010  -0.49215  -0.40266  -0.35211
 Alpha virt. eigenvalues --    0.01711   0.07509   0.12534   0.12929   0.15083
 Alpha virt. eigenvalues --    0.17354   0.18614   0.25245   0.29496   0.33446
 Alpha virt. eigenvalues --    0.34994   0.38486   0.39033   0.42182   0.45160

 Mulliken charges:
               1
     1  C    0.085534
     2  O   -0.480498
     3  H    0.047271
     4  H    0.038162
     5  H    0.057579
     6  H    0.251951
 Sum of Mulliken charges =   0.00000

 Dipole moment (field-independent basis, Debye):
    X=             -0.8876    Y=              1.7050    Z=             -0.1372  Tot=              1.9271
 Quadrupole moment (field-independent basis, Debye-Ang):
   XX=            -12.8195   YY=            -11.8166   ZZ=            -14.0515
   XY=              2.4111   XZ=              0.0345   YZ=             -0.1317

 Normal termination of Gaussian 09 at Wed Aug 26 12:06:24 2020.
