 Gaussian 09, Revision D.01,
 Gaussian 09:  ES64L-G09RevD.01 24-Apr-2013

 --------------------
 #p B2PLYPD3/Def2QZVP
 --------------------

 --------
 methanol
 --------
 Symbolic Z-matrix:
 Charge =  0 Multiplicity = 1

                         Standard orientation:
 ---------------------------------------------------------------------
 Center     Atomic      Atomic             Coordinates (Angstroms)
 Number     Number       Type             X           Y           Z
 ---------------------------------------------------------------------
      1          6           0        0.652057    0.029491    0.014230
      2          8           0       -0.731425   -0.166088   -0.017533
      3          1           0        0.977476    0.399242    0.861740
      4          1           0        1.050536    0.591393   -0.819541
      5          1           0        1.086073   -0.844467   -0.055164
      6          1           0       -1.175031    1.005593    0.067850
 ---------------------------------------------------------------------

 SCF Done:  E(RB2PLYPD3) =  -115.482158407     A.U. after   11 cycles
 E2(B2PLYPD3) =    -0.1521768412D+00 E(B2PLYPD3) =    -0.11563433524770D+03

 The electronic state is 1-A.
 Alpha  occ. eigenvalues --  -19.74610 -10.62374  -1.13311  -0.79459  -0.55779
 Alpha  occ. eigenvalues --   -0.52868  -0.50087  -0.40006  -0.35162
 Alpha virt. eigenvalues --    0.01392   0.07672   0.12644   0.12985   0.14838
 Alpha virt. eigenvalues --    0.17623   0.18624   0.24880   0.29370   0.33472
 Alpha virt. eigenvalues --    0.35142   0.38832   0.40963   0.42368   0.44251

 Mulliken charges:
               1
     1  C    0.088715
     2  O   -0.482880
     3  H    0.044466
     4  H    0.038567
     5  H    0.058843
     6  H    0.252289
 Sum of Mulliken charges =   0.00000

 Dipole moment (field-independent basis, Debye):
    X=              0.9352    Y=              1.6420    Z=              0.2052  Tot=              1.9008
 Quadrupole moment (field-independent basis, Debye-Ang):
   XX=            -13.0157   YY=            -11.7968   ZZ=            -13.8053
   XY=             -2.5204   XZ=             -0.1224   YZ=              0.1404

 Normal termination of Gaussian 09 at Wed Aug 26 12:34:22 2020.
