 Gaussian 09, Revision D.01,
 Gaussian 09:  ES64L-G09RevD.01 24-Apr-2013

 --------------------
 #p B2PLYPD3/Def2QZVP
 --------------------

 --------
 methanol
 --------
 Symbolic Z-matrix:
 Charge =  0 Multiplicity = 1

                         Standard orientation:
 ---------------------------------------------------------------------
 Center     Atomic      Atomic             Coordinates (Angstroms)
 Number     Number       Type             X           Y           Z
 ---------------------------------------------------------------------
      1          6           0       -0.667550   -0.013727   -0.001338
      2          8           0        0.750528    0.099279   -0.007461
      3          1           0       -0.996870   -0.496255    0.968035
      4          1           0       -0.999285   -0.594989   -0.920222
      5          1           0       -1.066655    1.006294   -0.029902
      6          1           0        1.063887   -0.626917    0.049806
 ---------------------------------------------------------------------

 SCF Done:  E(RB2PLYPD3) =  -115.513085301     A.U. after   10 cycles
 E2(B2PLYPD3) =    -0.1448230108D+00 E(B2PLYPD3) =    -0.11565790831228D+03

 The electronic state is 1-A.
 Alpha  occ. eigenvalues --  -19.70727 -10.66939  -1.20688  -0.79893  -0.60296
 Alpha  occ. eigenvalues --   -0.51926  -0.50460  -0.41421  -0.35742
 Alpha virt. eigenvalues --    0.05402   0.08983   0.11889   0.12347   0.14430
 Alpha virt. eigenvalues --    0.17169   0.17836   0.28833   0.32769   0.33034
 Alpha virt. eigenvalues --    0.37238   0.39390   0.39860   0.40361   0.43556

 Mulliken charges:
               1
     1  C    0.062842
     2  O   -0.349568
     3  H    0.047764
     4  H    0.049601
     5  H    0.077583
     6  H    0.111779
 Sum of Mulliken charges =   0.00000

 Dipole moment (field-independent basis, Debye):
    X=             -0.9762    Y=             -1.3089    Z=              0.1136  Tot=              1.6368
 Quadrupole moment (field-independent basis, Debye-Ang):
   XX=            -13.3314   YY=            -12.3785   ZZ=            -13.5225
   XY=             -2.0865   XZ=              0.1399   YZ=             -0.0529

 Normal termination of Gaussian 09 at Wed Aug 26 14:49:51 2020.
