 Gaussian 09, Revision D.01,
 Gaussian 09:  ES64L-G09RevD.01 24-Apr-2013

 --------------------
 #p B2PLYPD3/Def2QZVP
 --------------------

 --------
 methanol
 --------
 Symbolic Z-matrix:
 Charge =  0 Multiplicity = 1

                         Standard orientation:
 ---------------------------------------------------------------------
 Center     Atomic      Atomic             Coordinates (Angstroms)
 Number     Number       Type             X           Y           Z
 ---------------------------------------------------------------------
      1          6           0        0.662078    0.017584   -0.015732
      2          8           0       -0.749651   -0.158171    0.018634
      3          1           0        1.093505    0.604313    0.806830
      4          1           0        0.985843    0.518904   -0.787569
      5          1           0        1.151354   -0.910620   -0.008812
      6          1           0       -1.205963    0.947268   -0.065125
 ---------------------------------------------------------------------

 SCF Done:  E(RB2PLYPD3) =  -115.501763802     A.U. after   11 cycles
 E2(B2PLYPD3) =    -0.1515871283D+00 E(B2PLYPD3) =    -0.11565335093039D+03

 The electronic state is 1-A.
 Alpha  occ. eigenvalues --  -19.74522 -10.63682  -1.12806  -0.79169  -0.56398
 Alpha  occ. eigenvalues --   -0.51061  -0.49672  -0.40905  -0.34937
 Alpha virt. eigenvalues --    0.02291   0.07469   0.12541   0.12959   0.14995
 Alpha virt. eigenvalues --    0.17847   0.18142   0.26244   0.29754   0.33340
 Alpha virt. eigenvalues --    0.33999   0.39133   0.39404   0.41034   0.44208

 Mulliken charges:
               1
     1  C    0.091140
     2  O   -0.491140
     3  H    0.034116
     4  H    0.044707
     5  H    0.064933
     6  H    0.256245
 Sum of Mulliken charges =   0.00000

 Dipole moment (field-independent basis, Debye):
    X=              0.9038    Y=              1.7081    Z=             -0.2478  Tot=              1.9483
 Quadrupole moment (field-independent basis, Debye-Ang):
   XX=            -12.7738   YY=            -11.7876   ZZ=            -14.1458
   XY=             -2.4819   XZ=              0.0929   YZ=             -0.1800

 Normal termination of Gaussian 09 at Wed Aug 26 16:39:40 2020.
