 Gaussian 09, Revision D.01,
 Gaussian 09:  ES64L-G09RevD.01 24-Apr-2013

 --------------------
 #p B2PLYPD3/Def2QZVP
 --------------------

 --------
 methanol
 --------
 Symbolic Z-matrix:
 Charge =  0 Multiplicity = 1

                         Standard orientation:
 ---------------------------------------------------------------------
 Center     Atomic      Atomic             Coordinates (Angstroms)
 Number     Number       Type             X           Y           Z
 ---------------------------------------------------------------------
      1          6           0       -0.677374   -0.010351    0.031548
      2          8           0        0.745343    0.048702   -0.015215
      3          1           0       -1.086610   -0.361664    1.003064
      4          1           0       -0.988824   -0.781120   -0.922338
      5          1           0       -0.966162    1.151961   -0.268516
      6          1           0        1.143102   -0.336683    0.120222
 ---------------------------------------------------------------------

 SCF Done:  E(RB2PLYPD3) =  -115.094228194     A.U. after   11 cycles
 E2(B2PLYPD3) =    -0.1436538832D+00 E(B2PLYPD3) =    -0.11523788207765D+03

 The electronic state is 1-A.
 Alpha  occ. eigenvalues --  -19.67865 -10.70589  -1.29023  -0.84539  -0.62317
 Alpha  occ. eigenvalues --   -0.50932  -0.49751  -0.39641  -0.35698
 Alpha virt. eigenvalues --    0.04903   0.09651   0.11077   0.11402   0.14173
 Alpha virt. eigenvalues --    0.16228   0.17725   0.28788   0.30884   0.32781
 Alpha virt. eigenvalues --    0.35059   0.35702   0.38756   0.40657   0.42556

 Mulliken charges:
               1
     1  C    0.044070
     2  O   -0.123145
     3  H    0.072554
     4  H    0.044629
     5  H    0.086234
     6  H   -0.124342
 Sum of Mulliken charges =   0.00000

 Dipole moment (field-independent basis, Debye):
    X=             -0.8285    Y=             -0.9069    Z=              0.4884  Tot=              1.3218
 Quadrupole moment (field-independent basis, Debye-Ang):
   XX=            -12.9308   YY=            -12.7823   ZZ=            -13.2642
   XY=             -1.5237   XZ=              0.2072   YZ=             -0.3484

 Normal termination of Gaussian 09 at Wed Aug 26 18:40:55 2020.
