 Gaussian 09, Revision D.01,
 Gaussian 09:  ES64L-G09RevD.01 24-Apr-2013

 --------------------
 #p B2PLYPD3/Def2QZVP
 --------------------

 --------
 methanol
 --------
 Symbolic Z-matrix:
 Charge =  0 Multiplicity = 1

                         Standard orientation:
 ---------------------------------------------------------------------
 Center     Atomic      Atomic             Coordinates (Angstroms)
 Number     Number       Type             X           Y           Z
 ---------------------------------------------------------------------
      1          6           0        0.670273    0.020646   -0.002099
      2          8           0       -0.754753   -0.133686   -0.002087
      3          1           0        1.041653    0.500278    0.905207
      4          1           0        1.073442    0.547527   -0.862634
      5          1           0        1.089112   -0.931284   -0.016190
      6          1           0       -1.187819    0.829093    0.002907
 ---------------------------------------------------------------------

 SCF Done:  E(RB2PLYPD3) =  -115.541768687     A.U. after   11 cycles
 E2(B2PLYPD3) =    -0.1490980037D+00 E(B2PLYPD3) =    -0.11569086669066D+03

 The electronic state is 1-A.
 Alpha  occ. eigenvalues --  -19.73447 -10.64987  -1.14007  -0.78682  -0.57092
 Alpha  occ. eigenvalues --   -0.51374  -0.49859  -0.40920  -0.35324
 Alpha virt. eigenvalues --    0.04294   0.07770   0.12442   0.12700   0.14809
 Alpha virt. eigenvalues --    0.17323   0.18436   0.28965   0.31590   0.33292
 Alpha virt. eigenvalues --    0.33696   0.38739   0.40249   0.40913   0.43632

 Mulliken charges:
               1
     1  C    0.071659
     2  O   -0.484783
     3  H    0.047623
     4  H    0.047974
     5  H    0.070367
     6  H    0.247159
 Sum of Mulliken charges =   0.00000

 Dipole moment (field-independent basis, Debye):
    X=              0.8946    Y=              1.5430    Z=              0.0040  Tot=              1.7836
 Quadrupole moment (field-independent basis, Debye-Ang):
   XX=            -12.8058   YY=            -12.1872   ZZ=            -13.8646
   XY=             -2.4240   XZ=             -0.0478   YZ=             -0.0077

 Normal termination of Gaussian 09 at Thu Aug 27 00:08:06 2020.
