 Gaussian 09, Revision D.01,
 Gaussian 09:  ES64L-G09RevD.01 24-Apr-2013

 --------------------
 #p B2PLYPD3/Def2QZVP
 --------------------

 --------
 methanol
 --------
 Symbolic Z-matrix:
 Charge =  0 Multiplicity = 1

                         Standard orientation:
 ---------------------------------------------------------------------
 Center     Atomic      Atomic             Coordinates (Angstroms)
 Number     Number       Type             X           Y           Z
 ---------------------------------------------------------------------
      1          6           0        0.683660    0.011325   -0.014408
      2          8           0       -0.749824   -0.140944    0.015316
      3          1           0        1.071775    0.553792    0.887624
      4          1           0        0.987296    0.510063   -0.860140
      5          1           0        1.037553   -0.891223   -0.012258
      6          1           0       -1.199995    0.886964   -0.051309
 ---------------------------------------------------------------------

 SCF Done:  E(RB2PLYPD3) =  -115.517941471     A.U. after   11 cycles
 E2(B2PLYPD3) =    -0.1501976483D+00 E(B2PLYPD3) =    -0.11566813911945D+03

 The electronic state is 1-A.
 Alpha  occ. eigenvalues --  -19.73552 -10.63843  -1.12725  -0.79314  -0.56662
 Alpha  occ. eigenvalues --   -0.51384  -0.49999  -0.41109  -0.34984
 Alpha virt. eigenvalues --    0.03547   0.07774   0.12462   0.12810   0.14773
 Alpha virt. eigenvalues --    0.17168   0.18237   0.28558   0.29935   0.33179
 Alpha virt. eigenvalues --    0.33287   0.38509   0.40650   0.41342   0.44036

 Mulliken charges:
               1
     1  C    0.081095
     2  O   -0.501067
     3  H    0.042930
     4  H    0.048759
     5  H    0.077036
     6  H    0.251248
 Sum of Mulliken charges =   0.00000

 Dipole moment (field-independent basis, Debye):
    X=              0.9540    Y=              1.5633    Z=             -0.1967  Tot=              1.8420
 Quadrupole moment (field-independent basis, Debye-Ang):
   XX=            -12.9026   YY=            -11.9291   ZZ=            -13.8238
   XY=             -2.4858   XZ=              0.0935   YZ=             -0.1335

 Normal termination of Gaussian 09 at Wed Aug 26 14:23:16 2020.
