 Gaussian 09, Revision D.01,
 Gaussian 09:  ES64L-G09RevD.01 24-Apr-2013

 --------------------
 #p B2PLYPD3/Def2QZVP
 --------------------

 --------
 methanol
 --------
 Symbolic Z-matrix:
 Charge =  0 Multiplicity = 1

                         Standard orientation:
 ---------------------------------------------------------------------
 Center     Atomic      Atomic             Coordinates (Angstroms)
 Number     Number       Type             X           Y           Z
 ---------------------------------------------------------------------
      1          6           0        0.658114    0.018622    0.010957
      2          8           0       -0.743185   -0.143952   -0.007129
      3          1           0        0.999709    0.494803    0.864750
      4          1           0        1.046677    0.569624   -0.851348
      5          1           0        1.102958   -0.908246   -0.037485
      6          1           0       -1.152547    0.883702    0.015375
 ---------------------------------------------------------------------

 SCF Done:  E(RB2PLYPD3) =  -115.530520714     A.U. after   11 cycles
 E2(B2PLYPD3) =    -0.1495697065D+00 E(B2PLYPD3) =    -0.11568009042059D+03

 The electronic state is 1-A.
 Alpha  occ. eigenvalues --  -19.73764 -10.64038  -1.14181  -0.78726  -0.57056
 Alpha  occ. eigenvalues --   -0.51985  -0.50117  -0.40894  -0.35103
 Alpha virt. eigenvalues --    0.03649   0.07841   0.12584   0.12750   0.14896
 Alpha virt. eigenvalues --    0.17616   0.18273   0.28710   0.30016   0.33385
 Alpha virt. eigenvalues --    0.34384   0.39010   0.40528   0.41667   0.43815

 Mulliken charges:
               1
     1  C    0.080172
     2  O   -0.482695
     3  H    0.045848
     4  H    0.037826
     5  H    0.066408
     6  H    0.252441
 Sum of Mulliken charges =   0.00000

 Dipole moment (field-independent basis, Debye):
    X=              0.8950    Y=              1.6040    Z=              0.0843  Tot=              1.8387
 Quadrupole moment (field-independent basis, Debye-Ang):
   XX=            -13.0009   YY=            -11.9854   ZZ=            -13.8827
   XY=             -2.4286   XZ=             -0.0314   YZ=              0.0850

 Normal termination of Gaussian 09 at Wed Aug 26 10:00:47 2020.
