 Gaussian 09, Revision D.01,
 Gaussian 09:  ES64L-G09RevD.01 24-Apr-2013

 --------------------
 #p B2PLYPD3/Def2QZVP
 --------------------

 --------
 methanol
 --------
 Symbolic Z-matrix:
 Charge =  0 Multiplicity = 1

                         Standard orientation:
 ---------------------------------------------------------------------
 Center     Atomic      Atomic             Coordinates (Angstroms)
 Number     Number       Type             X           Y           Z
 ---------------------------------------------------------------------
      1          6           0       -0.675953    0.014008    0.001526
      2          8           0        0.742635   -0.147964   -0.012621
      3          1           0       -1.104356    0.565361   -0.814379
      4          1           0       -0.982544    0.476272    0.871462
      5          1           0       -0.991516   -0.896725    0.001548
      6          1           0        1.193054    0.954756    0.033186
 ---------------------------------------------------------------------

 SCF Done:  E(RB2PLYPD3) =  -115.501647140     A.U. after   11 cycles
 E2(B2PLYPD3) =    -0.1513939395D+00 E(B2PLYPD3) =    -0.11565304107941D+03

 The electronic state is 1-A.
 Alpha  occ. eigenvalues --  -19.74079 -10.63065  -1.12639  -0.79257  -0.56698
 Alpha  occ. eigenvalues --   -0.51784  -0.49339  -0.41060  -0.34999
 Alpha virt. eigenvalues --    0.02592   0.07739   0.12636   0.12798   0.14979
 Alpha virt. eigenvalues --    0.17000   0.18360   0.26820   0.29546   0.33299
 Alpha virt. eigenvalues --    0.34212   0.38542   0.40368   0.41773   0.44071

 Mulliken charges:
               1
     1  C    0.079114
     2  O   -0.494527
     3  H    0.044433
     4  H    0.045107
     5  H    0.075640
     6  H    0.250233
 Sum of Mulliken charges =   0.00000

 Dipole moment (field-independent basis, Debye):
    X=             -0.9634    Y=              1.6177    Z=              0.1179  Tot=              1.8865
 Quadrupole moment (field-independent basis, Debye-Ang):
   XX=            -12.9901   YY=            -11.7156   ZZ=            -13.8990
   XY=              2.3949   XZ=              0.1300   YZ=              0.0475

 Normal termination of Gaussian 09 at Wed Aug 26 16:03:59 2020.
