 Gaussian 09, Revision D.01,
 Gaussian 09:  ES64L-G09RevD.01 24-Apr-2013

 --------------------
 #p B2PLYPD3/Def2QZVP
 --------------------

 --------
 methanol
 --------
 Symbolic Z-matrix:
 Charge =  0 Multiplicity = 1

                         Standard orientation:
 ---------------------------------------------------------------------
 Center     Atomic      Atomic             Coordinates (Angstroms)
 Number     Number       Type             X           Y           Z
 ---------------------------------------------------------------------
      1          6           0       -0.658332    0.029817    0.009548
      2          8           0        0.742727   -0.147461   -0.009520
      3          1           0       -1.013716    0.588178   -0.847799
      4          1           0       -1.034500    0.470452    0.848072
      5          1           0       -1.124892   -0.930203   -0.039119
      6          1           0        1.181290    0.872359    0.057719
 ---------------------------------------------------------------------

 SCF Done:  E(RB2PLYPD3) =  -115.529719156     A.U. after   11 cycles
 E2(B2PLYPD3) =    -0.1497246692D+00 E(B2PLYPD3) =    -0.11567944382555D+03

 The electronic state is 1-A.
 Alpha  occ. eigenvalues --  -19.73825 -10.64172  -1.14012  -0.78633  -0.56963
 Alpha  occ. eigenvalues --   -0.52192  -0.49678  -0.40568  -0.35234
 Alpha virt. eigenvalues --    0.03610   0.07749   0.12635   0.12666   0.14908
 Alpha virt. eigenvalues --    0.17578   0.18360   0.28593   0.29917   0.33440
 Alpha virt. eigenvalues --    0.34432   0.39100   0.39744   0.41887   0.44195

 Mulliken charges:
               1
     1  C    0.079198
     2  O   -0.483988
     3  H    0.042477
     4  H    0.047832
     5  H    0.061846
     6  H    0.252635
 Sum of Mulliken charges =   0.00000

 Dipole moment (field-independent basis, Debye):
    X=             -0.8590    Y=              1.6358    Z=              0.1635  Tot=              1.8548
 Quadrupole moment (field-independent basis, Debye-Ang):
   XX=            -12.8657   YY=            -12.0731   ZZ=            -13.8864
   XY=              2.4247   XZ=              0.0569   YZ=              0.1142

 Normal termination of Gaussian 09 at Wed Aug 26 11:48:26 2020.
