 Gaussian 09, Revision D.01,
 Gaussian 09:  ES64L-G09RevD.01 24-Apr-2013

 --------------------
 #p B2PLYPD3/Def2QZVP
 --------------------

 --------
 methanol
 --------
 Symbolic Z-matrix:
 Charge =  0 Multiplicity = 1

                         Standard orientation:
 ---------------------------------------------------------------------
 Center     Atomic      Atomic             Coordinates (Angstroms)
 Number     Number       Type             X           Y           Z
 ---------------------------------------------------------------------
      1          6           0        0.669185    0.022535   -0.000669
      2          8           0       -0.749727   -0.138563   -0.005909
      3          1           0        1.052755    0.445774    0.888485
      4          1           0        1.002903    0.650480   -0.807871
      5          1           0        1.122464   -0.944915   -0.083245
      6          1           0       -1.195418    0.821955    0.053921
 ---------------------------------------------------------------------

 SCF Done:  E(RB2PLYPD3) =  -115.541630087     A.U. after   11 cycles
 E2(B2PLYPD3) =    -0.1489595028D+00 E(B2PLYPD3) =    -0.11569058958943D+03

 The electronic state is 1-A.
 Alpha  occ. eigenvalues --  -19.73336 -10.64791  -1.14029  -0.78651  -0.57348
 Alpha  occ. eigenvalues --   -0.51685  -0.49654  -0.40868  -0.35188
 Alpha virt. eigenvalues --    0.04212   0.07812   0.12495   0.12678   0.14898
 Alpha virt. eigenvalues --    0.17443   0.18172   0.29168   0.31360   0.33312
 Alpha virt. eigenvalues --    0.33697   0.39292   0.39607   0.41476   0.43983

 Mulliken charges:
               1
     1  C    0.079384
     2  O   -0.487507
     3  H    0.047710
     4  H    0.044138
     5  H    0.068878
     6  H    0.247396
 Sum of Mulliken charges =   0.00000

 Dipole moment (field-independent basis, Debye):
    X=              0.8758    Y=              1.5956    Z=              0.1162  Tot=              1.8239
 Quadrupole moment (field-independent basis, Debye-Ang):
   XX=            -12.7742   YY=            -12.1072   ZZ=            -13.9282
   XY=             -2.4174   XZ=             -0.0823   YZ=              0.0617

 Normal termination of Gaussian 09 at Thu Aug 27 01:15:22 2020.
