 Gaussian 09, Revision D.01,
 Gaussian 09:  ES64L-G09RevD.01 24-Apr-2013

 --------------------
 #p B2PLYPD3/Def2QZVP
 --------------------

 --------
 methanol
 --------
 Symbolic Z-matrix:
 Charge =  0 Multiplicity = 1

                         Standard orientation:
 ---------------------------------------------------------------------
 Center     Atomic      Atomic             Coordinates (Angstroms)
 Number     Number       Type             X           Y           Z
 ---------------------------------------------------------------------
      1          6           0       -0.677334   -0.021353    0.016827
      2          8           0        0.766363    0.073531   -0.038672
      3          1           0       -1.000277   -0.115411    1.087599
      4          1           0       -1.118091   -0.884848   -0.693376
      5          1           0       -1.091960    1.010996   -0.371557
      6          1           0        1.143431   -0.470866    0.185752
 ---------------------------------------------------------------------

 SCF Done:  E(RB2PLYPD3) =  -115.414937938     A.U. after   11 cycles
 E2(B2PLYPD3) =    -0.1444789550D+00 E(B2PLYPD3) =    -0.11555941689310D+03

 The electronic state is 1-A.
 Alpha  occ. eigenvalues --  -19.69673 -10.69032  -1.23235  -0.81045  -0.61119
 Alpha  occ. eigenvalues --   -0.51237  -0.49434  -0.40264  -0.36385
 Alpha virt. eigenvalues --    0.05323   0.08950   0.11615   0.11954   0.14206
 Alpha virt. eigenvalues --    0.16841   0.18127   0.28633   0.31452   0.33069
 Alpha virt. eigenvalues --    0.35656   0.37095   0.39646   0.40321   0.42439

 Mulliken charges:
               1
     1  C    0.051775
     2  O   -0.261294
     3  H    0.063888
     4  H    0.053491
     5  H    0.077631
     6  H    0.014508
 Sum of Mulliken charges =   0.00000

 Dipole moment (field-independent basis, Debye):
    X=             -0.9670    Y=             -1.0829    Z=              0.5321  Tot=              1.5462
 Quadrupole moment (field-independent basis, Debye-Ang):
   XX=            -12.8525   YY=            -12.8248   ZZ=            -13.4032
   XY=             -1.8112   XZ=              0.7525   YZ=             -0.2264

 Normal termination of Gaussian 09 at Wed Aug 26 12:52:35 2020.
