 Gaussian 09, Revision D.01,
 Gaussian 09:  ES64L-G09RevD.01 24-Apr-2013

 --------------------
 #p B2PLYPD3/Def2QZVP
 --------------------

 --------
 methanol
 --------
 Symbolic Z-matrix:
 Charge =  0 Multiplicity = 1

                         Standard orientation:
 ---------------------------------------------------------------------
 Center     Atomic      Atomic             Coordinates (Angstroms)
 Number     Number       Type             X           Y           Z
 ---------------------------------------------------------------------
      1          6           0       -0.670700    0.021233    0.011019
      2          8           0        0.750177   -0.140755   -0.010431
      3          1           0       -1.076768    0.584455   -0.829388
      4          1           0       -0.985511    0.492163    0.858829
      5          1           0       -1.091052   -0.942252   -0.032867
      6          1           0        1.176109    0.864273    0.020755
 ---------------------------------------------------------------------

 SCF Done:  E(RB2PLYPD3) =  -115.533348296     A.U. after   11 cycles
 E2(B2PLYPD3) =    -0.1495460447D+00 E(B2PLYPD3) =    -0.11568289434044D+03

 The electronic state is 1-A.
 Alpha  occ. eigenvalues --  -19.73574 -10.64260  -1.13609  -0.78858  -0.57105
 Alpha  occ. eigenvalues --   -0.51862  -0.49446  -0.41092  -0.35215
 Alpha virt. eigenvalues --    0.03890   0.07807   0.12534   0.12668   0.14950
 Alpha virt. eigenvalues --    0.17397   0.18184   0.28948   0.30490   0.33363
 Alpha virt. eigenvalues --    0.33782   0.39024   0.39812   0.41574   0.44221

 Mulliken charges:
               1
     1  C    0.081849
     2  O   -0.490324
     3  H    0.041548
     4  H    0.049486
     5  H    0.068358
     6  H    0.249083
 Sum of Mulliken charges =   0.00000

 Dipole moment (field-independent basis, Debye):
    X=             -0.9312    Y=              1.6173    Z=              0.1106  Tot=              1.8695
 Quadrupole moment (field-independent basis, Debye-Ang):
   XX=            -12.9108   YY=            -11.9720   ZZ=            -13.9067
   XY=              2.3793   XZ=              0.0710   YZ=              0.0908

 Normal termination of Gaussian 09 at Thu Aug 27 00:02:29 2020.
