 Gaussian 09, Revision D.01,
 Gaussian 09:  ES64L-G09RevD.01 24-Apr-2013

 --------------------
 #p B2PLYPD3/Def2QZVP
 --------------------

 --------
 methanol
 --------
 Symbolic Z-matrix:
 Charge =  0 Multiplicity = 1

                         Standard orientation:
 ---------------------------------------------------------------------
 Center     Atomic      Atomic             Coordinates (Angstroms)
 Number     Number       Type             X           Y           Z
 ---------------------------------------------------------------------
      1          6           0       -0.669636   -0.031505    0.003686
      2          8           0        0.751512    0.120248   -0.003179
      3          1           0       -1.019272   -0.506758    0.903832
      4          1           0       -1.027310   -0.570285   -0.881037
      5          1           0       -1.120497    1.006646   -0.031800
      6          1           0        1.172802   -0.702561    0.012315
 ---------------------------------------------------------------------

 SCF Done:  E(RB2PLYPD3) =  -115.550657278     A.U. after   10 cycles
 E2(B2PLYPD3) =    -0.1468015909D+00 E(B2PLYPD3) =    -0.11569745886874D+03

 The electronic state is 1-A.
 Alpha  occ. eigenvalues --  -19.72149 -10.66127  -1.16467  -0.78894  -0.59032
 Alpha  occ. eigenvalues --   -0.52046  -0.49376  -0.40587  -0.35648
 Alpha virt. eigenvalues --    0.05169   0.08246   0.12305   0.12365   0.14720
 Alpha virt. eigenvalues --    0.17277   0.18151   0.29082   0.33095   0.33447
 Alpha virt. eigenvalues --    0.35918   0.38172   0.39824   0.41140   0.43620

 Mulliken charges:
               1
     1  C    0.069122
     2  O   -0.452630
     3  H    0.054960
     4  H    0.051659
     5  H    0.066817
     6  H    0.210072
 Sum of Mulliken charges =   0.00000

 Dipole moment (field-independent basis, Debye):
    X=             -0.8614    Y=             -1.4962    Z=              0.0439  Tot=              1.7270
 Quadrupole moment (field-independent basis, Debye-Ang):
   XX=            -12.8239   YY=            -12.4152   ZZ=            -13.7295
   XY=             -2.2452   XZ=              0.0309   YZ=             -0.0308

 Normal termination of Gaussian 09 at Thu Aug 27 00:03:44 2020.
