 Gaussian 09, Revision D.01,
 Gaussian 09:  ES64L-G09RevD.01 24-Apr-2013

 --------------------
 #p B2PLYPD3/Def2QZVP
 --------------------

 --------
 methanol
 --------
 Symbolic Z-matrix:
 Charge =  0 Multiplicity = 1

                         Standard orientation:
 ---------------------------------------------------------------------
 Center     Atomic      Atomic             Coordinates (Angstroms)
 Number     Number       Type             X           Y           Z
 ---------------------------------------------------------------------
      1          6           0        0.680265    0.019298   -0.002730
      2          8           0       -0.768352   -0.132991   -0.008894
      3          1           0        1.005707    0.491601    0.936300
      4          1           0        1.172992    0.538540   -0.851843
      5          1           0        1.111411   -0.908613    0.007617
      6          1           0       -1.224884    0.826611   -0.004548
 ---------------------------------------------------------------------

 SCF Done:  E(RB2PLYPD3) =  -115.535595798     A.U. after   11 cycles
 E2(B2PLYPD3) =    -0.1497306107D+00 E(B2PLYPD3) =    -0.11568532640904D+03

 The electronic state is 1-A.
 Alpha  occ. eigenvalues --  -19.73637 -10.65391  -1.13166  -0.78883  -0.56415
 Alpha  occ. eigenvalues --   -0.50940  -0.49665  -0.40811  -0.35408
 Alpha virt. eigenvalues --    0.04270   0.07474   0.12325   0.12804   0.14618
 Alpha virt. eigenvalues --    0.17322   0.18670   0.28709   0.31279   0.32095
 Alpha virt. eigenvalues --    0.34029   0.38311   0.39678   0.40965   0.43326

 Mulliken charges:
               1
     1  C    0.069064
     2  O   -0.491311
     3  H    0.049486
     4  H    0.049983
     5  H    0.072673
     6  H    0.250105
 Sum of Mulliken charges =   0.00000

 Dipole moment (field-independent basis, Debye):
    X=              0.9234    Y=              1.5105    Z=              0.0270  Tot=              1.7706
 Quadrupole moment (field-independent basis, Debye-Ang):
   XX=            -12.5617   YY=            -12.3186   ZZ=            -13.9061
   XY=             -2.5175   XZ=             -0.1284   YZ=             -0.0164

 Normal termination of Gaussian 09 at Wed Aug 26 23:41:07 2020.
