 Gaussian 09, Revision D.01,
 Gaussian 09:  ES64L-G09RevD.01 24-Apr-2013

 --------------------
 #p B2PLYPD3/Def2QZVP
 --------------------

 --------
 methanol
 --------
 Symbolic Z-matrix:
 Charge =  0 Multiplicity = 1

                         Standard orientation:
 ---------------------------------------------------------------------
 Center     Atomic      Atomic             Coordinates (Angstroms)
 Number     Number       Type             X           Y           Z
 ---------------------------------------------------------------------
      1          6           0        0.655048   -0.014760    0.021765
      2          8           0       -0.753797    0.080571   -0.023798
      3          1           0        1.082731   -0.865234   -0.735497
      4          1           0        0.986034   -0.228432    1.035135
      5          1           0        1.110847    1.043825   -0.325199
      6          1           0       -1.079522   -0.506161    0.085352
 ---------------------------------------------------------------------

 SCF Done:  E(RB2PLYPD3) =  -115.387258766     A.U. after   11 cycles
 E2(B2PLYPD3) =    -0.1438471808D+00 E(B2PLYPD3) =    -0.11553110594659D+03

 The electronic state is 1-A.
 Alpha  occ. eigenvalues --  -19.69798 -10.68684  -1.25429  -0.81457  -0.62168
 Alpha  occ. eigenvalues --   -0.51783  -0.49955  -0.40589  -0.36285
 Alpha virt. eigenvalues --    0.05277   0.09215   0.11477   0.12056   0.14579
 Alpha virt. eigenvalues --    0.17030   0.17783   0.28621   0.32527   0.33021
 Alpha virt. eigenvalues --    0.35377   0.36827   0.40343   0.41078   0.42623

 Mulliken charges:
               1
     1  C    0.052004
     2  O   -0.230074
     3  H    0.036856
     4  H    0.064479
     5  H    0.072381
     6  H    0.004354
 Sum of Mulliken charges =   0.00000

 Dipole moment (field-independent basis, Debye):
    X=              0.8965    Y=             -1.1778    Z=              0.3412  Tot=              1.5190
 Quadrupole moment (field-independent basis, Debye-Ang):
   XX=            -13.1136   YY=            -12.6340   ZZ=            -13.5355
   XY=              1.8731   XZ=             -0.3118   YZ=             -0.2106

 Normal termination of Gaussian 09 at Wed Aug 26 13:35:51 2020.
