 Gaussian 09, Revision D.01,
 Gaussian 09:  ES64L-G09RevD.01 24-Apr-2013

 --------------------
 #p B2PLYPD3/Def2QZVP
 --------------------

 --------
 methanol
 --------
 Symbolic Z-matrix:
 Charge =  0 Multiplicity = 1

                         Standard orientation:
 ---------------------------------------------------------------------
 Center     Atomic      Atomic             Coordinates (Angstroms)
 Number     Number       Type             X           Y           Z
 ---------------------------------------------------------------------
      1          6           0       -0.651962    0.015254   -0.007251
      2          8           0        0.737500   -0.148328    0.004093
      3          1           0       -1.047125    0.487247   -0.861050
      4          1           0       -0.992384    0.564010    0.875065
      5          1           0       -1.094337   -0.872562    0.036615
      6          1           0        1.145621    0.916401   -0.039865
 ---------------------------------------------------------------------

 SCF Done:  E(RB2PLYPD3) =  -115.519626427     A.U. after   11 cycles
 E2(B2PLYPD3) =    -0.1500661167D+00 E(B2PLYPD3) =    -0.11566969254334D+03

 The electronic state is 1-A.
 Alpha  occ. eigenvalues --  -19.74008 -10.63658  -1.14240  -0.78791  -0.56719
 Alpha  occ. eigenvalues --   -0.51990  -0.50630  -0.40721  -0.34943
 Alpha virt. eigenvalues --    0.03149   0.07819   0.12524   0.12927   0.14852
 Alpha virt. eigenvalues --    0.17702   0.18373   0.27877   0.29614   0.33227
 Alpha virt. eigenvalues --    0.34867   0.38912   0.41069   0.41755   0.43535

 Mulliken charges:
               1
     1  C    0.078156
     2  O   -0.479259
     3  H    0.041752
     4  H    0.037129
     5  H    0.066345
     6  H    0.255876
 Sum of Mulliken charges =   0.00000

 Dipole moment (field-independent basis, Debye):
    X=             -0.8756    Y=              1.5917    Z=             -0.1013  Tot=              1.8195
 Quadrupole moment (field-independent basis, Debye-Ang):
   XX=            -13.0531   YY=            -11.9432   ZZ=            -13.8718
   XY=              2.4902   XZ=             -0.0036   YZ=             -0.0938

 Normal termination of Gaussian 09 at Wed Aug 26 16:37:08 2020.
