 Gaussian 09, Revision D.01,
 Gaussian 09:  ES64L-G09RevD.01 24-Apr-2013

 --------------------
 #p B2PLYPD3/Def2QZVP
 --------------------

 --------
 methanol
 --------
 Symbolic Z-matrix:
 Charge =  0 Multiplicity = 1

                         Standard orientation:
 ---------------------------------------------------------------------
 Center     Atomic      Atomic             Coordinates (Angstroms)
 Number     Number       Type             X           Y           Z
 ---------------------------------------------------------------------
      1          6           0       -0.665625   -0.001868   -0.015125
      2          8           0        0.748973   -0.065654   -0.025599
      3          1           0       -1.055109    0.978280   -0.583662
      4          1           0       -1.047651    0.026586    1.127659
      5          1           0       -0.973477   -0.950943   -0.451545
      6          1           0        1.078199    0.482513    0.203095
 ---------------------------------------------------------------------

 SCF Done:  E(RB2PLYPD3) =  -115.386843698     A.U. after   11 cycles
 E2(B2PLYPD3) =    -0.1437983027D+00 E(B2PLYPD3) =    -0.11553064200035D+03

 The electronic state is 1-A.
 Alpha  occ. eigenvalues --  -19.69489 -10.68610  -1.25084  -0.81939  -0.61228
 Alpha  occ. eigenvalues --   -0.51510  -0.50523  -0.41420  -0.35577
 Alpha virt. eigenvalues --    0.05314   0.09253   0.11473   0.12165   0.14505
 Alpha virt. eigenvalues --    0.16551   0.17786   0.28661   0.32426   0.32729
 Alpha virt. eigenvalues --    0.35754   0.37698   0.40156   0.40927   0.42487

 Mulliken charges:
               1
     1  C    0.050363
     2  O   -0.228438
     3  H    0.044445
     4  H    0.040143
     5  H    0.093787
     6  H   -0.000300
 Sum of Mulliken charges =   0.00000

 Dipole moment (field-independent basis, Debye):
    X=             -0.8818    Y=              1.0360    Z=              0.3990  Tot=              1.4178
 Quadrupole moment (field-independent basis, Debye-Ang):
   XX=            -13.2839   YY=            -12.4765   ZZ=            -13.5270
   XY=              1.7382   XZ=              0.7758   YZ=              0.3451

 Normal termination of Gaussian 09 at Wed Aug 26 11:46:26 2020.
