 Gaussian 09, Revision D.01,
 Gaussian 09:  ES64L-G09RevD.01 24-Apr-2013

 --------------------
 #p B2PLYPD3/Def2QZVP
 --------------------

 --------
 methanol
 --------
 Symbolic Z-matrix:
 Charge =  0 Multiplicity = 1

                         Standard orientation:
 ---------------------------------------------------------------------
 Center     Atomic      Atomic             Coordinates (Angstroms)
 Number     Number       Type             X           Y           Z
 ---------------------------------------------------------------------
      1          6           0       -0.649508    0.010572    0.012716
      2          8           0        0.755495   -0.170020   -0.009805
      3          1           0       -1.118700    0.573925   -0.725725
      4          1           0       -0.914350    0.535213    0.766164
      5          1           0       -1.181505   -0.889199   -0.017063
      6          1           0        1.067643    1.076784   -0.021234
 ---------------------------------------------------------------------

 SCF Done:  E(RB2PLYPD3) =  -115.467737647     A.U. after   11 cycles
 E2(B2PLYPD3) =    -0.1535638934D+00 E(B2PLYPD3) =    -0.11562130154071D+03

 The electronic state is 1-A.
 Alpha  occ. eigenvalues --  -19.75266 -10.62675  -1.12793  -0.79971  -0.56058
 Alpha  occ. eigenvalues --   -0.51978  -0.49177  -0.40874  -0.34992
 Alpha virt. eigenvalues --    0.00576   0.07451   0.12389   0.13125   0.14799
 Alpha virt. eigenvalues --    0.17977   0.18555   0.24046   0.29896   0.32906
 Alpha virt. eigenvalues --    0.34456   0.38396   0.39534   0.42417   0.43662

 Mulliken charges:
               1
     1  C    0.105739
     2  O   -0.479678
     3  H    0.025726
     4  H    0.041366
     5  H    0.056469
     6  H    0.250377
 Sum of Mulliken charges =   0.00000

 Dipole moment (field-independent basis, Debye):
    X=             -1.1443    Y=              1.8173    Z=              0.0481  Tot=              2.1481
 Quadrupole moment (field-independent basis, Debye-Ang):
   XX=            -13.3639   YY=            -11.3173   ZZ=            -14.2321
   XY=              2.2238   XZ=              0.0528   YZ=              0.0797

 Normal termination of Gaussian 09 at Wed Aug 26 22:46:28 2020.
