 Gaussian 09, Revision D.01,
 Gaussian 09:  ES64L-G09RevD.01 24-Apr-2013

 --------------------
 #p B2PLYPD3/Def2QZVP
 --------------------

 --------
 methanol
 --------
 Symbolic Z-matrix:
 Charge =  0 Multiplicity = 1

                         Standard orientation:
 ---------------------------------------------------------------------
 Center     Atomic      Atomic             Coordinates (Angstroms)
 Number     Number       Type             X           Y           Z
 ---------------------------------------------------------------------
      1          6           0       -0.679283   -0.003746    0.018150
      2          8           0        0.754449   -0.070809   -0.022428
      3          1           0       -0.874816    1.109618   -0.536401
      4          1           0       -1.083990   -0.045985    1.064872
      5          1           0       -1.067711   -0.861759   -0.647910
      6          1           0        1.066624    0.387070    0.189962
 ---------------------------------------------------------------------

 SCF Done:  E(RB2PLYPD3) =  -115.187354354     A.U. after   11 cycles
 E2(B2PLYPD3) =    -0.1433971551D+00 E(B2PLYPD3) =    -0.11533075150953D+03

 The electronic state is 1-A.
 Alpha  occ. eigenvalues --  -19.68269 -10.69587  -1.28562  -0.82915  -0.61810
 Alpha  occ. eigenvalues --   -0.51480  -0.50780  -0.40659  -0.35998
 Alpha virt. eigenvalues --    0.05079   0.09460   0.11246   0.11887   0.13970
 Alpha virt. eigenvalues --    0.16724   0.17431   0.28346   0.30592   0.32810
 Alpha virt. eigenvalues --    0.35086   0.37448   0.38843   0.41021   0.43160

 Mulliken charges:
               1
     1  C    0.053230
     2  O   -0.161207
     3  H    0.034168
     4  H    0.067624
     5  H    0.090926
     6  H   -0.084741
 Sum of Mulliken charges =   0.00000

 Dipole moment (field-independent basis, Debye):
    X=             -1.0434    Y=              0.8952    Z=              0.5309  Tot=              1.4737
 Quadrupole moment (field-independent basis, Debye-Ang):
   XX=            -13.2462   YY=            -12.7996   ZZ=            -13.1229
   XY=              1.9213   XZ=              0.5515   YZ=              0.3948

 Normal termination of Gaussian 09 at Wed Aug 26 23:47:09 2020.
