 Gaussian 09, Revision D.01,
 Gaussian 09:  ES64L-G09RevD.01 24-Apr-2013

 --------------------
 #p B2PLYPD3/Def2QZVP
 --------------------

 --------
 methanol
 --------
 Symbolic Z-matrix:
 Charge =  0 Multiplicity = 1

                         Standard orientation:
 ---------------------------------------------------------------------
 Center     Atomic      Atomic             Coordinates (Angstroms)
 Number     Number       Type             X           Y           Z
 ---------------------------------------------------------------------
      1          6           0       -0.675731    0.006969    0.000705
      2          8           0        0.733544   -0.151575   -0.018870
      3          1           0       -1.057347    0.640718   -0.801814
      4          1           0       -0.995261    0.454126    0.864835
      5          1           0       -0.999375   -0.872967   -0.010237
      6          1           0        1.238014    0.948907    0.093946
 ---------------------------------------------------------------------

 SCF Done:  E(RB2PLYPD3) =  -115.489210590     A.U. after   11 cycles
 E2(B2PLYPD3) =    -0.1515539126D+00 E(B2PLYPD3) =    -0.11564076450234D+03

 The electronic state is 1-A.
 Alpha  occ. eigenvalues --  -19.74012 -10.62810  -1.12629  -0.79388  -0.56884
 Alpha  occ. eigenvalues --   -0.51513  -0.49875  -0.40759  -0.34646
 Alpha virt. eigenvalues --    0.02167   0.07737   0.12660   0.12889   0.15002
 Alpha virt. eigenvalues --    0.17036   0.18215   0.26248   0.29575   0.33341
 Alpha virt. eigenvalues --    0.34374   0.38259   0.41096   0.41176   0.44223

 Mulliken charges:
               1
     1  C    0.080119
     2  O   -0.498105
     3  H    0.042101
     4  H    0.041773
     5  H    0.081592
     6  H    0.252521
 Sum of Mulliken charges =   0.00000

 Dipole moment (field-independent basis, Debye):
    X=             -0.8770    Y=              1.6092    Z=              0.2471  Tot=              1.8493
 Quadrupole moment (field-independent basis, Debye-Ang):
   XX=            -12.8189   YY=            -11.7017   ZZ=            -13.9499
   XY=              2.5068   XZ=              0.1810   YZ=              0.1234

 Normal termination of Gaussian 09 at Wed Aug 26 13:35:38 2020.
