 Gaussian 09, Revision D.01,
 Gaussian 09:  ES64L-G09RevD.01 24-Apr-2013

 --------------------
 #p B2PLYPD3/Def2QZVP
 --------------------

 --------
 methanol
 --------
 Symbolic Z-matrix:
 Charge =  0 Multiplicity = 1

                         Standard orientation:
 ---------------------------------------------------------------------
 Center     Atomic      Atomic             Coordinates (Angstroms)
 Number     Number       Type             X           Y           Z
 ---------------------------------------------------------------------
      1          6           0        0.680058    0.023174    0.006710
      2          8           0       -0.749540   -0.140083   -0.007798
      3          1           0        1.066911    0.398796    0.861626
      4          1           0        0.968465    0.683070   -0.792428
      5          1           0        1.058066   -0.957082   -0.125878
      6          1           0       -1.177470    0.856832    0.078805
 ---------------------------------------------------------------------

 SCF Done:  E(RB2PLYPD3) =  -115.532351828     A.U. after   11 cycles
 E2(B2PLYPD3) =    -0.1495540502D+00 E(B2PLYPD3) =    -0.11568190587848D+03

 The electronic state is 1-A.
 Alpha  occ. eigenvalues --  -19.73357 -10.64158  -1.13302  -0.78987  -0.57199
 Alpha  occ. eigenvalues --   -0.52151  -0.48937  -0.41200  -0.35193
 Alpha virt. eigenvalues --    0.03943   0.07898   0.12373   0.12696   0.14965
 Alpha virt. eigenvalues --    0.17140   0.18108   0.28991   0.30736   0.32853
 Alpha virt. eigenvalues --    0.33955   0.39093   0.39252   0.42163   0.44725

 Mulliken charges:
               1
     1  C    0.083922
     2  O   -0.493746
     3  H    0.051021
     4  H    0.043155
     5  H    0.069826
     6  H    0.245821
 Sum of Mulliken charges =   0.00000

 Dipole moment (field-independent basis, Debye):
    X=              0.9658    Y=              1.6195    Z=              0.1874  Tot=              1.8949
 Quadrupole moment (field-independent basis, Debye-Ang):
   XX=            -12.9706   YY=            -11.9013   ZZ=            -13.8793
   XY=             -2.3349   XZ=             -0.0453   YZ=              0.1332

 Normal termination of Gaussian 09 at Wed Aug 26 11:51:33 2020.
