 Gaussian 09, Revision D.01,
 Gaussian 09:  ES64L-G09RevD.01 24-Apr-2013

 --------------------
 #p B2PLYPD3/Def2QZVP
 --------------------

 --------
 methanol
 --------
 Symbolic Z-matrix:
 Charge =  0 Multiplicity = 1

                         Standard orientation:
 ---------------------------------------------------------------------
 Center     Atomic      Atomic             Coordinates (Angstroms)
 Number     Number       Type             X           Y           Z
 ---------------------------------------------------------------------
      1          6           0       -0.673397   -0.022402   -0.001956
      2          8           0        0.747305    0.106116   -0.005885
      3          1           0       -1.043289   -0.435407    0.952798
      4          1           0       -0.977215   -0.668948   -0.852754
      5          1           0       -1.066880    1.029207   -0.106210
      6          1           0        1.149322   -0.639372    0.064983
 ---------------------------------------------------------------------

 SCF Done:  E(RB2PLYPD3) =  -115.537727330     A.U. after   10 cycles
 E2(B2PLYPD3) =    -0.1456005475D+00 E(B2PLYPD3) =    -0.11568332787723D+03

 The electronic state is 1-A.
 Alpha  occ. eigenvalues --  -19.71165 -10.66681  -1.18344  -0.79496  -0.59914
 Alpha  occ. eigenvalues --   -0.51906  -0.49684  -0.40803  -0.35578
 Alpha virt. eigenvalues --    0.05353   0.08675   0.12133   0.12248   0.14711
 Alpha virt. eigenvalues --    0.16979   0.17881   0.29093   0.32796   0.33341
 Alpha virt. eigenvalues --    0.37599   0.38637   0.39750   0.40495   0.42981

 Mulliken charges:
               1
     1  C    0.067673
     2  O   -0.409568
     3  H    0.052286
     4  H    0.051190
     5  H    0.074240
     6  H    0.164179
 Sum of Mulliken charges =   0.00000

 Dipole moment (field-independent basis, Debye):
    X=             -0.8668    Y=             -1.3934    Z=              0.1380  Tot=              1.6468
 Quadrupole moment (field-independent basis, Debye-Ang):
   XX=            -12.9808   YY=            -12.3781   ZZ=            -13.6667
   XY=             -2.1361   XZ=              0.1271   YZ=             -0.0655

 Normal termination of Gaussian 09 at Wed Aug 26 10:00:28 2020.
