 Gaussian 09, Revision D.01,
 Gaussian 09:  ES64L-G09RevD.01 24-Apr-2013

 --------------------
 #p B2PLYPD3/Def2QZVP
 --------------------

 --------
 methanol
 --------
 Symbolic Z-matrix:
 Charge =  0 Multiplicity = 1

                         Standard orientation:
 ---------------------------------------------------------------------
 Center     Atomic      Atomic             Coordinates (Angstroms)
 Number     Number       Type             X           Y           Z
 ---------------------------------------------------------------------
      1          6           0       -0.670510    0.012380   -0.002494
      2          8           0        0.757651   -0.127109   -0.010966
      3          1           0       -1.080432    0.610928   -0.834711
      4          1           0       -1.033603    0.447392    0.923412
      5          1           0       -1.066087   -0.939692   -0.042143
      6          1           0        1.141970    0.823963    0.056134
 ---------------------------------------------------------------------

 SCF Done:  E(RB2PLYPD3) =  -115.544892938     A.U. after   10 cycles
 E2(B2PLYPD3) =    -0.1486724437D+00 E(B2PLYPD3) =    -0.11569356538162D+03

 The electronic state is 1-A.
 Alpha  occ. eigenvalues --  -19.73273 -10.65065  -1.14512  -0.78793  -0.57550
 Alpha  occ. eigenvalues --   -0.51212  -0.49937  -0.41447  -0.35313
 Alpha virt. eigenvalues --    0.04501   0.07923   0.12370   0.12657   0.14861
 Alpha virt. eigenvalues --    0.17298   0.18309   0.29040   0.32352   0.33360
 Alpha virt. eigenvalues --    0.33644   0.38664   0.40404   0.40561   0.43886

 Mulliken charges:
               1
     1  C    0.072477
     2  O   -0.477885
     3  H    0.045500
     4  H    0.046077
     5  H    0.072713
     6  H    0.241118
 Sum of Mulliken charges =   0.00000

 Dipole moment (field-independent basis, Debye):
    X=             -0.9572    Y=              1.5226    Z=              0.1320  Tot=              1.8033
 Quadrupole moment (field-independent basis, Debye-Ang):
   XX=            -13.0205   YY=            -12.0822   ZZ=            -13.8668
   XY=              2.3215   XZ=              0.1646   YZ=              0.0609

 Normal termination of Gaussian 09 at Thu Aug 27 00:10:17 2020.
