 Gaussian 09, Revision D.01,
 Gaussian 09:  ES64L-G09RevD.01 24-Apr-2013

 --------------------
 #p B2PLYPD3/Def2QZVP
 --------------------

 --------
 methanol
 --------
 Symbolic Z-matrix:
 Charge =  0 Multiplicity = 1

                         Standard orientation:
 ---------------------------------------------------------------------
 Center     Atomic      Atomic             Coordinates (Angstroms)
 Number     Number       Type             X           Y           Z
 ---------------------------------------------------------------------
      1          6           0       -0.654467   -0.023641   -0.009366
      2          8           0        0.740986    0.134281    0.003390
      3          1           0       -1.035122   -0.540004    0.879384
      4          1           0       -1.028853   -0.552562   -0.838914
      5          1           0       -1.110013    0.965503   -0.001597
      6          1           0        1.172906   -0.805343   -0.009798
 ---------------------------------------------------------------------

 SCF Done:  E(RB2PLYPD3) =  -115.545761941     A.U. after   10 cycles
 E2(B2PLYPD3) =    -0.1482978799D+00 E(B2PLYPD3) =    -0.11569405982083D+03

 The electronic state is 1-A.
 Alpha  occ. eigenvalues --  -19.73284 -10.64975  -1.15332  -0.78407  -0.58279
 Alpha  occ. eigenvalues --   -0.51736  -0.49934  -0.40757  -0.35149
 Alpha virt. eigenvalues --    0.04407   0.07939   0.12499   0.12630   0.15030
 Alpha virt. eigenvalues --    0.17450   0.18200   0.29163   0.32158   0.33379
 Alpha virt. eigenvalues --    0.34560   0.38911   0.39678   0.41353   0.44199

 Mulliken charges:
               1
     1  C    0.073023
     2  O   -0.470884
     3  H    0.041186
     4  H    0.046608
     5  H    0.065946
     6  H    0.244122
 Sum of Mulliken charges =   0.00000

 Dipole moment (field-independent basis, Debye):
    X=             -0.7879    Y=             -1.5815    Z=             -0.0607  Tot=              1.7679
 Quadrupole moment (field-independent basis, Debye-Ang):
   XX=            -12.8610   YY=            -12.1632   ZZ=            -13.9275
   XY=             -2.3491   XZ=              0.0151   YZ=              0.0669

 Normal termination of Gaussian 09 at Thu Aug 27 00:06:25 2020.
