 Gaussian 09, Revision D.01,
 Gaussian 09:  ES64L-G09RevD.01 24-Apr-2013

 --------------------
 #p B2PLYPD3/Def2QZVP
 --------------------

 --------
 methanol
 --------
 Symbolic Z-matrix:
 Charge =  0 Multiplicity = 1

                         Standard orientation:
 ---------------------------------------------------------------------
 Center     Atomic      Atomic             Coordinates (Angstroms)
 Number     Number       Type             X           Y           Z
 ---------------------------------------------------------------------
      1          6           0       -0.671804   -0.020312    0.010956
      2          8           0        0.757454    0.112282   -0.010276
      3          1           0       -1.046346   -0.477935    0.897394
      4          1           0       -1.029437   -0.628918   -0.875975
      5          1           0       -1.092728    1.024178   -0.066876
      6          1           0        1.139709   -0.693712    0.061929
 ---------------------------------------------------------------------

 SCF Done:  E(RB2PLYPD3) =  -115.546479516     A.U. after   10 cycles
 E2(B2PLYPD3) =    -0.1465349455D+00 E(B2PLYPD3) =    -0.11569301446105D+03

 The electronic state is 1-A.
 Alpha  occ. eigenvalues --  -19.71983 -10.66494  -1.17145  -0.79013  -0.59526
 Alpha  occ. eigenvalues --   -0.51413  -0.49414  -0.41234  -0.35612
 Alpha virt. eigenvalues --    0.05213   0.08378   0.12155   0.12305   0.14836
 Alpha virt. eigenvalues --    0.17201   0.17991   0.29098   0.32636   0.33450
 Alpha virt. eigenvalues --    0.36768   0.38158   0.39307   0.40882   0.43090

 Mulliken charges:
               1
     1  C    0.068610
     2  O   -0.435821
     3  H    0.055756
     4  H    0.045966
     5  H    0.071025
     6  H    0.194464
 Sum of Mulliken charges =   0.00000

 Dipole moment (field-independent basis, Debye):
    X=             -0.9204    Y=             -1.4576    Z=              0.1916  Tot=              1.7345
 Quadrupole moment (field-independent basis, Debye-Ang):
   XX=            -12.9855   YY=            -12.3113   ZZ=            -13.7834
   XY=             -2.1580   XZ=              0.0884   YZ=             -0.1396

 Normal termination of Gaussian 09 at Wed Aug 26 23:49:01 2020.
