 Gaussian 09, Revision D.01,
 Gaussian 09:  ES64L-G09RevD.01 24-Apr-2013

 --------------------
 #p B2PLYPD3/Def2QZVP
 --------------------

 --------
 methanol
 --------
 Symbolic Z-matrix:
 Charge =  0 Multiplicity = 1

                         Standard orientation:
 ---------------------------------------------------------------------
 Center     Atomic      Atomic             Coordinates (Angstroms)
 Number     Number       Type             X           Y           Z
 ---------------------------------------------------------------------
      1          6           0        0.670500   -0.031629    0.002199
      2          8           0       -0.755034    0.136555   -0.009750
      3          1           0        1.081742   -0.583308   -0.825760
      4          1           0        1.062711   -0.467894    0.861747
      5          1           0        1.089125    0.980709   -0.023949
      6          1           0       -1.216307   -0.832177    0.052767
 ---------------------------------------------------------------------

 SCF Done:  E(RB2PLYPD3) =  -115.537490058     A.U. after   11 cycles
 E2(B2PLYPD3) =    -0.1495306466D+00 E(B2PLYPD3) =    -0.11568702070469D+03

 The electronic state is 1-A.
 Alpha  occ. eigenvalues --  -19.73661 -10.64918  -1.13651  -0.78663  -0.57263
 Alpha  occ. eigenvalues --   -0.51562  -0.48937  -0.40765  -0.35472
 Alpha virt. eigenvalues --    0.04124   0.07646   0.12360   0.12726   0.15056
 Alpha virt. eigenvalues --    0.17190   0.18447   0.28905   0.31043   0.33436
 Alpha virt. eigenvalues --    0.33859   0.38223   0.39514   0.41488   0.44282

 Mulliken charges:
               1
     1  C    0.072937
     2  O   -0.486521
     3  H    0.049455
     4  H    0.051812
     5  H    0.064150
     6  H    0.248166
 Sum of Mulliken charges =   0.00000

 Dipole moment (field-independent basis, Debye):
    X=              0.8665    Y=             -1.6159    Z=              0.1429  Tot=              1.8391
 Quadrupole moment (field-independent basis, Debye-Ang):
   XX=            -12.6694   YY=            -12.1521   ZZ=            -13.9586
   XY=              2.3306   XZ=             -0.1048   YZ=             -0.0669

 Normal termination of Gaussian 09 at Wed Aug 26 13:45:53 2020.
