 Gaussian 09, Revision D.01,
 Gaussian 09:  ES64L-G09RevD.01 24-Apr-2013

 --------------------
 #p B2PLYPD3/Def2QZVP
 --------------------

 --------
 methanol
 --------
 Symbolic Z-matrix:
 Charge =  0 Multiplicity = 1

                         Standard orientation:
 ---------------------------------------------------------------------
 Center     Atomic      Atomic             Coordinates (Angstroms)
 Number     Number       Type             X           Y           Z
 ---------------------------------------------------------------------
      1          6           0        0.682591    0.001509   -0.039515
      2          8           0       -0.730852   -0.189618    0.029865
      3          1           0        0.954223    0.702914    0.811094
      4          1           0        0.915641    0.406344   -0.759287
      5          1           0        1.091022   -0.728252    0.083820
      6          1           0       -1.209622    1.126881   -0.137455
 ---------------------------------------------------------------------

 SCF Done:  E(RB2PLYPD3) =  -115.350396905     A.U. after   12 cycles
 E2(B2PLYPD3) =    -0.1556166893D+00 E(B2PLYPD3) =    -0.11550601359453D+03

 The electronic state is 1-A.
 Alpha  occ. eigenvalues --  -19.74973 -10.60441  -1.11514  -0.82291  -0.58812
 Alpha  occ. eigenvalues --   -0.51635  -0.49323  -0.39937  -0.34468
 Alpha virt. eigenvalues --   -0.01627   0.07579   0.12546   0.12984   0.14502
 Alpha virt. eigenvalues --    0.17846   0.18167   0.22453   0.29702   0.32516
 Alpha virt. eigenvalues --    0.33737   0.37178   0.40869   0.42603   0.47534

 Mulliken charges:
               1
     1  C   -0.002253
     2  O   -0.485760
     3  H    0.038031
     4  H    0.089792
     5  H    0.122080
     6  H    0.238109
 Sum of Mulliken charges =   0.00000

 Dipole moment (field-independent basis, Debye):
    X=              1.0913    Y=              1.6575    Z=             -0.4018  Tot=              2.0248
 Quadrupole moment (field-independent basis, Debye-Ang):
   XX=            -13.0429   YY=            -11.3044   ZZ=            -13.8298
   XY=             -2.7103   XZ=              0.0777   YZ=             -0.3759

 Normal termination of Gaussian 09 at Wed Aug 26 20:17:37 2020.
