 Gaussian 09, Revision D.01,
 Gaussian 09:  ES64L-G09RevD.01 24-Apr-2013

 --------------------
 #p B2PLYPD3/Def2QZVP
 --------------------

 --------
 methanol
 --------
 Symbolic Z-matrix:
 Charge =  0 Multiplicity = 1

                         Standard orientation:
 ---------------------------------------------------------------------
 Center     Atomic      Atomic             Coordinates (Angstroms)
 Number     Number       Type             X           Y           Z
 ---------------------------------------------------------------------
      1          6           0        0.661273   -0.009864   -0.000367
      2          8           0       -0.746218    0.100186   -0.004439
      3          1           0        0.997054   -0.649220   -0.882120
      4          1           0        1.063902   -0.450243    0.957697
      5          1           0        1.028469    1.017061   -0.097167
      6          1           0       -1.087318   -0.659905    0.059302
 ---------------------------------------------------------------------

 SCF Done:  E(RB2PLYPD3) =  -115.532922248     A.U. after   10 cycles
 E2(B2PLYPD3) =    -0.1453892222D+00 E(B2PLYPD3) =    -0.11567831146988D+03

 The electronic state is 1-A.
 Alpha  occ. eigenvalues --  -19.71362 -10.66753  -1.19616  -0.79448  -0.60282
 Alpha  occ. eigenvalues --   -0.51535  -0.50312  -0.41437  -0.35501
 Alpha virt. eigenvalues --    0.05326   0.08780   0.12074   0.12277   0.14793
 Alpha virt. eigenvalues --    0.17025   0.17919   0.28962   0.32922   0.33617
 Alpha virt. eigenvalues --    0.37329   0.39026   0.39800   0.40287   0.43082

 Mulliken charges:
               1
     1  C    0.061222
     2  O   -0.382563
     3  H    0.044313
     4  H    0.046972
     5  H    0.076776
     6  H    0.153280
 Sum of Mulliken charges =   0.00000

 Dipole moment (field-independent basis, Debye):
    X=              0.8748    Y=             -1.3476    Z=              0.1211  Tot=              1.6112
 Quadrupole moment (field-independent basis, Debye-Ang):
   XX=            -13.2558   YY=            -12.3027   ZZ=            -13.6921
   XY=              2.0775   XZ=             -0.0982   YZ=             -0.0907

 Normal termination of Gaussian 09 at Wed Aug 26 11:04:27 2020.
