 Gaussian 09, Revision D.01,
 Gaussian 09:  ES64L-G09RevD.01 24-Apr-2013

 --------------------
 #p B2PLYPD3/Def2QZVP
 --------------------

 --------
 methanol
 --------
 Symbolic Z-matrix:
 Charge =  0 Multiplicity = 1

                         Standard orientation:
 ---------------------------------------------------------------------
 Center     Atomic      Atomic             Coordinates (Angstroms)
 Number     Number       Type             X           Y           Z
 ---------------------------------------------------------------------
      1          6           0       -0.674797   -0.050463    0.019122
      2          8           0        0.754790    0.074481   -0.039512
      3          1           0       -0.839022   -0.285184    1.101444
      4          1           0       -1.042648   -0.791557   -0.803375
      5          1           0       -1.197637    1.124706   -0.222038
      6          1           0        1.089771   -0.341041    0.125331
 ---------------------------------------------------------------------

 SCF Done:  E(RB2PLYPD3) =  -115.054338631     A.U. after   11 cycles
 E2(B2PLYPD3) =    -0.1435797836D+00 E(B2PLYPD3) =    -0.11519791841452D+03

 The electronic state is 1-A.
 Alpha  occ. eigenvalues --  -19.67959 -10.70236  -1.30196  -0.83451  -0.61941
 Alpha  occ. eigenvalues --   -0.53162  -0.48837  -0.39099  -0.36935
 Alpha virt. eigenvalues --    0.04815   0.09606   0.10994   0.11602   0.13592
 Alpha virt. eigenvalues --    0.16904   0.17615   0.28177   0.31168   0.31730
 Alpha virt. eigenvalues --    0.32838   0.37293   0.39673   0.40703   0.43597

 Mulliken charges:
               1
     1  C    0.056313
     2  O   -0.121208
     3  H    0.067856
     4  H    0.068599
     5  H    0.062544
     6  H   -0.134103
 Sum of Mulliken charges =   0.00000

 Dipole moment (field-independent basis, Debye):
    X=             -1.0109    Y=             -1.1026    Z=              0.4690  Tot=              1.5677
 Quadrupole moment (field-independent basis, Debye-Ang):
   XX=            -13.0877   YY=            -12.8778   ZZ=            -13.0907
   XY=             -1.6345   XZ=              0.7867   YZ=             -0.0688

 Normal termination of Gaussian 09 at Wed Aug 26 23:37:58 2020.
