 Gaussian 09, Revision D.01,
 Gaussian 09:  ES64L-G09RevD.01 24-Apr-2013

 --------------------
 #p B2PLYPD3/Def2QZVP
 --------------------

 --------
 methanol
 --------
 Symbolic Z-matrix:
 Charge =  0 Multiplicity = 1

                         Standard orientation:
 ---------------------------------------------------------------------
 Center     Atomic      Atomic             Coordinates (Angstroms)
 Number     Number       Type             X           Y           Z
 ---------------------------------------------------------------------
      1          6           0        0.670538    0.034998    0.016854
      2          8           0       -0.759840   -0.146162   -0.014110
      3          1           0        1.047364    0.440574    0.819965
      4          1           0        1.054704    0.611992   -0.818361
      5          1           0        1.128936   -0.974560   -0.059589
      6          1           0       -1.175511    0.881299    0.069742
 ---------------------------------------------------------------------

 SCF Done:  E(RB2PLYPD3) =  -115.521882597     A.U. after   11 cycles
 E2(B2PLYPD3) =    -0.1503471247D+00 E(B2PLYPD3) =    -0.11567222972219D+03

 The electronic state is 1-A.
 Alpha  occ. eigenvalues --  -19.74047 -10.64451  -1.13154  -0.79111  -0.56795
 Alpha  occ. eigenvalues --   -0.51977  -0.48599  -0.40944  -0.35577
 Alpha virt. eigenvalues --    0.03656   0.07599   0.12303   0.12741   0.14954
 Alpha virt. eigenvalues --    0.17494   0.18390   0.28429   0.29986   0.33122
 Alpha virt. eigenvalues --    0.33940   0.37781   0.39417   0.41818   0.44425

 Mulliken charges:
               1
     1  C    0.080961
     2  O   -0.488405
     3  H    0.054633
     4  H    0.044721
     5  H    0.058188
     6  H    0.249903
 Sum of Mulliken charges =   0.00000

 Dipole moment (field-independent basis, Debye):
    X=              0.9684    Y=              1.6856    Z=              0.2217  Tot=              1.9566
 Quadrupole moment (field-independent basis, Debye-Ang):
   XX=            -12.8844   YY=            -12.0052   ZZ=            -13.9543
   XY=             -2.3010   XZ=             -0.0710   YZ=              0.1569

 Normal termination of Gaussian 09 at Wed Aug 26 15:46:08 2020.
