 Gaussian 09, Revision D.01,
 Gaussian 09:  ES64L-G09RevD.01 24-Apr-2013

 --------------------
 #p B2PLYPD3/Def2QZVP
 --------------------

 --------
 methanol
 --------
 Symbolic Z-matrix:
 Charge =  0 Multiplicity = 1

                         Standard orientation:
 ---------------------------------------------------------------------
 Center     Atomic      Atomic             Coordinates (Angstroms)
 Number     Number       Type             X           Y           Z
 ---------------------------------------------------------------------
      1          6           0       -0.680333   -0.011787   -0.001322
      2          8           0        0.761036    0.098980   -0.006512
      3          1           0       -0.979447   -0.535072    0.966261
      4          1           0       -1.131876   -0.554867   -0.896862
      5          1           0       -1.035391    1.021896    0.010939
      6          1           0        1.140426   -0.653074   -0.020310
 ---------------------------------------------------------------------

 SCF Done:  E(RB2PLYPD3) =  -115.532754026     A.U. after   10 cycles
 E2(B2PLYPD3) =    -0.1459850024D+00 E(B2PLYPD3) =    -0.11567873902884D+03

 The electronic state is 1-A.
 Alpha  occ. eigenvalues --  -19.71320 -10.67211  -1.18192  -0.79423  -0.59548
 Alpha  occ. eigenvalues --   -0.51040  -0.49754  -0.41262  -0.35626
 Alpha virt. eigenvalues --    0.05353   0.08492   0.11997   0.12281   0.14602
 Alpha virt. eigenvalues --    0.16897   0.18076   0.28951   0.31889   0.33520
 Alpha virt. eigenvalues --    0.37050   0.38826   0.39467   0.39889   0.42744

 Mulliken charges:
               1
     1  C    0.061101
     2  O   -0.403722
     3  H    0.051008
     4  H    0.052532
     5  H    0.080271
     6  H    0.158810
 Sum of Mulliken charges =   0.00000

 Dipole moment (field-independent basis, Debye):
    X=             -0.9426    Y=             -1.3443    Z=             -0.0203  Tot=              1.6419
 Quadrupole moment (field-independent basis, Debye-Ang):
   XX=            -13.0112   YY=            -12.3906   ZZ=            -13.7026
   XY=             -2.1272   XZ=              0.1049   YZ=              0.0418

 Normal termination of Gaussian 09 at Wed Aug 26 13:53:04 2020.
