 Gaussian 09, Revision D.01,
 Gaussian 09:  ES64L-G09RevD.01 24-Apr-2013

 --------------------
 #p B2PLYPD3/Def2QZVP
 --------------------

 --------
 methanol
 --------
 Symbolic Z-matrix:
 Charge =  0 Multiplicity = 1

                         Standard orientation:
 ---------------------------------------------------------------------
 Center     Atomic      Atomic             Coordinates (Angstroms)
 Number     Number       Type             X           Y           Z
 ---------------------------------------------------------------------
      1          6           0        0.634621    0.018900   -0.009653
      2          8           0       -0.735692   -0.148043    0.010147
      3          1           0        0.905760    0.671071    0.856208
      4          1           0        1.152927    0.414952   -0.834281
      5          1           0        1.164102   -0.886404    0.100078
      6          1           0       -1.144980    0.871326   -0.145261
 ---------------------------------------------------------------------

 SCF Done:  E(RB2PLYPD3) =  -115.524855762     A.U. after   11 cycles
 E2(B2PLYPD3) =    -0.1497002632D+00 E(B2PLYPD3) =    -0.11567455602472D+03

 The electronic state is 1-A.
 Alpha  occ. eigenvalues --  -19.74215 -10.64551  -1.15491  -0.78237  -0.57562
 Alpha  occ. eigenvalues --   -0.52463  -0.50076  -0.40282  -0.34746
 Alpha virt. eigenvalues --    0.03425   0.07668   0.12503   0.12827   0.14877
 Alpha virt. eigenvalues --    0.17926   0.18587   0.28338   0.29841   0.32596
 Alpha virt. eigenvalues --    0.35469   0.39067   0.39401   0.41474   0.44229

 Mulliken charges:
               1
     1  C    0.066580
     2  O   -0.458311
     3  H    0.032175
     4  H    0.039864
     5  H    0.061388
     6  H    0.258305
 Sum of Mulliken charges =   0.00000

 Dipole moment (field-independent basis, Debye):
    X=              0.7495    Y=              1.5778    Z=             -0.3139  Tot=              1.7748
 Quadrupole moment (field-independent basis, Debye-Ang):
   XX=            -12.9098   YY=            -12.1849   ZZ=            -14.0187
   XY=             -2.5030   XZ=              0.0608   YZ=             -0.2226

 Normal termination of Gaussian 09 at Wed Aug 26 21:59:36 2020.
