 Gaussian 09, Revision D.01,
 Gaussian 09:  ES64L-G09RevD.01 24-Apr-2013

 --------------------
 #p B2PLYPD3/Def2QZVP
 --------------------

 --------
 methanol
 --------
 Symbolic Z-matrix:
 Charge =  0 Multiplicity = 1

                         Standard orientation:
 ---------------------------------------------------------------------
 Center     Atomic      Atomic             Coordinates (Angstroms)
 Number     Number       Type             X           Y           Z
 ---------------------------------------------------------------------
      1          6           0        0.663094    0.032663   -0.015560
      2          8           0       -0.718909   -0.174674    0.008996
      3          1           0        1.013701    0.539246    0.803469
      4          1           0        0.880131    0.572019   -0.766499
      5          1           0        1.112445   -0.883811   -0.019366
      6          1           0       -1.233568    0.973959    0.003788
 ---------------------------------------------------------------------

 SCF Done:  E(RB2PLYPD3) =  -115.478443110     A.U. after   11 cycles
 E2(B2PLYPD3) =    -0.1517779249D+00 E(B2PLYPD3) =    -0.11563022103465D+03

 The electronic state is 1-A.
 Alpha  occ. eigenvalues --  -19.74074 -10.61862  -1.13050  -0.79401  -0.56773
 Alpha  occ. eigenvalues --   -0.53200  -0.49524  -0.40150  -0.34678
 Alpha virt. eigenvalues --    0.01375   0.07773   0.12624   0.13051   0.15010
 Alpha virt. eigenvalues --    0.17575   0.17909   0.25003   0.29692   0.33053
 Alpha virt. eigenvalues --    0.35099   0.39586   0.40034   0.43135   0.45039

 Mulliken charges:
               1
     1  C    0.100502
     2  O   -0.493505
     3  H    0.036280
     4  H    0.044135
     5  H    0.064400
     6  H    0.248187
 Sum of Mulliken charges =   0.00000

 Dipole moment (field-independent basis, Debye):
    X=              0.8790    Y=              1.7388    Z=             -0.0580  Tot=              1.9493
 Quadrupole moment (field-independent basis, Debye-Ang):
   XX=            -12.8182   YY=            -11.6331   ZZ=            -13.9275
   XY=             -2.5478   XZ=              0.0544   YZ=             -0.0763

 Normal termination of Gaussian 09 at Wed Aug 26 16:06:47 2020.
