 Gaussian 09, Revision D.01,
 Gaussian 09:  ES64L-G09RevD.01 24-Apr-2013

 --------------------
 #p B2PLYPD3/Def2QZVP
 --------------------

 --------
 methanol
 --------
 Symbolic Z-matrix:
 Charge =  0 Multiplicity = 1

                         Standard orientation:
 ---------------------------------------------------------------------
 Center     Atomic      Atomic             Coordinates (Angstroms)
 Number     Number       Type             X           Y           Z
 ---------------------------------------------------------------------
      1          6           0        0.656667    0.006929   -0.017434
      2          8           0       -0.756886    0.064481    0.008778
      3          1           0        1.016463   -0.811706   -0.802546
      4          1           0        1.230177   -0.267875    1.067856
      5          1           0        0.925654    1.043830   -0.312778
      6          1           0       -1.057209   -0.521673    0.081845
 ---------------------------------------------------------------------

 SCF Done:  E(RB2PLYPD3) =  -115.352941981     A.U. after   11 cycles
 E2(B2PLYPD3) =    -0.1441400548D+00 E(B2PLYPD3) =    -0.11549708203576D+03

 The electronic state is 1-A.
 Alpha  occ. eigenvalues --  -19.69893 -10.69260  -1.26387  -0.81836  -0.61636
 Alpha  occ. eigenvalues --   -0.51166  -0.49954  -0.41836  -0.35697
 Alpha virt. eigenvalues --    0.05227   0.08884   0.11518   0.11939   0.14790
 Alpha virt. eigenvalues --    0.16543   0.17883   0.28476   0.31748   0.33016
 Alpha virt. eigenvalues --    0.34516   0.37230   0.39557   0.41123   0.42340

 Mulliken charges:
               1
     1  C    0.038030
     2  O   -0.202956
     3  H    0.043736
     4  H    0.037832
     5  H    0.092441
     6  H   -0.009083
 Sum of Mulliken charges =   0.00000

 Dipole moment (field-independent basis, Debye):
    X=              0.8596    Y=             -1.1099    Z=              0.0180  Tot=              1.4040
 Quadrupole moment (field-independent basis, Debye-Ang):
   XX=            -13.3186   YY=            -12.4214   ZZ=            -13.7400
   XY=              1.7596   XZ=             -0.1840   YZ=             -0.1461

 Normal termination of Gaussian 09 at Wed Aug 26 22:51:47 2020.
