 Gaussian 09, Revision D.01,
 Gaussian 09:  ES64L-G09RevD.01 24-Apr-2013

 --------------------
 #p B2PLYPD3/Def2QZVP
 --------------------

 --------
 methanol
 --------
 Symbolic Z-matrix:
 Charge =  0 Multiplicity = 1

                         Standard orientation:
 ---------------------------------------------------------------------
 Center     Atomic      Atomic             Coordinates (Angstroms)
 Number     Number       Type             X           Y           Z
 ---------------------------------------------------------------------
      1          6           0       -0.669622   -0.018026    0.009311
      2          8           0        0.749262    0.097188   -0.006230
      3          1           0       -1.040899   -0.485085    0.923671
      4          1           0       -1.003600   -0.631271   -0.898069
      5          1           0       -1.043291    1.062907   -0.078921
      6          1           0        1.111430   -0.615900    0.047294
 ---------------------------------------------------------------------

 SCF Done:  E(RB2PLYPD3) =  -115.516120639     A.U. after   10 cycles
 E2(B2PLYPD3) =    -0.1450268268D+00 E(B2PLYPD3) =    -0.11566114746604D+03

 The electronic state is 1-A.
 Alpha  occ. eigenvalues --  -19.70799 -10.67169  -1.20125  -0.79838  -0.60702
 Alpha  occ. eigenvalues --   -0.51668  -0.49646  -0.41143  -0.35726
 Alpha virt. eigenvalues --    0.05367   0.08891   0.11965   0.12134   0.14781
 Alpha virt. eigenvalues --    0.16915   0.17802   0.29014   0.32715   0.33332
 Alpha virt. eigenvalues --    0.37398   0.38478   0.39983   0.40490   0.42512

 Mulliken charges:
               1
     1  C    0.061812
     2  O   -0.358570
     3  H    0.056115
     4  H    0.046596
     5  H    0.074211
     6  H    0.119835
 Sum of Mulliken charges =   0.00000

 Dipole moment (field-independent basis, Debye):
    X=             -0.8922    Y=             -1.3580    Z=              0.1494  Tot=              1.6317
 Quadrupole moment (field-independent basis, Debye-Ang):
   XX=            -13.1419   YY=            -12.3545   ZZ=            -13.6540
   XY=             -2.0058   XZ=              0.0483   YZ=             -0.1201

 Normal termination of Gaussian 09 at Thu Aug 27 00:15:08 2020.
