 Gaussian 09, Revision D.01,
 Gaussian 09:  ES64L-G09RevD.01 24-Apr-2013

 --------------------
 #p B2PLYPD3/Def2QZVP
 --------------------

 --------
 methanol
 --------
 Symbolic Z-matrix:
 Charge =  0 Multiplicity = 1

                         Standard orientation:
 ---------------------------------------------------------------------
 Center     Atomic      Atomic             Coordinates (Angstroms)
 Number     Number       Type             X           Y           Z
 ---------------------------------------------------------------------
      1          6           0       -0.678592   -0.018147    0.000414
      2          8           0        0.751978    0.105853   -0.004935
      3          1           0       -1.039795   -0.502393    0.921390
      4          1           0       -0.993077   -0.630394   -0.879661
      5          1           0       -1.077922    1.033526   -0.054077
      6          1           0        1.166524   -0.638677    0.049351
 ---------------------------------------------------------------------

 SCF Done:  E(RB2PLYPD3) =  -115.538357013     A.U. after   10 cycles
 E2(B2PLYPD3) =    -0.1457723910D+00 E(B2PLYPD3) =    -0.11568412940394D+03

 The electronic state is 1-A.
 Alpha  occ. eigenvalues --  -19.71173 -10.66828  -1.17877  -0.79482  -0.59785
 Alpha  occ. eigenvalues --   -0.51492  -0.49714  -0.40850  -0.35518
 Alpha virt. eigenvalues --    0.05346   0.08590   0.12131   0.12241   0.14732
 Alpha virt. eigenvalues --    0.17004   0.17781   0.29145   0.32499   0.33287
 Alpha virt. eigenvalues --    0.37550   0.38715   0.39580   0.40241   0.42761

 Mulliken charges:
               1
     1  C    0.070259
     2  O   -0.418082
     3  H    0.052337
     4  H    0.050828
     5  H    0.077073
     6  H    0.167586
 Sum of Mulliken charges =   0.00000

 Dipole moment (field-independent basis, Debye):
    X=             -0.8872    Y=             -1.3957    Z=              0.1170  Tot=              1.6579
 Quadrupole moment (field-independent basis, Debye-Ang):
   XX=            -12.8937   YY=            -12.3590   ZZ=            -13.7258
   XY=             -2.1594   XZ=              0.0842   YZ=             -0.0649

 Normal termination of Gaussian 09 at Wed Aug 26 23:09:08 2020.
