 Gaussian 09, Revision D.01,
 Gaussian 09:  ES64L-G09RevD.01 24-Apr-2013

 --------------------
 #p B2PLYPD3/Def2QZVP
 --------------------

 --------
 methanol
 --------
 Symbolic Z-matrix:
 Charge =  0 Multiplicity = 1

                         Standard orientation:
 ---------------------------------------------------------------------
 Center     Atomic      Atomic             Coordinates (Angstroms)
 Number     Number       Type             X           Y           Z
 ---------------------------------------------------------------------
      1          6           0       -0.680418   -0.004309   -0.002729
      2          8           0        0.762544   -0.059590   -0.025853
      3          1           0       -0.990529    1.067018   -0.539185
      4          1           0       -1.216370   -0.057697    1.092362
      5          1           0       -1.017971   -0.873853   -0.602024
      6          1           0        1.207027    0.367105    0.272048
 ---------------------------------------------------------------------

 SCF Done:  E(RB2PLYPD3) =  -115.380109888     A.U. after   11 cycles
 E2(B2PLYPD3) =    -0.1447031446D+00 E(B2PLYPD3) =    -0.11552481303304D+03

 The electronic state is 1-A.
 Alpha  occ. eigenvalues --  -19.69325 -10.70080  -1.23370  -0.82124  -0.60953
 Alpha  occ. eigenvalues --   -0.51021  -0.49444  -0.39862  -0.35580
 Alpha virt. eigenvalues --    0.05192   0.08802   0.11371   0.12039   0.14188
 Alpha virt. eigenvalues --    0.16601   0.17942   0.28687   0.30674   0.32892
 Alpha virt. eigenvalues --    0.34604   0.36686   0.38833   0.40871   0.41975

 Mulliken charges:
               1
     1  C    0.050653
     2  O   -0.243341
     3  H    0.045199
     4  H    0.050597
     5  H    0.100318
     6  H   -0.003427
 Sum of Mulliken charges =   0.00000

 Dipole moment (field-independent basis, Debye):
    X=             -0.8377    Y=              0.8095    Z=              0.5848  Tot=              1.3034
 Quadrupole moment (field-independent basis, Debye-Ang):
   XX=            -12.5848   YY=            -13.0498   ZZ=            -13.4230
   XY=              1.7287   XZ=              0.9193   YZ=              0.4307

 Normal termination of Gaussian 09 at Wed Aug 26 22:22:36 2020.
