 Gaussian 09, Revision D.01,
 Gaussian 09:  ES64L-G09RevD.01 24-Apr-2013

 --------------------
 #p B2PLYPD3/Def2QZVP
 --------------------

 --------
 methanol
 --------
 Symbolic Z-matrix:
 Charge =  0 Multiplicity = 1

                         Standard orientation:
 ---------------------------------------------------------------------
 Center     Atomic      Atomic             Coordinates (Angstroms)
 Number     Number       Type             X           Y           Z
 ---------------------------------------------------------------------
      1          6           0       -0.661037   -0.040158   -0.007346
      2          8           0        0.750141    0.111248   -0.010531
      3          1           0       -0.971737   -0.518931    0.935002
      4          1           0       -1.022670   -0.578219   -0.879307
      5          1           0       -1.180296    1.048769    0.016973
      6          1           0        1.139802   -0.600649    0.055653
 ---------------------------------------------------------------------

 SCF Done:  E(RB2PLYPD3) =  -115.518446144     A.U. after   10 cycles
 E2(B2PLYPD3) =    -0.1452339072D+00 E(B2PLYPD3) =    -0.11566368005103D+03

 The electronic state is 1-A.
 Alpha  occ. eigenvalues --  -19.71092 -10.67238  -1.19885  -0.79674  -0.60745
 Alpha  occ. eigenvalues --   -0.52596  -0.49254  -0.40083  -0.36065
 Alpha virt. eigenvalues --    0.05350   0.08678   0.11997   0.12199   0.14497
 Alpha virt. eigenvalues --    0.17376   0.18025   0.28929   0.33036   0.33237
 Alpha virt. eigenvalues --    0.35307   0.38677   0.40095   0.40997   0.43381

 Mulliken charges:
               1
     1  C    0.063200
     2  O   -0.370920
     3  H    0.052679
     4  H    0.060257
     5  H    0.060551
     6  H    0.134234
 Sum of Mulliken charges =   0.00000

 Dipole moment (field-independent basis, Debye):
    X=             -0.8503    Y=             -1.4372    Z=              0.1282  Tot=              1.6748
 Quadrupole moment (field-independent basis, Debye-Ang):
   XX=            -12.8920   YY=            -12.6316   ZZ=            -13.6090
   XY=             -2.0834   XZ=              0.2149   YZ=             -0.0089

 Normal termination of Gaussian 09 at Wed Aug 26 14:05:47 2020.
