 Gaussian 09, Revision D.01,
 Gaussian 09:  ES64L-G09RevD.01 24-Apr-2013

 --------------------
 #p B2PLYPD3/Def2QZVP
 --------------------

 --------
 methanol
 --------
 Symbolic Z-matrix:
 Charge =  0 Multiplicity = 1

                         Standard orientation:
 ---------------------------------------------------------------------
 Center     Atomic      Atomic             Coordinates (Angstroms)
 Number     Number       Type             X           Y           Z
 ---------------------------------------------------------------------
      1          6           0        0.659862    0.013141    0.009711
      2          8           0       -0.733475   -0.188266   -0.016780
      3          1           0        1.109010    0.316864    0.894238
      4          1           0        0.980936    0.735088   -0.763882
      5          1           0        1.177263   -0.678001   -0.178717
      6          1           0       -1.358580    1.053328    0.124330
 ---------------------------------------------------------------------

 SCF Done:  E(RB2PLYPD3) =  -115.418206877     A.U. after   12 cycles
 E2(B2PLYPD3) =    -0.1553752568D+00 E(B2PLYPD3) =    -0.11557358213332D+03

 The electronic state is 1-A.
 Alpha  occ. eigenvalues --  -19.75398 -10.62370  -1.11965  -0.80810  -0.53432
 Alpha  occ. eigenvalues --   -0.51742  -0.51093  -0.38687  -0.34801
 Alpha virt. eigenvalues --   -0.01691   0.07261   0.12712   0.13301   0.14627
 Alpha virt. eigenvalues --    0.18245   0.18786   0.21990   0.29513   0.33166
 Alpha virt. eigenvalues --    0.34268   0.37938   0.40830   0.41897   0.44019

 Mulliken charges:
               1
     1  C    0.055638
     2  O   -0.483643
     3  H    0.045443
     4  H    0.031786
     5  H    0.091940
     6  H    0.258838
 Sum of Mulliken charges =   0.00000

 Dipole moment (field-independent basis, Debye):
    X=              0.7590    Y=              1.6121    Z=              0.2025  Tot=              1.7933
 Quadrupole moment (field-independent basis, Debye-Ang):
   XX=            -12.1022   YY=            -11.9925   ZZ=            -14.0528
   XY=             -3.0379   XZ=             -0.2299   YZ=              0.2021

 Normal termination of Gaussian 09 at Wed Aug 26 22:48:12 2020.
