 Gaussian 09, Revision D.01,
 Gaussian 09:  ES64L-G09RevD.01 24-Apr-2013

 --------------------
 #p B2PLYPD3/Def2QZVP
 --------------------

 --------
 methanol
 --------
 Symbolic Z-matrix:
 Charge =  0 Multiplicity = 1

                         Standard orientation:
 ---------------------------------------------------------------------
 Center     Atomic      Atomic             Coordinates (Angstroms)
 Number     Number       Type             X           Y           Z
 ---------------------------------------------------------------------
      1          6           0        0.665522   -0.000587    0.032406
      2          8           0       -0.732881   -0.182343   -0.021569
      3          1           0        1.081600    0.379177    0.824371
      4          1           0        1.048417    0.737969   -0.783701
      5          1           0        1.095571   -0.727259   -0.167531
      6          1           0       -1.355672    1.072381    0.104977
 ---------------------------------------------------------------------

 SCF Done:  E(RB2PLYPD3) =  -115.400842958     A.U. after   11 cycles
 E2(B2PLYPD3) =    -0.1556889427D+00 E(B2PLYPD3) =    -0.11555653190022D+03

 The electronic state is 1-A.
 Alpha  occ. eigenvalues --  -19.75468 -10.62197  -1.11949  -0.81002  -0.55934
 Alpha  occ. eigenvalues --   -0.50982  -0.50039  -0.39440  -0.34400
 Alpha virt. eigenvalues --   -0.01804   0.07260   0.12843   0.13114   0.14739
 Alpha virt. eigenvalues --    0.17890   0.18560   0.21929   0.29688   0.32923
 Alpha virt. eigenvalues --    0.34646   0.36535   0.40863   0.41415   0.44730

 Mulliken charges:
               1
     1  C    0.055454
     2  O   -0.483126
     3  H    0.049354
     4  H    0.018186
     5  H    0.105763
     6  H    0.254369
 Sum of Mulliken charges =   0.00000

 Dipole moment (field-independent basis, Debye):
    X=              0.7583    Y=              1.6033    Z=              0.3112  Tot=              1.8007
 Quadrupole moment (field-independent basis, Debye-Ang):
   XX=            -12.2515   YY=            -11.7683   ZZ=            -14.1549
   XY=             -2.9445   XZ=             -0.0737   YZ=              0.3567

 Normal termination of Gaussian 09 at Wed Aug 26 21:49:59 2020.
