 Gaussian 09, Revision D.01,
 Gaussian 09:  ES64L-G09RevD.01 24-Apr-2013

 --------------------
 #p B2PLYPD3/Def2QZVP
 --------------------

 --------
 methanol
 --------
 Symbolic Z-matrix:
 Charge =  0 Multiplicity = 1

                         Standard orientation:
 ---------------------------------------------------------------------
 Center     Atomic      Atomic             Coordinates (Angstroms)
 Number     Number       Type             X           Y           Z
 ---------------------------------------------------------------------
      1          6           0       -0.673318    0.007136   -0.011040
      2          8           0        0.760306   -0.144768   -0.004094
      3          1           0       -1.067912    0.597993   -0.791726
      4          1           0       -1.053929    0.474543    0.879893
      5          1           0       -1.068816   -0.901690   -0.022428
      6          1           0        1.148112    0.944485    0.033253
 ---------------------------------------------------------------------

 SCF Done:  E(RB2PLYPD3) =  -115.515103989     A.U. after   11 cycles
 E2(B2PLYPD3) =    -0.1511172515D+00 E(B2PLYPD3) =    -0.11566622124038D+03

 The electronic state is 1-A.
 Alpha  occ. eigenvalues --  -19.74240 -10.63880  -1.12652  -0.79203  -0.56474
 Alpha  occ. eigenvalues --   -0.51003  -0.49568  -0.41567  -0.35089
 Alpha virt. eigenvalues --    0.03019   0.07635   0.12537   0.12785   0.14900
 Alpha virt. eigenvalues --    0.17448   0.18301   0.27517   0.29699   0.33222
 Alpha virt. eigenvalues --    0.33668   0.38660   0.40492   0.41000   0.43648

 Mulliken charges:
               1
     1  C    0.086066
     2  O   -0.493473
     3  H    0.043327
     4  H    0.039821
     5  H    0.071111
     6  H    0.253148
 Sum of Mulliken charges =   0.00000

 Dipole moment (field-independent basis, Debye):
    X=             -1.0410    Y=              1.6339    Z=              0.0480  Tot=              1.9379
 Quadrupole moment (field-independent basis, Debye-Ang):
   XX=            -13.0571   YY=            -11.7247   ZZ=            -14.0326
   XY=              2.3719   XZ=              0.0968   YZ=             -0.0066

 Normal termination of Gaussian 09 at Wed Aug 26 15:36:42 2020.
