 Gaussian 09, Revision D.01,
 Gaussian 09:  ES64L-G09RevD.01 24-Apr-2013

 --------------------
 #p B2PLYPD3/Def2QZVP
 --------------------

 --------
 methanol
 --------
 Symbolic Z-matrix:
 Charge =  0 Multiplicity = 1

                         Standard orientation:
 ---------------------------------------------------------------------
 Center     Atomic      Atomic             Coordinates (Angstroms)
 Number     Number       Type             X           Y           Z
 ---------------------------------------------------------------------
      1          6           0        0.660429   -0.015683    0.032964
      2          8           0       -0.752370   -0.027948   -0.044654
      3          1           0        0.954574   -0.177509    1.105580
      4          1           0        1.164334    1.109159   -0.461420
      5          1           0        0.994895   -0.914715   -0.696799
      6          1           0       -1.057413    0.300747    0.212084
 ---------------------------------------------------------------------

 SCF Done:  E(RB2PLYPD3) =  -114.858377990     A.U. after   12 cycles
 E2(B2PLYPD3) =    -0.1434403727D+00 E(B2PLYPD3) =    -0.11500181836322D+03

 The electronic state is 1-A.
 Alpha  occ. eigenvalues --  -19.68698 -10.70804  -1.33082  -0.84993  -0.62440
 Alpha  occ. eigenvalues --   -0.51623  -0.50112  -0.40447  -0.36246
 Alpha virt. eigenvalues --    0.04827   0.09468   0.10971   0.11541   0.14166
 Alpha virt. eigenvalues --    0.16478   0.17677   0.27942   0.30820   0.32108
 Alpha virt. eigenvalues --    0.34108   0.35959   0.39366   0.41260   0.42374

 Mulliken charges:
               1
     1  C    0.045442
     2  O   -0.047077
     3  H    0.069608
     4  H    0.031819
     5  H    0.087186
     6  H   -0.186979
 Sum of Mulliken charges =   0.00000

 Dipole moment (field-independent basis, Debye):
    X=              0.9031    Y=              0.5983    Z=              0.7628  Tot=              1.3249
 Quadrupole moment (field-independent basis, Debye-Ang):
   XX=            -13.2578   YY=            -12.9963   ZZ=            -12.9438
   XY=             -1.3745   XZ=             -0.9728   YZ=              0.3975

 Normal termination of Gaussian 09 at Wed Aug 26 23:22:07 2020.
