 Gaussian 09, Revision D.01,
 Gaussian 09:  ES64L-G09RevD.01 24-Apr-2013

 --------------------
 #p B2PLYPD3/Def2QZVP
 --------------------

 --------
 methanol
 --------
 Symbolic Z-matrix:
 Charge =  0 Multiplicity = 1

                         Standard orientation:
 ---------------------------------------------------------------------
 Center     Atomic      Atomic             Coordinates (Angstroms)
 Number     Number       Type             X           Y           Z
 ---------------------------------------------------------------------
      1          6           0       -0.684321    0.029706   -0.001055
      2          8           0        0.750491   -0.014299    0.080781
      3          1           0       -0.947715   -0.921898   -0.764595
      4          1           0       -0.847995    1.110880   -0.416998
      5          1           0       -1.163653   -0.244710    0.962906
      6          1           0        1.061363   -0.008113   -0.421229
 ---------------------------------------------------------------------

 SCF Done:  E(RB2PLYPD3) =  -115.173665824     A.U. after   11 cycles
 E2(B2PLYPD3) =    -0.1434680200D+00 E(B2PLYPD3) =    -0.11531713384361D+03

 The electronic state is 1-A.
 Alpha  occ. eigenvalues --  -19.67903 -10.69601  -1.28508  -0.82988  -0.61079
 Alpha  occ. eigenvalues --   -0.53105  -0.50478  -0.39936  -0.35850
 Alpha virt. eigenvalues --    0.05068   0.09578   0.10924   0.12201   0.13293
 Alpha virt. eigenvalues --    0.16780   0.17474   0.28057   0.30652   0.31976
 Alpha virt. eigenvalues --    0.35233   0.37712   0.38115   0.41672   0.44094

 Mulliken charges:
               1
     1  C    0.062793
     2  O   -0.167223
     3  H    0.032113
     4  H    0.064709
     5  H    0.096968
     6  H   -0.089359
 Sum of Mulliken charges =   0.00000

 Dipole moment (field-independent basis, Debye):
    X=             -1.0745    Y=              0.0722    Z=             -0.9926  Tot=              1.4646
 Quadrupole moment (field-independent basis, Debye-Ang):
   XX=            -13.3289   YY=            -13.1336   ZZ=            -12.7526
   XY=              0.1996   XZ=             -2.1797   YZ=             -0.2061

 Normal termination of Gaussian 09 at Wed Aug 26 23:39:34 2020.
