 Gaussian 09, Revision D.01,
 Gaussian 09:  ES64L-G09RevD.01 24-Apr-2013

 --------------------
 #p B2PLYPD3/Def2QZVP
 --------------------

 --------
 methanol
 --------
 Symbolic Z-matrix:
 Charge =  0 Multiplicity = 1

                         Standard orientation:
 ---------------------------------------------------------------------
 Center     Atomic      Atomic             Coordinates (Angstroms)
 Number     Number       Type             X           Y           Z
 ---------------------------------------------------------------------
      1          6           0        0.678915    0.024782    0.010135
      2          8           0       -0.760769   -0.190602   -0.027673
      3          1           0        0.979809    0.301122    0.846431
      4          1           0        1.142317    0.718392   -0.687218
      5          1           0        1.184584   -0.772677   -0.101779
      6          1           0       -1.294046    1.129289    0.103134
 ---------------------------------------------------------------------

 SCF Done:  E(RB2PLYPD3) =  -115.415907195     A.U. after   11 cycles
 E2(B2PLYPD3) =    -0.1569052805D+00 E(B2PLYPD3) =    -0.11557281247567D+03

 The electronic state is 1-A.
 Alpha  occ. eigenvalues --  -19.75808 -10.62048  -1.10409  -0.81394  -0.53664
 Alpha  occ. eigenvalues --   -0.51600  -0.49354  -0.39396  -0.35480
 Alpha virt. eigenvalues --   -0.02005   0.07143   0.12628   0.13122   0.14455
 Alpha virt. eigenvalues --    0.17932   0.18797   0.21796   0.29390   0.32547
 Alpha virt. eigenvalues --    0.34011   0.38102   0.40470   0.41782   0.43826

 Mulliken charges:
               1
     1  C    0.092353
     2  O   -0.490263
     3  H    0.057398
     4  H    0.038114
     5  H    0.058938
     6  H    0.243460
 Sum of Mulliken charges =   0.00000

 Dipole moment (field-independent basis, Debye):
    X=              1.0850    Y=              1.7072    Z=              0.3037  Tot=              2.0455
 Quadrupole moment (field-independent basis, Debye-Ang):
   XX=            -12.4718   YY=            -11.6058   ZZ=            -14.1013
   XY=             -2.7262   XZ=             -0.1915   YZ=              0.1610

 Normal termination of Gaussian 09 at Wed Aug 26 20:12:04 2020.
