 Gaussian 09, Revision D.01,
 Gaussian 09:  ES64L-G09RevD.01 24-Apr-2013

 --------------------
 #p B2PLYPD3/Def2QZVP
 --------------------

 --------
 methanol
 --------
 Symbolic Z-matrix:
 Charge =  0 Multiplicity = 1

                         Standard orientation:
 ---------------------------------------------------------------------
 Center     Atomic      Atomic             Coordinates (Angstroms)
 Number     Number       Type             X           Y           Z
 ---------------------------------------------------------------------
      1          6           0       -0.650918    0.023295   -0.022738
      2          8           0        0.738157   -0.158267    0.016389
      3          1           0       -0.978067    0.465941   -0.817498
      4          1           0       -1.053734    0.592534    0.831858
      5          1           0       -1.124312   -0.888848    0.043028
      6          1           0        1.156368    0.956734   -0.052077
 ---------------------------------------------------------------------

 SCF Done:  E(RB2PLYPD3) =  -115.501410413     A.U. after   11 cycles
 E2(B2PLYPD3) =    -0.1510813658D+00 E(B2PLYPD3) =    -0.11565249177919D+03

 The electronic state is 1-A.
 Alpha  occ. eigenvalues --  -19.74404 -10.63180  -1.13708  -0.79122  -0.56689
 Alpha  occ. eigenvalues --   -0.52143  -0.50007  -0.40586  -0.35028
 Alpha virt. eigenvalues --    0.02377   0.07677   0.12733   0.12765   0.14940
 Alpha virt. eigenvalues --    0.17832   0.18337   0.26383   0.29557   0.33298
 Alpha virt. eigenvalues --    0.34860   0.38910   0.40214   0.41768   0.44585

 Mulliken charges:
               1
     1  C    0.089457
     2  O   -0.482603
     3  H    0.045078
     4  H    0.032740
     5  H    0.060072
     6  H    0.255256
 Sum of Mulliken charges =   0.00000

 Dipole moment (field-independent basis, Debye):
    X=             -0.9043    Y=              1.6715    Z=             -0.2168  Tot=              1.9128
 Quadrupole moment (field-independent basis, Debye-Ang):
   XX=            -13.0243   YY=            -11.8282   ZZ=            -13.9368
   XY=              2.4548   XZ=             -0.0549   YZ=             -0.1911

 Normal termination of Gaussian 09 at Wed Aug 26 13:06:49 2020.
