 Gaussian 09, Revision D.01,
 Gaussian 09:  ES64L-G09RevD.01 24-Apr-2013

 --------------------
 #p B2PLYPD3/Def2QZVP
 --------------------

 --------
 methanol
 --------
 Symbolic Z-matrix:
 Charge =  0 Multiplicity = 1

                         Standard orientation:
 ---------------------------------------------------------------------
 Center     Atomic      Atomic             Coordinates (Angstroms)
 Number     Number       Type             X           Y           Z
 ---------------------------------------------------------------------
      1          6           0       -0.647252    0.023491    0.000870
      2          8           0        0.741421   -0.156704   -0.013380
      3          1           0       -1.078095    0.593027   -0.775133
      4          1           0       -1.001016    0.458678    0.825921
      5          1           0       -1.097827   -0.920706   -0.007282
      6          1           0        1.129078    0.981686    0.058310
 ---------------------------------------------------------------------

 SCF Done:  E(RB2PLYPD3) =  -115.502534609     A.U. after   11 cycles
 E2(B2PLYPD3) =    -0.1514826269D+00 E(B2PLYPD3) =    -0.11565401723557D+03

 The electronic state is 1-A.
 Alpha  occ. eigenvalues --  -19.74650 -10.63158  -1.13762  -0.79044  -0.56596
 Alpha  occ. eigenvalues --   -0.52136  -0.49677  -0.40712  -0.35156
 Alpha virt. eigenvalues --    0.02165   0.07655   0.12541   0.12940   0.15113
 Alpha virt. eigenvalues --    0.17651   0.18380   0.26009   0.29610   0.33584
 Alpha virt. eigenvalues --    0.35082   0.38884   0.39715   0.42179   0.44277

 Mulliken charges:
               1
     1  C    0.090404
     2  O   -0.477739
     3  H    0.036921
     4  H    0.039832
     5  H    0.057618
     6  H    0.252964
 Sum of Mulliken charges =   0.00000

 Dipole moment (field-independent basis, Debye):
    X=             -0.9518    Y=              1.7164    Z=              0.1750  Tot=              1.9705
 Quadrupole moment (field-independent basis, Debye-Ang):
   XX=            -13.1404   YY=            -11.6794   ZZ=            -14.0340
   XY=              2.2946   XZ=              0.1001   YZ=              0.0860

 Normal termination of Gaussian 09 at Wed Aug 26 11:03:18 2020.
