 Gaussian 09, Revision D.01,
 Gaussian 09:  ES64L-G09RevD.01 24-Apr-2013

 --------------------
 #p B2PLYPD3/Def2QZVP
 --------------------

 --------
 methanol
 --------
 Symbolic Z-matrix:
 Charge =  0 Multiplicity = 1

                         Standard orientation:
 ---------------------------------------------------------------------
 Center     Atomic      Atomic             Coordinates (Angstroms)
 Number     Number       Type             X           Y           Z
 ---------------------------------------------------------------------
      1          6           0        0.670313   -0.023260    0.002490
      2          8           0       -0.767325    0.077666    0.003617
      3          1           0        1.049564   -0.604627   -0.907526
      4          1           0        1.090478   -0.480827    0.955976
      5          1           0        1.030022    1.135243   -0.084011
      6          1           0       -1.053345   -0.531554   -0.008312
 ---------------------------------------------------------------------

 SCF Done:  E(RB2PLYPD3) =  -115.378307568     A.U. after   11 cycles
 E2(B2PLYPD3) =    -0.1441494648D+00 E(B2PLYPD3) =    -0.11552245703245D+03

 The electronic state is 1-A.
 Alpha  occ. eigenvalues --  -19.69687 -10.68766  -1.25270  -0.80813  -0.61881
 Alpha  occ. eigenvalues --   -0.51501  -0.49002  -0.41336  -0.36634
 Alpha virt. eigenvalues --    0.05258   0.09104   0.11444   0.11921   0.14691
 Alpha virt. eigenvalues --    0.16790   0.17882   0.28606   0.31522   0.33318
 Alpha virt. eigenvalues --    0.35470   0.38071   0.39108   0.40745   0.42157

 Mulliken charges:
               1
     1  C    0.046218
     2  O   -0.231639
     3  H    0.056312
     4  H    0.061195
     5  H    0.070723
     6  H   -0.002809
 Sum of Mulliken charges =   0.00000

 Dipole moment (field-independent basis, Debye):
    X=              1.0447    Y=             -1.2848    Z=             -0.0237  Tot=              1.6561
 Quadrupole moment (field-independent basis, Debye-Ang):
   XX=            -13.2649   YY=            -12.4398   ZZ=            -13.5494
   XY=              1.7094   XZ=              0.0664   YZ=              0.0015

 Normal termination of Gaussian 09 at Wed Aug 26 10:51:49 2020.
