 Gaussian 09, Revision D.01,
 Gaussian 09:  ES64L-G09RevD.01 24-Apr-2013

 --------------------
 #p B2PLYPD3/Def2QZVP
 --------------------

 --------
 methanol
 --------
 Symbolic Z-matrix:
 Charge =  0 Multiplicity = 1

                         Standard orientation:
 ---------------------------------------------------------------------
 Center     Atomic      Atomic             Coordinates (Angstroms)
 Number     Number       Type             X           Y           Z
 ---------------------------------------------------------------------
      1          6           0       -0.669087   -0.034671   -0.003826
      2          8           0        0.729204    0.109699    0.013346
      3          1           0       -1.084281   -0.500418    0.909021
      4          1           0       -0.880048   -0.650818   -0.869977
      5          1           0       -1.106166    1.059248   -0.118996
      6          1           0        1.251392   -0.577576   -0.003863
 ---------------------------------------------------------------------

 SCF Done:  E(RB2PLYPD3) =  -115.533157178     A.U. after   11 cycles
 E2(B2PLYPD3) =    -0.1456391178D+00 E(B2PLYPD3) =    -0.11567879629598D+03

 The electronic state is 1-A.
 Alpha  occ. eigenvalues --  -19.70907 -10.66947  -1.17997  -0.79651  -0.60231
 Alpha  occ. eigenvalues --   -0.52323  -0.49499  -0.39242  -0.35239
 Alpha virt. eigenvalues --    0.05345   0.08450   0.11994   0.12448   0.14754
 Alpha virt. eigenvalues --    0.16905   0.17771   0.29237   0.32555   0.33694
 Alpha virt. eigenvalues --    0.36356   0.38836   0.39678   0.40377   0.43515

 Mulliken charges:
               1
     1  C    0.067882
     2  O   -0.420873
     3  H    0.054670
     4  H    0.050722
     5  H    0.070075
     6  H    0.177523
 Sum of Mulliken charges =   0.00000

 Dipole moment (field-independent basis, Debye):
    X=             -0.6091    Y=             -1.3960    Z=             -0.0608  Tot=              1.5243
 Quadrupole moment (field-independent basis, Debye-Ang):
   XX=            -12.4901   YY=            -12.6104   ZZ=            -13.7436
   XY=             -2.1722   XZ=             -0.1906   YZ=              0.0145

 Normal termination of Gaussian 09 at Wed Aug 26 18:45:15 2020.
