 Gaussian 09, Revision D.01,
 Gaussian 09:  ES64L-G09RevD.01 24-Apr-2013

 --------------------
 #p B2PLYPD3/Def2QZVP
 --------------------

 --------
 methanol
 --------
 Symbolic Z-matrix:
 Charge =  0 Multiplicity = 1

                         Standard orientation:
 ---------------------------------------------------------------------
 Center     Atomic      Atomic             Coordinates (Angstroms)
 Number     Number       Type             X           Y           Z
 ---------------------------------------------------------------------
      1          6           0        0.673911    0.002072    0.022300
      2          8           0       -0.769963   -0.151006   -0.011437
      3          1           0        1.180004    0.348166    0.842780
      4          1           0        0.970006    0.722181   -0.819145
      5          1           0        1.116637   -0.840645   -0.192490
      6          1           0       -1.150403    0.965916    0.126548
 ---------------------------------------------------------------------

 SCF Done:  E(RB2PLYPD3) =  -115.496563115     A.U. after   11 cycles
 E2(B2PLYPD3) =    -0.1522833203D+00 E(B2PLYPD3) =    -0.11564884643485D+03

 The electronic state is 1-A.
 Alpha  occ. eigenvalues --  -19.74775 -10.64250  -1.12165  -0.79516  -0.55607
 Alpha  occ. eigenvalues --   -0.50847  -0.49571  -0.41194  -0.35065
 Alpha virt. eigenvalues --    0.02443   0.07393   0.12407   0.12767   0.14595
 Alpha virt. eigenvalues --    0.17769   0.18590   0.26353   0.29411   0.31705
 Alpha virt. eigenvalues --    0.34305   0.37180   0.40190   0.41567   0.43725

 Mulliken charges:
               1
     1  C    0.081540
     2  O   -0.486519
     3  H    0.049653
     4  H    0.027776
     5  H    0.069259
     6  H    0.258291
 Sum of Mulliken charges =   0.00000

 Dipole moment (field-independent basis, Debye):
    X=              1.0518    Y=              1.5871    Z=              0.2759  Tot=              1.9238
 Quadrupole moment (field-independent basis, Debye-Ang):
   XX=            -12.9824   YY=            -11.8821   ZZ=            -14.0546
   XY=             -2.5300   XZ=             -0.0409   YZ=              0.3005

 Normal termination of Gaussian 09 at Wed Aug 26 20:16:44 2020.
