 Gaussian 09, Revision D.01,
 Gaussian 09:  ES64L-G09RevD.01 24-Apr-2013

 --------------------
 #p B2PLYPD3/Def2QZVP
 --------------------

 --------
 methanol
 --------
 Symbolic Z-matrix:
 Charge =  0 Multiplicity = 1

                         Standard orientation:
 ---------------------------------------------------------------------
 Center     Atomic      Atomic             Coordinates (Angstroms)
 Number     Number       Type             X           Y           Z
 ---------------------------------------------------------------------
      1          6           0        0.672873    0.028205    0.004992
      2          8           0       -0.746444   -0.143022   -0.011538
      3          1           0        1.007835    0.412654    0.880561
      4          1           0        1.034733    0.645401   -0.789113
      5          1           0        1.073334   -0.953396   -0.086201
      6          1           0       -1.181587    0.870292    0.057105
 ---------------------------------------------------------------------

 SCF Done:  E(RB2PLYPD3) =  -115.530579153     A.U. after   11 cycles
 E2(B2PLYPD3) =    -0.1497325006D+00 E(B2PLYPD3) =    -0.11568031165346D+03

 The electronic state is 1-A.
 Alpha  occ. eigenvalues --  -19.73553 -10.64041  -1.13422  -0.78849  -0.56956
 Alpha  occ. eigenvalues --   -0.52312  -0.49097  -0.40936  -0.35273
 Alpha virt. eigenvalues --    0.03768   0.07842   0.12432   0.12729   0.14973
 Alpha virt. eigenvalues --    0.17228   0.18226   0.28813   0.30240   0.33597
 Alpha virt. eigenvalues --    0.33747   0.38995   0.39612   0.42122   0.44392

 Mulliken charges:
               1
     1  C    0.082709
     2  O   -0.492339
     3  H    0.050686
     4  H    0.044525
     5  H    0.066168
     6  H    0.248252
 Sum of Mulliken charges =   0.00000

 Dipole moment (field-independent basis, Debye):
    X=              0.9332    Y=              1.6349    Z=              0.1585  Tot=              1.8891
 Quadrupole moment (field-independent basis, Debye-Ang):
   XX=            -12.9437   YY=            -11.9423   ZZ=            -13.8621
   XY=             -2.3455   XZ=             -0.1137   YZ=              0.0878

 Normal termination of Gaussian 09 at Thu Aug 27 00:13:00 2020.
