 Gaussian 09, Revision D.01,
 Gaussian 09:  ES64L-G09RevD.01 24-Apr-2013

 --------------------
 #p B2PLYPD3/Def2QZVP
 --------------------

 --------
 methanol
 --------
 Symbolic Z-matrix:
 Charge =  0 Multiplicity = 1

                         Standard orientation:
 ---------------------------------------------------------------------
 Center     Atomic      Atomic             Coordinates (Angstroms)
 Number     Number       Type             X           Y           Z
 ---------------------------------------------------------------------
      1          6           0       -0.680823   -0.014441    0.021597
      2          8           0        0.769419    0.096232   -0.021130
      3          1           0       -0.978609   -0.416803    0.984418
      4          1           0       -1.115305   -0.706366   -0.855946
      5          1           0       -1.149611    1.017406   -0.142687
      6          1           0        1.173114   -0.577448    0.053674
 ---------------------------------------------------------------------

 SCF Done:  E(RB2PLYPD3) =  -115.502186199     A.U. after   11 cycles
 E2(B2PLYPD3) =    -0.1454425534D+00 E(B2PLYPD3) =    -0.11564762875250D+03

 The electronic state is 1-A.
 Alpha  occ. eigenvalues --  -19.70743 -10.68146  -1.19543  -0.79992  -0.60321
 Alpha  occ. eigenvalues --   -0.51267  -0.49384  -0.40579  -0.35901
 Alpha virt. eigenvalues --    0.05385   0.08537   0.11862   0.12163   0.14395
 Alpha virt. eigenvalues --    0.17219   0.17919   0.28891   0.31350   0.32909
 Alpha virt. eigenvalues --    0.36188   0.37664   0.39578   0.40513   0.42686

 Mulliken charges:
               1
     1  C    0.064975
     2  O   -0.360678
     3  H    0.063713
     4  H    0.042760
     5  H    0.079958
     6  H    0.109271
 Sum of Mulliken charges =   0.00000

 Dipole moment (field-independent basis, Debye):
    X=             -0.9626    Y=             -1.2739    Z=              0.2486  Tot=              1.6159
 Quadrupole moment (field-independent basis, Debye-Ang):
   XX=            -12.7204   YY=            -12.6539   ZZ=            -13.6700
   XY=             -2.1650   XZ=              0.2417   YZ=             -0.1931

 Normal termination of Gaussian 09 at Wed Aug 26 18:49:57 2020.
