 Gaussian 09, Revision D.01,
 Gaussian 09:  ES64L-G09RevD.01 24-Apr-2013

 --------------------
 #p B2PLYPD3/Def2QZVP
 --------------------

 --------
 methanol
 --------
 Symbolic Z-matrix:
 Charge =  0 Multiplicity = 1

                         Standard orientation:
 ---------------------------------------------------------------------
 Center     Atomic      Atomic             Coordinates (Angstroms)
 Number     Number       Type             X           Y           Z
 ---------------------------------------------------------------------
      1          6           0       -0.687335   -0.029964    0.017930
      2          8           0        0.744899    0.135022   -0.015617
      3          1           0       -0.933325   -0.425340    0.876033
      4          1           0       -0.948548   -0.693797   -0.814678
      5          1           0       -1.100099    0.994323   -0.116753
      6          1           0        1.146788   -0.775573    0.072754
 ---------------------------------------------------------------------

 SCF Done:  E(RB2PLYPD3) =  -115.538974775     A.U. after   11 cycles
 E2(B2PLYPD3) =    -0.1479359811D+00 E(B2PLYPD3) =    -0.11568691075652D+03

 The electronic state is 1-A.
 Alpha  occ. eigenvalues --  -19.72250 -10.64717  -1.14510  -0.79091  -0.58012
 Alpha  occ. eigenvalues --   -0.52977  -0.48892  -0.41042  -0.35208
 Alpha virt. eigenvalues --    0.04706   0.08283   0.12145   0.12439   0.14755
 Alpha virt. eigenvalues --    0.17210   0.17611   0.29290   0.32406   0.33060
 Alpha virt. eigenvalues --    0.34232   0.38389   0.39552   0.42165   0.45093

 Mulliken charges:
               1
     1  C    0.085045
     2  O   -0.487281
     3  H    0.056692
     4  H    0.045628
     5  H    0.070542
     6  H    0.229374
 Sum of Mulliken charges =   0.00000

 Dipole moment (field-independent basis, Debye):
    X=             -0.9836    Y=             -1.5861    Z=              0.2355  Tot=              1.8811
 Quadrupole moment (field-independent basis, Debye-Ang):
   XX=            -13.1726   YY=            -12.0110   ZZ=            -13.6876
   XY=             -2.3037   XZ=              0.1195   YZ=             -0.1725

 Normal termination of Gaussian 09 at Wed Aug 26 18:36:50 2020.
