 Gaussian 09, Revision D.01,
 Gaussian 09:  ES64L-G09RevD.01 24-Apr-2013

 --------------------
 #p B2PLYPD3/Def2QZVP
 --------------------

 --------
 methanol
 --------
 Symbolic Z-matrix:
 Charge =  0 Multiplicity = 1

                         Standard orientation:
 ---------------------------------------------------------------------
 Center     Atomic      Atomic             Coordinates (Angstroms)
 Number     Number       Type             X           Y           Z
 ---------------------------------------------------------------------
      1          6           0        0.668521    0.018908    0.001027
      2          8           0       -0.741585   -0.145273    0.000297
      3          1           0        1.060638    0.490217    0.879035
      4          1           0        1.000432    0.584104   -0.850704
      5          1           0        1.087771   -0.895614   -0.055670
      6          1           0       -1.227289    0.870029    0.018795
 ---------------------------------------------------------------------

 SCF Done:  E(RB2PLYPD3) =  -115.526439166     A.U. after   11 cycles
 E2(B2PLYPD3) =    -0.1499114405D+00 E(B2PLYPD3) =    -0.11567635060683D+03

 The electronic state is 1-A.
 Alpha  occ. eigenvalues --  -19.73671 -10.64051  -1.13390  -0.78789  -0.56550
 Alpha  occ. eigenvalues --   -0.51623  -0.50288  -0.40569  -0.34969
 Alpha virt. eigenvalues --    0.03472   0.07732   0.12610   0.12826   0.14874
 Alpha virt. eigenvalues --    0.17370   0.18316   0.28496   0.29785   0.33374
 Alpha virt. eigenvalues --    0.34088   0.38941   0.40719   0.41494   0.43488

 Mulliken charges:
               1
     1  C    0.079021
     2  O   -0.493729
     3  H    0.045641
     4  H    0.042793
     5  H    0.071219
     6  H    0.255055
 Sum of Mulliken charges =   0.00000

 Dipole moment (field-independent basis, Debye):
    X=              0.8291    Y=              1.5830    Z=              0.0230  Tot=              1.7871
 Quadrupole moment (field-independent basis, Debye-Ang):
   XX=            -12.6889   YY=            -12.0657   ZZ=            -13.9000
   XY=             -2.5485   XZ=             -0.0062   YZ=              0.0341

 Normal termination of Gaussian 09 at Thu Aug 27 00:10:13 2020.
