 Gaussian 09, Revision D.01,
 Gaussian 09:  ES64L-G09RevD.01 24-Apr-2013

 --------------------
 #p B2PLYPD3/Def2QZVP
 --------------------

 --------
 methanol
 --------
 Symbolic Z-matrix:
 Charge =  0 Multiplicity = 1

                         Standard orientation:
 ---------------------------------------------------------------------
 Center     Atomic      Atomic             Coordinates (Angstroms)
 Number     Number       Type             X           Y           Z
 ---------------------------------------------------------------------
      1          6           0        0.671542   -0.016944    0.011779
      2          8           0       -0.762597    0.091255   -0.010559
      3          1           0        1.104467   -0.687299   -0.853224
      4          1           0        1.026011   -0.429387    0.980407
      5          1           0        1.099999    1.058272   -0.135830
      6          1           0       -1.158950   -0.569959    0.022449
 ---------------------------------------------------------------------

 SCF Done:  E(RB2PLYPD3) =  -115.492466263     A.U. after   10 cycles
 E2(B2PLYPD3) =    -0.1450964949D+00 E(B2PLYPD3) =    -0.11563756275812D+03

 The electronic state is 1-A.
 Alpha  occ. eigenvalues --  -19.70677 -10.68265  -1.20656  -0.80128  -0.60887
 Alpha  occ. eigenvalues --   -0.51030  -0.49480  -0.40607  -0.35976
 Alpha virt. eigenvalues --    0.05375   0.08696   0.11837   0.12111   0.14639
 Alpha virt. eigenvalues --    0.17005   0.17941   0.28925   0.32129   0.33143
 Alpha virt. eigenvalues --    0.36330   0.37893   0.39618   0.40080   0.42075

 Mulliken charges:
               1
     1  C    0.058178
     2  O   -0.331287
     3  H    0.045606
     4  H    0.060486
     5  H    0.076496
     6  H    0.090521
 Sum of Mulliken charges =   0.00000

 Dipole moment (field-independent basis, Debye):
    X=              0.8934    Y=             -1.2896    Z=              0.1239  Tot=              1.5737
 Quadrupole moment (field-independent basis, Debye-Ang):
   XX=            -12.7950   YY=            -12.5913   ZZ=            -13.7196
   XY=              2.0337   XZ=             -0.1102   YZ=             -0.1038

 Normal termination of Gaussian 09 at Wed Aug 26 12:42:37 2020.
