 Gaussian 09, Revision D.01,
 Gaussian 09:  ES64L-G09RevD.01 24-Apr-2013

 --------------------
 #p B2PLYPD3/Def2QZVP
 --------------------

 --------
 methanol
 --------
 Symbolic Z-matrix:
 Charge =  0 Multiplicity = 1

                         Standard orientation:
 ---------------------------------------------------------------------
 Center     Atomic      Atomic             Coordinates (Angstroms)
 Number     Number       Type             X           Y           Z
 ---------------------------------------------------------------------
      1          6           0        0.692416   -0.003507   -0.009926
      2          8           0       -0.758760    0.076775    0.000571
      3          1           0        1.005515   -0.603062   -0.942012
      4          1           0        1.014780   -0.554205    0.998197
      5          1           0        1.030543    1.057250   -0.010343
      6          1           0       -1.135252   -0.493143    0.009146
 ---------------------------------------------------------------------

 SCF Done:  E(RB2PLYPD3) =  -115.393755505     A.U. after   11 cycles
 E2(B2PLYPD3) =    -0.1440125980D+00 E(B2PLYPD3) =    -0.11553776810347D+03

 The electronic state is 1-A.
 Alpha  occ. eigenvalues --  -19.68820 -10.68744  -1.23363  -0.81700  -0.60628
 Alpha  occ. eigenvalues --   -0.51129  -0.50464  -0.40631  -0.35800
 Alpha virt. eigenvalues --    0.05339   0.09234   0.11575   0.12029   0.14134
 Alpha virt. eigenvalues --    0.16631   0.17499   0.28819   0.30980   0.32753
 Alpha virt. eigenvalues --    0.36596   0.38408   0.38956   0.40693   0.42310

 Mulliken charges:
               1
     1  C    0.061836
     2  O   -0.258595
     3  H    0.057649
     4  H    0.048799
     5  H    0.094594
     6  H   -0.004283
 Sum of Mulliken charges =   0.00000

 Dipole moment (field-independent basis, Debye):
    X=              1.0156    Y=             -1.1412    Z=             -0.0241  Tot=              1.5279
 Quadrupole moment (field-independent basis, Debye-Ang):
   XX=            -13.0490   YY=            -12.4626   ZZ=            -13.4765
   XY=              1.9874   XZ=             -0.0730   YZ=              0.0513

 Normal termination of Gaussian 09 at Wed Aug 26 16:25:18 2020.
