 Gaussian 09, Revision D.01,
 Gaussian 09:  ES64L-G09RevD.01 24-Apr-2013

 --------------------
 #p B2PLYPD3/Def2QZVP
 --------------------

 --------
 methanol
 --------
 Symbolic Z-matrix:
 Charge =  0 Multiplicity = 1

                         Standard orientation:
 ---------------------------------------------------------------------
 Center     Atomic      Atomic             Coordinates (Angstroms)
 Number     Number       Type             X           Y           Z
 ---------------------------------------------------------------------
      1          6           0       -0.667412   -0.011706    0.016285
      2          8           0        0.763405    0.092611   -0.022397
      3          1           0       -1.096923   -0.354888    0.943987
      4          1           0       -1.051341   -0.768726   -0.828438
      5          1           0       -1.077016    1.054049   -0.184023
      6          1           0        1.122513   -0.601084    0.149939
 ---------------------------------------------------------------------

 SCF Done:  E(RB2PLYPD3) =  -115.509240519     A.U. after   10 cycles
 E2(B2PLYPD3) =    -0.1455243801D+00 E(B2PLYPD3) =    -0.11565476489942D+03

 The electronic state is 1-A.
 Alpha  occ. eigenvalues --  -19.71268 -10.67868  -1.20117  -0.79655  -0.61008
 Alpha  occ. eigenvalues --   -0.50690  -0.49448  -0.41375  -0.35774
 Alpha virt. eigenvalues --    0.05298   0.08618   0.11834   0.12093   0.14872
 Alpha virt. eigenvalues --    0.17045   0.17977   0.28942   0.32028   0.33401
 Alpha virt. eigenvalues --    0.36642   0.37415   0.39583   0.40764   0.41835

 Mulliken charges:
               1
     1  C    0.057418
     2  O   -0.352781
     3  H    0.060255
     4  H    0.040240
     5  H    0.073961
     6  H    0.120907
 Sum of Mulliken charges =   0.00000

 Dipole moment (field-independent basis, Debye):
    X=             -0.9083    Y=             -1.2876    Z=              0.4470  Tot=              1.6379
 Quadrupole moment (field-independent basis, Debye-Ang):
   XX=            -12.9905   YY=            -12.4906   ZZ=            -13.7641
   XY=             -1.9961   XZ=              0.2705   YZ=             -0.2927

 Normal termination of Gaussian 09 at Wed Aug 26 15:15:28 2020.
