 Gaussian 09, Revision D.01,
 Gaussian 09:  ES64L-G09RevD.01 24-Apr-2013

 --------------------
 #p B2PLYPD3/Def2QZVP
 --------------------

 --------
 methanol
 --------
 Symbolic Z-matrix:
 Charge =  0 Multiplicity = 1

                         Standard orientation:
 ---------------------------------------------------------------------
 Center     Atomic      Atomic             Coordinates (Angstroms)
 Number     Number       Type             X           Y           Z
 ---------------------------------------------------------------------
      1          6           0       -0.677969    0.009751   -0.006501
      2          8           0        0.757212   -0.133945   -0.004150
      3          1           0       -1.071606    0.559342   -0.844932
      4          1           0       -1.020857    0.491456    0.912680
      5          1           0       -1.046098   -0.909212   -0.009048
      6          1           0        1.148679    0.871468    0.013507
 ---------------------------------------------------------------------

 SCF Done:  E(RB2PLYPD3) =  -115.532501616     A.U. after   11 cycles
 E2(B2PLYPD3) =    -0.1495559996D+00 E(B2PLYPD3) =    -0.11568205761598D+03

 The electronic state is 1-A.
 Alpha  occ. eigenvalues --  -19.73495 -10.64361  -1.13449  -0.79112  -0.56876
 Alpha  occ. eigenvalues --   -0.51331  -0.49936  -0.41496  -0.35185
 Alpha virt. eigenvalues --    0.04037   0.07851   0.12397   0.12763   0.14784
 Alpha virt. eigenvalues --    0.17267   0.18305   0.28895   0.30962   0.32993
 Alpha virt. eigenvalues --    0.33647   0.38550   0.40746   0.41032   0.43685

 Mulliken charges:
               1
     1  C    0.076586
     2  O   -0.490640
     3  H    0.047427
     4  H    0.044417
     5  H    0.074666
     6  H    0.247544
 Sum of Mulliken charges =   0.00000

 Dipole moment (field-independent basis, Debye):
    X=             -1.0067    Y=              1.5516    Z=              0.0185  Tot=              1.8496
 Quadrupole moment (field-independent basis, Debye-Ang):
   XX=            -13.0557   YY=            -11.9483   ZZ=            -13.8414
   XY=              2.3783   XZ=              0.0978   YZ=             -0.0184

 Normal termination of Gaussian 09 at Wed Aug 26 11:14:10 2020.
