 Gaussian 09, Revision D.01,
 Gaussian 09:  ES64L-G09RevD.01 24-Apr-2013

 --------------------
 #p B2PLYPD3/Def2QZVP
 --------------------

 --------
 methanol
 --------
 Symbolic Z-matrix:
 Charge =  0 Multiplicity = 1

                         Standard orientation:
 ---------------------------------------------------------------------
 Center     Atomic      Atomic             Coordinates (Angstroms)
 Number     Number       Type             X           Y           Z
 ---------------------------------------------------------------------
      1          6           0        0.660658    0.024872   -0.014633
      2          8           0       -0.726468   -0.170449   -0.000115
      3          1           0        0.933263    0.513734    0.882955
      4          1           0        1.034542    0.551075   -0.772006
      5          1           0        1.094544   -0.847570    0.002158
      6          1           0       -1.214554    0.997116   -0.024385
 ---------------------------------------------------------------------

 SCF Done:  E(RB2PLYPD3) =  -115.481408197     A.U. after   11 cycles
 E2(B2PLYPD3) =    -0.1521957101D+00 E(B2PLYPD3) =    -0.11563360390685D+03

 The electronic state is 1-A.
 Alpha  occ. eigenvalues --  -19.74386 -10.62289  -1.12967  -0.79316  -0.56127
 Alpha  occ. eigenvalues --   -0.52574  -0.50019  -0.40203  -0.34704
 Alpha virt. eigenvalues --    0.01212   0.07719   0.12680   0.12989   0.14805
 Alpha virt. eigenvalues --    0.17619   0.18294   0.24775   0.29612   0.33104
 Alpha virt. eigenvalues --    0.35099   0.39086   0.40750   0.42541   0.44610

 Mulliken charges:
               1
     1  C    0.093541
     2  O   -0.487596
     3  H    0.039131
     4  H    0.040018
     5  H    0.063403
     6  H    0.251502
 Sum of Mulliken charges =   0.00000

 Dipole moment (field-independent basis, Debye):
    X=              0.8977    Y=              1.6805    Z=             -0.0776  Tot=              1.9068
 Quadrupole moment (field-independent basis, Debye-Ang):
   XX=            -12.8895   YY=            -11.7144   ZZ=            -13.8985
   XY=             -2.5804   XZ=             -0.1004   YZ=             -0.1066

 Normal termination of Gaussian 09 at Wed Aug 26 12:23:04 2020.
