 Gaussian 09, Revision D.01,
 Gaussian 09:  ES64L-G09RevD.01 24-Apr-2013

 --------------------
 #p B2PLYPD3/Def2QZVP
 --------------------

 --------
 methanol
 --------
 Symbolic Z-matrix:
 Charge =  0 Multiplicity = 1

                         Standard orientation:
 ---------------------------------------------------------------------
 Center     Atomic      Atomic             Coordinates (Angstroms)
 Number     Number       Type             X           Y           Z
 ---------------------------------------------------------------------
      1          6           0       -0.654266   -0.019429   -0.001718
      2          8           0        0.742862    0.117558   -0.005276
      3          1           0       -1.038539   -0.490914    0.909230
      4          1           0       -0.987102   -0.621687   -0.864828
      5          1           0       -1.112647    0.994811   -0.047507
      6          1           0        1.120989   -0.706103    0.055624
 ---------------------------------------------------------------------

 SCF Done:  E(RB2PLYPD3) =  -115.550386384     A.U. after   10 cycles
 E2(B2PLYPD3) =    -0.1462586939D+00 E(B2PLYPD3) =    -0.11569664507757D+03

 The electronic state is 1-A.
 Alpha  occ. eigenvalues --  -19.72154 -10.66015  -1.17873  -0.78856  -0.59798
 Alpha  occ. eigenvalues --   -0.51937  -0.50135  -0.40969  -0.35378
 Alpha virt. eigenvalues --    0.05151   0.08458   0.12336   0.12392   0.14872
 Alpha virt. eigenvalues --    0.17410   0.17971   0.29105   0.33082   0.34074
 Alpha virt. eigenvalues --    0.36292   0.38711   0.39897   0.40752   0.43744

 Mulliken charges:
               1
     1  C    0.068319
     2  O   -0.430955
     3  H    0.044914
     4  H    0.044937
     5  H    0.069236
     6  H    0.203550
 Sum of Mulliken charges =   0.00000

 Dipole moment (field-independent basis, Debye):
    X=             -0.8253    Y=             -1.4651    Z=              0.1199  Tot=              1.6858
 Quadrupole moment (field-independent basis, Debye-Ang):
   XX=            -13.0444   YY=            -12.3059   ZZ=            -13.7930
   XY=             -2.2153   XZ=              0.0906   YZ=             -0.0589

 Normal termination of Gaussian 09 at Wed Aug 26 10:07:16 2020.
