 Gaussian 09, Revision D.01,
 Gaussian 09:  ES64L-G09RevD.01 24-Apr-2013

 --------------------
 #p B2PLYPD3/Def2QZVP
 --------------------

 --------
 methanol
 --------
 Symbolic Z-matrix:
 Charge =  0 Multiplicity = 1

                         Standard orientation:
 ---------------------------------------------------------------------
 Center     Atomic      Atomic             Coordinates (Angstroms)
 Number     Number       Type             X           Y           Z
 ---------------------------------------------------------------------
      1          6           0       -0.676209   -0.008823   -0.004473
      2          8           0        0.766691   -0.159655   -0.011211
      3          1           0       -1.198698    0.592202   -0.782736
      4          1           0       -1.109526    0.386951    0.901257
      5          1           0       -0.952852   -0.779720   -0.053647
      6          1           0        1.184799    1.130740    0.051656
 ---------------------------------------------------------------------

 SCF Done:  E(RB2PLYPD3) =  -115.393899233     A.U. after   12 cycles
 E2(B2PLYPD3) =    -0.1560487028D+00 E(B2PLYPD3) =    -0.11554994793587D+03

 The electronic state is 1-A.
 Alpha  occ. eigenvalues --  -19.75752 -10.62643  -1.11306  -0.81282  -0.55914
 Alpha  occ. eigenvalues --   -0.49874  -0.49262  -0.40991  -0.35108
 Alpha virt. eigenvalues --   -0.00526   0.07131   0.12542   0.13043   0.14752
 Alpha virt. eigenvalues --    0.17208   0.18809   0.22870   0.29094   0.32848
 Alpha virt. eigenvalues --    0.33975   0.36448   0.39683   0.41040   0.43040

 Mulliken charges:
               1
     1  C   -0.027451
     2  O   -0.483822
     3  H    0.045870
     4  H    0.048380
     5  H    0.168937
     6  H    0.248086
 Sum of Mulliken charges =   0.00000

 Dipole moment (field-independent basis, Debye):
    X=             -1.1020    Y=              1.6059    Z=              0.1099  Tot=              1.9508
 Quadrupole moment (field-independent basis, Debye-Ang):
   XX=            -13.0247   YY=            -11.3768   ZZ=            -14.1472
   XY=              2.4526   XZ=              0.1291   YZ=              0.0905

 Normal termination of Gaussian 09 at Wed Aug 26 21:08:05 2020.
