 Gaussian 09, Revision D.01,
 Gaussian 09:  ES64L-G09RevD.01 24-Apr-2013

 --------------------
 #p B2PLYPD3/Def2QZVP
 --------------------

 --------
 methanol
 --------
 Symbolic Z-matrix:
 Charge =  0 Multiplicity = 1

                         Standard orientation:
 ---------------------------------------------------------------------
 Center     Atomic      Atomic             Coordinates (Angstroms)
 Number     Number       Type             X           Y           Z
 ---------------------------------------------------------------------
      1          6           0       -0.684363   -0.011736    0.004678
      2          8           0        0.732340   -0.179609   -0.010570
      3          1           0       -1.073598    0.574024   -0.780506
      4          1           0       -0.980602    0.493494    0.807021
      5          1           0       -0.888634   -0.760409    0.000542
      6          1           0        1.190287    1.200179    0.029432
 ---------------------------------------------------------------------

 SCF Done:  E(RB2PLYPD3) =  -115.326310170     A.U. after   11 cycles
 E2(B2PLYPD3) =    -0.1571641651D+00 E(B2PLYPD3) =    -0.11548347433491D+03

 The electronic state is 1-A.
 Alpha  occ. eigenvalues --  -19.75316 -10.60466  -1.11878  -0.81727  -0.59448
 Alpha  occ. eigenvalues --   -0.51674  -0.48226  -0.40098  -0.34761
 Alpha virt. eigenvalues --   -0.02307   0.07522   0.12829   0.12971   0.14552
 Alpha virt. eigenvalues --    0.17058   0.18141   0.22046   0.29463   0.33195
 Alpha virt. eigenvalues --    0.34107   0.36843   0.41130   0.42141   0.44902

 Mulliken charges:
               1
     1  C   -0.081054
     2  O   -0.481090
     3  H    0.049960
     4  H    0.049586
     5  H    0.239577
     6  H    0.223021
 Sum of Mulliken charges =   0.00000

 Dipole moment (field-independent basis, Debye):
    X=             -1.1869    Y=              1.6888    Z=              0.1107  Tot=              2.0671
 Quadrupole moment (field-independent basis, Debye-Ang):
   XX=            -13.2800   YY=            -10.9520   ZZ=            -13.9756
   XY=              2.3002   XZ=              0.0508   YZ=              0.0643

 Normal termination of Gaussian 09 at Wed Aug 26 23:52:47 2020.
