 Gaussian 09, Revision D.01,
 Gaussian 09:  ES64L-G09RevD.01 24-Apr-2013

 --------------------
 #p B2PLYPD3/Def2QZVP
 --------------------

 --------
 methanol
 --------
 Symbolic Z-matrix:
 Charge =  0 Multiplicity = 1

                         Standard orientation:
 ---------------------------------------------------------------------
 Center     Atomic      Atomic             Coordinates (Angstroms)
 Number     Number       Type             X           Y           Z
 ---------------------------------------------------------------------
      1          6           0        0.684889    0.035389   -0.009418
      2          8           0       -0.715261   -0.205092    0.002509
      3          1           0        0.925970    0.498090    0.845270
      4          1           0        1.128240    0.530793   -0.694240
      5          1           0        0.954256   -0.775098   -0.045235
      6          1           0       -1.395709    1.174614   -0.069357
 ---------------------------------------------------------------------

 SCF Done:  E(RB2PLYPD3) =  -115.355178774     A.U. after   12 cycles
 E2(B2PLYPD3) =    -0.1586477889D+00 E(B2PLYPD3) =    -0.11551382656311D+03

 The electronic state is 1-A.
 Alpha  occ. eigenvalues --  -19.75626 -10.60123  -1.11638  -0.81608  -0.57404
 Alpha  occ. eigenvalues --   -0.53357  -0.48121  -0.38569  -0.35060
 Alpha virt. eigenvalues --   -0.03765   0.07469   0.12734   0.13136   0.14618
 Alpha virt. eigenvalues --    0.16853   0.18577   0.21089   0.29441   0.32793
 Alpha virt. eigenvalues --    0.35105   0.37370   0.40175   0.43756   0.45771

 Mulliken charges:
               1
     1  C    0.031690
     2  O   -0.467851
     3  H    0.050827
     4  H    0.043232
     5  H    0.132978
     6  H    0.209124
 Sum of Mulliken charges =   0.00000

 Dipole moment (field-independent basis, Debye):
    X=              1.0519    Y=              1.6511    Z=             -0.1228  Tot=              1.9615
 Quadrupole moment (field-independent basis, Debye-Ang):
   XX=            -12.4701   YY=            -11.3987   ZZ=            -13.9675
   XY=             -2.5565   XZ=             -0.0850   YZ=             -0.0702

 Normal termination of Gaussian 09 at Wed Aug 26 23:36:28 2020.
