 Gaussian 09, Revision D.01,
 Gaussian 09:  ES64L-G09RevD.01 24-Apr-2013

 --------------------
 #p B2PLYPD3/Def2QZVP
 --------------------

 --------
 methanol
 --------
 Symbolic Z-matrix:
 Charge =  0 Multiplicity = 1

                         Standard orientation:
 ---------------------------------------------------------------------
 Center     Atomic      Atomic             Coordinates (Angstroms)
 Number     Number       Type             X           Y           Z
 ---------------------------------------------------------------------
      1          6           0       -0.643282    0.000030    0.009100
      2          8           0        0.745293   -0.069598   -0.042617
      3          1           0       -1.061738    1.049803   -0.509014
      4          1           0       -1.026145   -0.070972    1.100484
      5          1           0       -1.109254   -0.870789   -0.549976
      6          1           0        1.094486    0.448559    0.244839
 ---------------------------------------------------------------------

 SCF Done:  E(RB2PLYPD3) =  -115.399015539     A.U. after   11 cycles
 E2(B2PLYPD3) =    -0.1438432913D+00 E(B2PLYPD3) =    -0.11554285883039D+03

 The electronic state is 1-A.
 Alpha  occ. eigenvalues --  -19.70113 -10.68915  -1.25581  -0.81851  -0.61990
 Alpha  occ. eigenvalues --   -0.51440  -0.51154  -0.40392  -0.35718
 Alpha virt. eigenvalues --    0.05296   0.09150   0.11530   0.12236   0.14414
 Alpha virt. eigenvalues --    0.17128   0.17874   0.28408   0.32210   0.33783
 Alpha virt. eigenvalues --    0.35618   0.37926   0.39094   0.40758   0.42753

 Mulliken charges:
               1
     1  C    0.047462
     2  O   -0.223359
     3  H    0.030035
     4  H    0.048772
     5  H    0.084337
     6  H    0.012753
 Sum of Mulliken charges =   0.00000

 Dipole moment (field-independent basis, Debye):
    X=             -0.7621    Y=              0.9185    Z=              0.6073  Tot=              1.3392
 Quadrupole moment (field-independent basis, Debye-Ang):
   XX=            -13.0373   YY=            -12.9234   ZZ=            -13.4515
   XY=              1.8328   XZ=              0.9426   YZ=              0.3936

 Normal termination of Gaussian 09 at Wed Aug 26 13:54:43 2020.
