 Gaussian 09, Revision D.01,
 Gaussian 09:  ES64L-G09RevD.01 24-Apr-2013

 --------------------
 #p B2PLYPD3/Def2QZVP
 --------------------

 --------
 methanol
 --------
 Symbolic Z-matrix:
 Charge =  0 Multiplicity = 1

                         Standard orientation:
 ---------------------------------------------------------------------
 Center     Atomic      Atomic             Coordinates (Angstroms)
 Number     Number       Type             X           Y           Z
 ---------------------------------------------------------------------
      1          6           0        0.658241   -0.023213    0.011534
      2          8           0       -0.753257    0.101217   -0.003652
      3          1           0        0.996309   -0.648175   -0.890645
      4          1           0        1.062007   -0.467871    0.927010
      5          1           0        1.121272    1.050131   -0.111908
      6          1           0       -1.102975   -0.604544    0.035551
 ---------------------------------------------------------------------

 SCF Done:  E(RB2PLYPD3) =  -115.506868063     A.U. after   10 cycles
 E2(B2PLYPD3) =    -0.1449577440D+00 E(B2PLYPD3) =    -0.11565182580648D+03

 The electronic state is 1-A.
 Alpha  occ. eigenvalues --  -19.71023 -10.67533  -1.21018  -0.79791  -0.61152
 Alpha  occ. eigenvalues --   -0.51744  -0.49733  -0.40857  -0.35929
 Alpha virt. eigenvalues --    0.05353   0.08821   0.11960   0.12140   0.14687
 Alpha virt. eigenvalues --    0.17252   0.17928   0.28883   0.32815   0.33416
 Alpha virt. eigenvalues --    0.36382   0.38404   0.39764   0.40448   0.42784

 Mulliken charges:
               1
     1  C    0.059069
     2  O   -0.338315
     3  H    0.044650
     4  H    0.057239
     5  H    0.068028
     6  H    0.109330
 Sum of Mulliken charges =   0.00000

 Dipole moment (field-independent basis, Debye):
    X=              0.8836    Y=             -1.3652    Z=              0.1209  Tot=              1.6307
 Quadrupole moment (field-independent basis, Debye-Ang):
   XX=            -13.0517   YY=            -12.5071   ZZ=            -13.6865
   XY=              2.0362   XZ=             -0.0026   YZ=             -0.1097

 Normal termination of Gaussian 09 at Thu Aug 27 00:01:11 2020.
