 Gaussian 09, Revision D.01,
 Gaussian 09:  ES64L-G09RevD.01 24-Apr-2013

 --------------------
 #p B2PLYPD3/Def2QZVP
 --------------------

 --------
 methanol
 --------
 Symbolic Z-matrix:
 Charge =  0 Multiplicity = 1

                         Standard orientation:
 ---------------------------------------------------------------------
 Center     Atomic      Atomic             Coordinates (Angstroms)
 Number     Number       Type             X           Y           Z
 ---------------------------------------------------------------------
      1          6           0       -0.651495    0.019289   -0.016355
      2          8           0        0.729476   -0.197365    0.004556
      3          1           0       -1.074922    0.465174   -0.697788
      4          1           0       -0.940466    0.618908    0.741171
      5          1           0       -1.090443   -0.820606    0.072755
      6          1           0        1.178995    1.199705   -0.054458
 ---------------------------------------------------------------------

 SCF Done:  E(RB2PLYPD3) =  -115.397584287     A.U. after   12 cycles
 E2(B2PLYPD3) =    -0.1568011029D+00 E(B2PLYPD3) =    -0.11555438539006D+03

 The electronic state is 1-A.
 Alpha  occ. eigenvalues --  -19.75794 -10.60575  -1.12516  -0.81484  -0.56437
 Alpha  occ. eigenvalues --   -0.52547  -0.49468  -0.39464  -0.34878
 Alpha virt. eigenvalues --   -0.02957   0.07469   0.12572   0.13317   0.14847
 Alpha virt. eigenvalues --    0.17878   0.18237   0.21492   0.29941   0.33164
 Alpha virt. eigenvalues --    0.35332   0.38415   0.39333   0.43212   0.46227

 Mulliken charges:
               1
     1  C    0.115893
     2  O   -0.463540
     3  H    0.038909
     4  H    0.028242
     5  H    0.054336
     6  H    0.226159
 Sum of Mulliken charges =   0.00000

 Dipole moment (field-independent basis, Debye):
    X=             -1.1301    Y=              1.7916    Z=             -0.1244  Tot=              2.1218
 Quadrupole moment (field-independent basis, Debye-Ang):
   XX=            -13.1139   YY=            -11.0608   ZZ=            -14.1770
   XY=              2.3509   XZ=              0.0677   YZ=             -0.1284

 Normal termination of Gaussian 09 at Wed Aug 26 23:54:40 2020.
