 Gaussian 09, Revision D.01,
 Gaussian 09:  ES64L-G09RevD.01 24-Apr-2013

 --------------------
 #p B2PLYPD3/Def2QZVP
 --------------------

 --------
 methanol
 --------
 Symbolic Z-matrix:
 Charge =  0 Multiplicity = 1

                         Standard orientation:
 ---------------------------------------------------------------------
 Center     Atomic      Atomic             Coordinates (Angstroms)
 Number     Number       Type             X           Y           Z
 ---------------------------------------------------------------------
      1          6           0       -0.662430    0.008917    0.017741
      2          8           0        0.737014   -0.090428   -0.038295
      3          1           0       -1.012902    0.948948   -0.652890
      4          1           0       -0.976824    0.109444    1.034120
      5          1           0       -1.067846   -0.942890   -0.386194
      6          1           0        1.136046    0.554423    0.204879
 ---------------------------------------------------------------------

 SCF Done:  E(RB2PLYPD3) =  -115.509532188     A.U. after   10 cycles
 E2(B2PLYPD3) =    -0.1446482136D+00 E(B2PLYPD3) =    -0.11565418040184D+03

 The electronic state is 1-A.
 Alpha  occ. eigenvalues --  -19.70608 -10.67077  -1.20612  -0.80459  -0.60775
 Alpha  occ. eigenvalues --   -0.51788  -0.50800  -0.40470  -0.35451
 Alpha virt. eigenvalues --    0.05380   0.08959   0.11838   0.12403   0.14588
 Alpha virt. eigenvalues --    0.16947   0.17858   0.28918   0.32505   0.33585
 Alpha virt. eigenvalues --    0.36759   0.38954   0.39973   0.41075   0.43481

 Mulliken charges:
               1
     1  C    0.062956
     2  O   -0.349343
     3  H    0.033411
     4  H    0.057338
     5  H    0.078810
     6  H    0.116827
 Sum of Mulliken charges =   0.00000

 Dipole moment (field-independent basis, Debye):
    X=             -0.7727    Y=              1.1438    Z=              0.5714  Tot=              1.4939
 Quadrupole moment (field-independent basis, Debye-Ang):
   XX=            -13.0209   YY=            -12.6163   ZZ=            -13.4889
   XY=              2.0720   XZ=              0.6333   YZ=              0.3370

 Normal termination of Gaussian 09 at Wed Aug 26 15:05:40 2020.
