 Gaussian 09, Revision D.01,
 Gaussian 09:  ES64L-G09RevD.01 24-Apr-2013

 --------------------
 #p B2PLYPD3/Def2QZVP
 --------------------

 --------
 methanol
 --------
 Symbolic Z-matrix:
 Charge =  0 Multiplicity = 1

                         Standard orientation:
 ---------------------------------------------------------------------
 Center     Atomic      Atomic             Coordinates (Angstroms)
 Number     Number       Type             X           Y           Z
 ---------------------------------------------------------------------
      1          6           0       -0.658486   -0.021492   -0.002911
      2          8           0        0.754740    0.117163   -0.005103
      3          1           0       -1.020702   -0.525132    0.893492
      4          1           0       -1.063750   -0.561243   -0.860539
      5          1           0       -1.092290    1.021218    0.005368
      6          1           0        1.089743   -0.743195    0.019973
 ---------------------------------------------------------------------

 SCF Done:  E(RB2PLYPD3) =  -115.550443070     A.U. after   10 cycles
 E2(B2PLYPD3) =    -0.1469167299D+00 E(B2PLYPD3) =    -0.11569735979956D+03

 The electronic state is 1-A.
 Alpha  occ. eigenvalues --  -19.72538 -10.66076  -1.17274  -0.78626  -0.59470
 Alpha  occ. eigenvalues --   -0.51722  -0.49474  -0.41409  -0.35642
 Alpha virt. eigenvalues --    0.05064   0.08346   0.12174   0.12400   0.14947
 Alpha virt. eigenvalues --    0.17379   0.18080   0.29076   0.33160   0.33451
 Alpha virt. eigenvalues --    0.36360   0.37820   0.39965   0.40714   0.43564

 Mulliken charges:
               1
     1  C    0.066807
     2  O   -0.436774
     3  H    0.047390
     4  H    0.049218
     5  H    0.064978
     6  H    0.208380
 Sum of Mulliken charges =   0.00000

 Dipole moment (field-independent basis, Debye):
    X=             -0.9316    Y=             -1.5194    Z=              0.0516  Tot=              1.7830
 Quadrupole moment (field-independent basis, Debye-Ang):
   XX=            -13.1942   YY=            -12.1981   ZZ=            -13.8343
   XY=             -2.0994   XZ=              0.0828   YZ=             -0.0081

 Normal termination of Gaussian 09 at Thu Aug 27 00:08:48 2020.
