 Gaussian 09, Revision D.01,
 Gaussian 09:  ES64L-G09RevD.01 24-Apr-2013

 --------------------
 #p B2PLYPD3/Def2QZVP
 --------------------

 --------
 methanol
 --------
 Symbolic Z-matrix:
 Charge =  0 Multiplicity = 1

                         Standard orientation:
 ---------------------------------------------------------------------
 Center     Atomic      Atomic             Coordinates (Angstroms)
 Number     Number       Type             X           Y           Z
 ---------------------------------------------------------------------
      1          6           0       -0.664696   -0.020150    0.009473
      2          8           0        0.746599    0.102749   -0.019461
      3          1           0       -1.003674   -0.397366    0.990297
      4          1           0       -1.079611   -0.666937   -0.863472
      5          1           0       -1.064698    1.003322   -0.111434
      6          1           0        1.163366   -0.640110    0.083462
 ---------------------------------------------------------------------

 SCF Done:  E(RB2PLYPD3) =  -115.538469389     A.U. after   10 cycles
 E2(B2PLYPD3) =    -0.1457973604D+00 E(B2PLYPD3) =    -0.11568426674939D+03

 The electronic state is 1-A.
 Alpha  occ. eigenvalues --  -19.71521 -10.66917  -1.18474  -0.79407  -0.59861
 Alpha  occ. eigenvalues --   -0.51495  -0.50160  -0.40504  -0.35583
 Alpha virt. eigenvalues --    0.05355   0.08517   0.12072   0.12402   0.14637
 Alpha virt. eigenvalues --    0.17013   0.18210   0.28935   0.33139   0.33432
 Alpha virt. eigenvalues --    0.36794   0.39115   0.39431   0.40206   0.43079

 Mulliken charges:
               1
     1  C    0.060844
     2  O   -0.407834
     3  H    0.053845
     4  H    0.045461
     5  H    0.074660
     6  H    0.173024
 Sum of Mulliken charges =   0.00000

 Dipole moment (field-independent basis, Debye):
    X=             -0.7884    Y=             -1.3266    Z=              0.2460  Tot=              1.5626
 Quadrupole moment (field-independent basis, Debye-Ang):
   XX=            -12.8757   YY=            -12.5595   ZZ=            -13.6511
   XY=             -2.1805   XZ=              0.2865   YZ=             -0.1437

 Normal termination of Gaussian 09 at Thu Aug 27 00:14:57 2020.
