 Gaussian 09, Revision D.01,
 Gaussian 09:  ES64L-G09RevD.01 24-Apr-2013

 --------------------
 #p B2PLYPD3/Def2QZVP
 --------------------

 --------
 methanol
 --------
 Symbolic Z-matrix:
 Charge =  0 Multiplicity = 1

                         Standard orientation:
 ---------------------------------------------------------------------
 Center     Atomic      Atomic             Coordinates (Angstroms)
 Number     Number       Type             X           Y           Z
 ---------------------------------------------------------------------
      1          6           0       -0.657466   -0.003488   -0.027727
      2          8           0        0.737354   -0.009869    0.081364
      3          1           0       -0.867006   -0.738889   -0.867484
      4          1           0       -1.003409    1.181955   -0.142297
      5          1           0       -1.098495   -0.443893    0.954525
      6          1           0        1.014876    0.100710   -0.429299
 ---------------------------------------------------------------------

 SCF Done:  E(RB2PLYPD3) =  -115.184107245     A.U. after   11 cycles
 E2(B2PLYPD3) =    -0.1430071256D+00 E(B2PLYPD3) =    -0.11532711437060D+03

 The electronic state is 1-A.
 Alpha  occ. eigenvalues --  -19.68466 -10.69061  -1.30003  -0.82996  -0.61833
 Alpha  occ. eigenvalues --   -0.52494  -0.51105  -0.40564  -0.36114
 Alpha virt. eigenvalues --    0.05164   0.09737   0.11193   0.11982   0.13639
 Alpha virt. eigenvalues --    0.16978   0.17617   0.27840   0.32081   0.32832
 Alpha virt. eigenvalues --    0.35590   0.37045   0.39514   0.41312   0.44100

 Mulliken charges:
               1
     1  C    0.050690
     2  O   -0.146586
     3  H    0.053895
     4  H    0.045353
     5  H    0.078313
     6  H   -0.081665
 Sum of Mulliken charges =   0.00000

 Dipole moment (field-independent basis, Debye):
    X=             -0.9242    Y=              0.1056    Z=             -1.0909  Tot=              1.4336
 Quadrupole moment (field-independent basis, Debye-Ang):
   XX=            -13.5169   YY=            -13.1217   ZZ=            -12.7048
   XY=              0.5019   XZ=             -1.8915   YZ=             -0.0837

 Normal termination of Gaussian 09 at Wed Aug 26 23:34:24 2020.
