 Gaussian 09, Revision D.01,
 Gaussian 09:  ES64L-G09RevD.01 24-Apr-2013

 --------------------
 #p B2PLYPD3/Def2QZVP
 --------------------

 --------
 methanol
 --------
 Symbolic Z-matrix:
 Charge =  0 Multiplicity = 1

                         Standard orientation:
 ---------------------------------------------------------------------
 Center     Atomic      Atomic             Coordinates (Angstroms)
 Number     Number       Type             X           Y           Z
 ---------------------------------------------------------------------
      1          6           0        0.669010    0.023017    0.004338
      2          8           0       -0.748484   -0.135244   -0.007484
      3          1           0        0.995570    0.482823    0.892482
      4          1           0        1.028184    0.555066   -0.870869
      5          1           0        1.076575   -0.934845   -0.018865
      6          1           0       -1.126515    0.840804    0.031097
 ---------------------------------------------------------------------

 SCF Done:  E(RB2PLYPD3) =  -115.542592137     A.U. after   11 cycles
 E2(B2PLYPD3) =    -0.1487159365D+00 E(B2PLYPD3) =    -0.11569130807334D+03

 The electronic state is 1-A.
 Alpha  occ. eigenvalues --  -19.73184 -10.64444  -1.14451  -0.78787  -0.57314
 Alpha  occ. eigenvalues --   -0.52342  -0.49710  -0.41143  -0.35339
 Alpha virt. eigenvalues --    0.04343   0.08049   0.12391   0.12669   0.14726
 Alpha virt. eigenvalues --    0.17402   0.18259   0.29035   0.31724   0.33427
 Alpha virt. eigenvalues --    0.33814   0.39039   0.40530   0.41651   0.43972

 Mulliken charges:
               1
     1  C    0.076092
     2  O   -0.481672
     3  H    0.048949
     4  H    0.046395
     5  H    0.067696
     6  H    0.242540
 Sum of Mulliken charges =   0.00000

 Dipole moment (field-independent basis, Debye):
    X=              0.9720    Y=              1.5635    Z=              0.0930  Tot=              1.8433
 Quadrupole moment (field-independent basis, Debye-Ang):
   XX=            -13.1477   YY=            -12.0563   ZZ=            -13.7268
   XY=             -2.3341   XZ=             -0.0754   YZ=              0.0581

 Normal termination of Gaussian 09 at Wed Aug 26 23:33:57 2020.
