 Gaussian 09, Revision D.01,
 Gaussian 09:  ES64L-G09RevD.01 24-Apr-2013

 --------------------
 #p B2PLYPD3/Def2QZVP
 --------------------

 --------
 methanol
 --------
 Symbolic Z-matrix:
 Charge =  0 Multiplicity = 1

                         Standard orientation:
 ---------------------------------------------------------------------
 Center     Atomic      Atomic             Coordinates (Angstroms)
 Number     Number       Type             X           Y           Z
 ---------------------------------------------------------------------
      1          6           0        0.662951    0.025999   -0.012467
      2          8           0       -0.748139   -0.146071    0.008416
      3          1           0        1.057309    0.566533    0.843014
      4          1           0        1.019300    0.496772   -0.837562
      5          1           0        1.109831   -0.936206    0.028287
      6          1           0       -1.179031    0.885475   -0.026265
 ---------------------------------------------------------------------

 SCF Done:  E(RB2PLYPD3) =  -115.527789386     A.U. after   11 cycles
 E2(B2PLYPD3) =    -0.1500033527D+00 E(B2PLYPD3) =    -0.11567779273882D+03

 The electronic state is 1-A.
 Alpha  occ. eigenvalues --  -19.73915 -10.64159  -1.13641  -0.78769  -0.56902
 Alpha  occ. eigenvalues --   -0.51881  -0.49501  -0.40849  -0.35251
 Alpha virt. eigenvalues --    0.03545   0.07712   0.12582   0.12702   0.14965
 Alpha virt. eigenvalues --    0.17513   0.18323   0.28483   0.29886   0.33572
 Alpha virt. eigenvalues --    0.34040   0.38937   0.39709   0.41730   0.44196

 Mulliken charges:
               1
     1  C    0.081344
     2  O   -0.487047
     3  H    0.041079
     4  H    0.048492
     5  H    0.063862
     6  H    0.252271
 Sum of Mulliken charges =   0.00000

 Dipole moment (field-independent basis, Debye):
    X=              0.9013    Y=              1.6438    Z=             -0.1140  Tot=              1.8782
 Quadrupole moment (field-independent basis, Debye-Ang):
   XX=            -12.8815   YY=            -11.9915   ZZ=            -13.9369
   XY=             -2.3971   XZ=              0.0319   YZ=             -0.1013

 Normal termination of Gaussian 09 at Thu Aug 27 00:09:12 2020.
