 Gaussian 09, Revision D.01,
 Gaussian 09:  ES64L-G09RevD.01 24-Apr-2013

 --------------------
 #p B2PLYPD3/Def2QZVP
 --------------------

 --------
 methanol
 --------
 Symbolic Z-matrix:
 Charge =  0 Multiplicity = 1

                         Standard orientation:
 ---------------------------------------------------------------------
 Center     Atomic      Atomic             Coordinates (Angstroms)
 Number     Number       Type             X           Y           Z
 ---------------------------------------------------------------------
      1          6           0       -0.661069    0.034734   -0.007755
      2          8           0        0.747182   -0.153461    0.007590
      3          1           0       -0.980883    0.507216   -0.810293
      4          1           0       -0.989094    0.574417    0.818976
      5          1           0       -1.169927   -0.953167    0.015254
      6          1           0        1.128861    0.890820   -0.038129
 ---------------------------------------------------------------------

 SCF Done:  E(RB2PLYPD3) =  -115.522645513     A.U. after   11 cycles
 E2(B2PLYPD3) =    -0.1498024820D+00 E(B2PLYPD3) =    -0.11567244799462D+03

 The electronic state is 1-A.
 Alpha  occ. eigenvalues --  -19.73792 -10.63830  -1.13868  -0.79012  -0.56929
 Alpha  occ. eigenvalues --   -0.52978  -0.49057  -0.40875  -0.35384
 Alpha virt. eigenvalues --    0.03568   0.07811   0.12425   0.12743   0.14858
 Alpha virt. eigenvalues --    0.17894   0.18037   0.28559   0.29836   0.33439
 Alpha virt. eigenvalues --    0.34047   0.38267   0.40164   0.42585   0.44168

 Mulliken charges:
               1
     1  C    0.090700
     2  O   -0.486671
     3  H    0.046262
     4  H    0.043309
     5  H    0.057152
     6  H    0.249247
 Sum of Mulliken charges =   0.00000

 Dipole moment (field-independent basis, Debye):
    X=             -0.9822    Y=              1.7308    Z=             -0.1172  Tot=              1.9936
 Quadrupole moment (field-independent basis, Debye-Ang):
   XX=            -13.1144   YY=            -11.8893   ZZ=            -13.8821
   XY=              2.3013   XZ=             -0.0414   YZ=             -0.0847

 Normal termination of Gaussian 09 at Wed Aug 26 12:38:42 2020.
