 Gaussian 09, Revision D.01,
 Gaussian 09:  ES64L-G09RevD.01 24-Apr-2013

 --------------------
 #p B2PLYPD3/Def2QZVP
 --------------------

 --------
 methanol
 --------
 Symbolic Z-matrix:
 Charge =  0 Multiplicity = 1

                         Standard orientation:
 ---------------------------------------------------------------------
 Center     Atomic      Atomic             Coordinates (Angstroms)
 Number     Number       Type             X           Y           Z
 ---------------------------------------------------------------------
      1          6           0        0.671376   -0.012437   -0.000926
      2          8           0       -0.747749    0.051327    0.007136
      3          1           0        1.056731   -0.662451   -0.929189
      4          1           0        1.108883   -0.541089    0.978720
      5          1           0        1.039242    1.197442   -0.080079
      6          1           0       -1.251127   -0.329896   -0.020985
 ---------------------------------------------------------------------

 SCF Done:  E(RB2PLYPD3) =  -115.266404188     A.U. after   11 cycles
 E2(B2PLYPD3) =    -0.1445464803D+00 E(B2PLYPD3) =    -0.11541095066848D+03

 The electronic state is 1-A.
 Alpha  occ. eigenvalues --  -19.68341 -10.71385  -1.25447  -0.83909  -0.61731
 Alpha  occ. eigenvalues --   -0.50389  -0.49528  -0.37960  -0.35798
 Alpha virt. eigenvalues --    0.04854   0.09228   0.11011   0.11717   0.14271
 Alpha virt. eigenvalues --    0.16566   0.17489   0.29073   0.31560   0.32334
 Alpha virt. eigenvalues --    0.33967   0.36286   0.37438   0.39833   0.42460

 Mulliken charges:
               1
     1  C    0.056224
     2  O   -0.192207
     3  H    0.052610
     4  H    0.059420
     5  H    0.084154
     6  H   -0.060201
 Sum of Mulliken charges =   0.00000

 Dipole moment (field-independent basis, Debye):
    X=              0.6751    Y=             -0.9489    Z=             -0.0710  Tot=              1.1667
 Quadrupole moment (field-independent basis, Debye-Ang):
   XX=            -12.3395   YY=            -12.8619   ZZ=            -13.7180
   XY=              1.4612   XZ=              0.1526   YZ=              0.0039

 Normal termination of Gaussian 09 at Wed Aug 26 19:10:18 2020.
