 Gaussian 09, Revision D.01,
 Gaussian 09:  ES64L-G09RevD.01 24-Apr-2013

 --------------------
 #p B2PLYPD3/Def2QZVP
 --------------------

 --------
 methanol
 --------
 Symbolic Z-matrix:
 Charge =  0 Multiplicity = 1

                         Standard orientation:
 ---------------------------------------------------------------------
 Center     Atomic      Atomic             Coordinates (Angstroms)
 Number     Number       Type             X           Y           Z
 ---------------------------------------------------------------------
      1          6           0       -0.655782   -0.006053    0.014589
      2          8           0        0.753581    0.075813   -0.010466
      3          1           0       -1.114287   -0.496341    0.933555
      4          1           0       -1.027048   -0.672272   -0.930292
      5          1           0       -1.056556    1.103920   -0.098635
      6          1           0        1.103933   -0.505496    0.091565
 ---------------------------------------------------------------------

 SCF Done:  E(RB2PLYPD3) =  -115.396128664     A.U. after   11 cycles
 E2(B2PLYPD3) =    -0.1441082994D+00 E(B2PLYPD3) =    -0.11554023696377D+03

 The electronic state is 1-A.
 Alpha  occ. eigenvalues --  -19.69954 -10.69090  -1.25020  -0.81445  -0.62176
 Alpha  occ. eigenvalues --   -0.50711  -0.50159  -0.41018  -0.35724
 Alpha virt. eigenvalues --    0.05249   0.09104   0.11661   0.11820   0.14788
 Alpha virt. eigenvalues --    0.16828   0.17749   0.28784   0.32111   0.33581
 Alpha virt. eigenvalues --    0.36202   0.37194   0.38581   0.40623   0.41902

 Mulliken charges:
               1
     1  C    0.047355
     2  O   -0.228216
     3  H    0.054177
     4  H    0.038774
     5  H    0.079745
     6  H    0.008165
 Sum of Mulliken charges =   0.00000

 Dipole moment (field-independent basis, Debye):
    X=             -0.8293    Y=             -1.1658    Z=              0.3002  Tot=              1.4619
 Quadrupole moment (field-independent basis, Debye-Ang):
   XX=            -13.0332   YY=            -12.5469   ZZ=            -13.7389
   XY=             -1.8521   XZ=              0.1124   YZ=             -0.2301

 Normal termination of Gaussian 09 at Wed Aug 26 12:43:38 2020.
