 Gaussian 09, Revision D.01,
 Gaussian 09:  ES64L-G09RevD.01 24-Apr-2013

 --------------------
 #p B2PLYPD3/Def2QZVP
 --------------------

 --------
 methanol
 --------
 Symbolic Z-matrix:
 Charge =  0 Multiplicity = 1

                         Standard orientation:
 ---------------------------------------------------------------------
 Center     Atomic      Atomic             Coordinates (Angstroms)
 Number     Number       Type             X           Y           Z
 ---------------------------------------------------------------------
      1          6           0       -0.654918    0.012750    0.002762
      2          8           0        0.730934   -0.153313   -0.010570
      3          1           0       -0.986449    0.603583   -0.829199
      4          1           0       -1.009952    0.472725    0.841705
      5          1           0       -1.048887   -0.889780   -0.019407
      6          1           0        1.127327    0.963476    0.074887
 ---------------------------------------------------------------------

 SCF Done:  E(RB2PLYPD3) =  -115.505341319     A.U. after   11 cycles
 E2(B2PLYPD3) =    -0.1508064875D+00 E(B2PLYPD3) =    -0.11565614780652D+03

 The electronic state is 1-A.
 Alpha  occ. eigenvalues --  -19.74090 -10.62894  -1.13920  -0.78897  -0.57040
 Alpha  occ. eigenvalues --   -0.52360  -0.49986  -0.40944  -0.34782
 Alpha virt. eigenvalues --    0.02462   0.07899   0.12662   0.12765   0.15008
 Alpha virt. eigenvalues --    0.17474   0.18146   0.26727   0.29589   0.33192
 Alpha virt. eigenvalues --    0.35189   0.39004   0.40760   0.42139   0.44305

 Mulliken charges:
               1
     1  C    0.088540
     2  O   -0.481915
     3  H    0.036777
     4  H    0.037660
     5  H    0.067167
     6  H    0.251771
 Sum of Mulliken charges =   0.00000

 Dipole moment (field-independent basis, Debye):
    X=             -0.9351    Y=              1.6427    Z=              0.1824  Tot=              1.8990
 Quadrupole moment (field-independent basis, Debye-Ang):
   XX=            -13.2595   YY=            -11.6497   ZZ=            -13.8966
   XY=              2.3864   XZ=              0.0696   YZ=              0.1142

 Normal termination of Gaussian 09 at Wed Aug 26 11:01:37 2020.
