 Gaussian 09, Revision D.01,
 Gaussian 09:  ES64L-G09RevD.01 24-Apr-2013

 --------------------
 #p B2PLYPD3/Def2QZVP
 --------------------

 --------
 methanol
 --------
 Symbolic Z-matrix:
 Charge =  0 Multiplicity = 1

                         Standard orientation:
 ---------------------------------------------------------------------
 Center     Atomic      Atomic             Coordinates (Angstroms)
 Number     Number       Type             X           Y           Z
 ---------------------------------------------------------------------
      1          6           0        0.660266   -0.006434    0.017048
      2          8           0       -0.757930    0.082493   -0.030041
      3          1           0        1.042480   -0.852580   -0.773496
      4          1           0        0.986042   -0.239072    1.098995
      5          1           0        1.167374    0.957254   -0.323727
      6          1           0       -1.094055   -0.486944    0.136268
 ---------------------------------------------------------------------

 SCF Done:  E(RB2PLYPD3) =  -115.391108519     A.U. after   11 cycles
 E2(B2PLYPD3) =    -0.1439950253D+00 E(B2PLYPD3) =    -0.11553510354380D+03

 The electronic state is 1-A.
 Alpha  occ. eigenvalues --  -19.69742 -10.68986  -1.24988  -0.81366  -0.61574
 Alpha  occ. eigenvalues --   -0.51561  -0.50586  -0.40477  -0.36016
 Alpha virt. eigenvalues --    0.05304   0.09152   0.11508   0.12196   0.14037
 Alpha virt. eigenvalues --    0.17344   0.17809   0.28390   0.32394   0.32537
 Alpha virt. eigenvalues --    0.35661   0.37602   0.38728   0.40618   0.43373

 Mulliken charges:
               1
     1  C    0.054270
     2  O   -0.238115
     3  H    0.038612
     4  H    0.054357
     5  H    0.084295
     6  H    0.006581
 Sum of Mulliken charges =   0.00000

 Dipole moment (field-independent basis, Debye):
    X=              0.9404    Y=             -1.0689    Z=              0.3822  Tot=              1.4741
 Quadrupole moment (field-independent basis, Debye-Ang):
   XX=            -13.0200   YY=            -12.8549   ZZ=            -13.4192
   XY=              2.0362   XZ=             -0.5848   YZ=             -0.2757

 Normal termination of Gaussian 09 at Wed Aug 26 15:33:54 2020.
