 Gaussian 09, Revision D.01,
 Gaussian 09:  ES64L-G09RevD.01 24-Apr-2013

 --------------------
 #p B2PLYPD3/Def2QZVP
 --------------------

 --------
 methanol
 --------
 Symbolic Z-matrix:
 Charge =  0 Multiplicity = 1

                         Standard orientation:
 ---------------------------------------------------------------------
 Center     Atomic      Atomic             Coordinates (Angstroms)
 Number     Number       Type             X           Y           Z
 ---------------------------------------------------------------------
      1          6           0       -0.654061    0.025669   -0.003037
      2          8           0        0.741539   -0.144234   -0.001138
      3          1           0       -1.018596    0.538616   -0.838429
      4          1           0       -1.040671    0.525792    0.838775
      5          1           0       -1.097213   -0.946819    0.007696
      6          1           0        1.148533    0.882276    0.019281
 ---------------------------------------------------------------------

 SCF Done:  E(RB2PLYPD3) =  -115.532344729     A.U. after   11 cycles
 E2(B2PLYPD3) =    -0.1495385649D+00 E(B2PLYPD3) =    -0.11568188329432D+03

 The electronic state is 1-A.
 Alpha  occ. eigenvalues --  -19.73831 -10.64078  -1.14429  -0.78572  -0.57379
 Alpha  occ. eigenvalues --   -0.52172  -0.49661  -0.40858  -0.35211
 Alpha virt. eigenvalues --    0.03668   0.07844   0.12550   0.12725   0.15059
 Alpha virt. eigenvalues --    0.17522   0.18265   0.28730   0.30061   0.33535
 Alpha virt. eigenvalues --    0.34721   0.38933   0.39838   0.42062   0.44161

 Mulliken charges:
               1
     1  C    0.079636
     2  O   -0.478601
     3  H    0.044087
     4  H    0.041886
     5  H    0.062297
     6  H    0.250695
 Sum of Mulliken charges =   0.00000

 Dipole moment (field-independent basis, Debye):
    X=             -0.8793    Y=              1.6502    Z=              0.0316  Tot=              1.8701
 Quadrupole moment (field-independent basis, Debye-Ang):
   XX=            -13.0208   YY=            -11.9502   ZZ=            -13.9283
   XY=              2.3273   XZ=              0.0227   YZ=              0.0043

 Normal termination of Gaussian 09 at Wed Aug 26 18:31:52 2020.
