 Gaussian 09, Revision D.01,
 Gaussian 09:  ES64L-G09RevD.01 24-Apr-2013

 --------------------
 #p B2PLYPD3/Def2QZVP
 --------------------

 --------
 methanol
 --------
 Symbolic Z-matrix:
 Charge =  0 Multiplicity = 1

                         Standard orientation:
 ---------------------------------------------------------------------
 Center     Atomic      Atomic             Coordinates (Angstroms)
 Number     Number       Type             X           Y           Z
 ---------------------------------------------------------------------
      1          6           0        0.667970   -0.019337    0.007786
      2          8           0       -0.759396    0.080787   -0.018003
      3          1           0        0.997544   -0.899187   -0.712792
      4          1           0        1.142552   -0.117867    1.085056
      5          1           0        1.089301    0.961912   -0.439195
      6          1           0       -1.162052   -0.475133    0.164240
 ---------------------------------------------------------------------

 SCF Done:  E(RB2PLYPD3) =  -115.428354779     A.U. after   11 cycles
 E2(B2PLYPD3) =    -0.1445414351D+00 E(B2PLYPD3) =    -0.11557289621415D+03

 The electronic state is 1-A.
 Alpha  occ. eigenvalues --  -19.69949 -10.69165  -1.23105  -0.81162  -0.61174
 Alpha  occ. eigenvalues --   -0.50996  -0.49964  -0.39947  -0.36125
 Alpha virt. eigenvalues --    0.05329   0.08874   0.11696   0.12028   0.14227
 Alpha virt. eigenvalues --    0.16856   0.18193   0.28642   0.31982   0.33128
 Alpha virt. eigenvalues --    0.35656   0.37865   0.38271   0.40431   0.42430

 Mulliken charges:
               1
     1  C    0.049228
     2  O   -0.261405
     3  H    0.049533
     4  H    0.056657
     5  H    0.080414
     6  H    0.025573
 Sum of Mulliken charges =   0.00000

 Dipole moment (field-independent basis, Debye):
    X=              0.8536    Y=             -1.1012    Z=              0.3476  Tot=              1.4360
 Quadrupole moment (field-independent basis, Debye-Ang):
   XX=            -12.7433   YY=            -12.9081   ZZ=            -13.4904
   XY=              1.9558   XZ=             -0.5285   YZ=             -0.2134

 Normal termination of Gaussian 09 at Wed Aug 26 15:13:14 2020.
