 Gaussian 09, Revision D.01,
 Gaussian 09:  ES64L-G09RevD.01 24-Apr-2013

 --------------------
 #p B2PLYPD3/Def2QZVP
 --------------------

 --------
 methanol
 --------
 Symbolic Z-matrix:
 Charge =  0 Multiplicity = 1

                         Standard orientation:
 ---------------------------------------------------------------------
 Center     Atomic      Atomic             Coordinates (Angstroms)
 Number     Number       Type             X           Y           Z
 ---------------------------------------------------------------------
      1          6           0        0.663920   -0.005127    0.005901
      2          8           0       -0.744829    0.107666   -0.009871
      3          1           0        1.038712   -0.657392   -0.860457
      4          1           0        1.013547   -0.455613    0.947833
      5          1           0        1.035244    0.987494   -0.092180
      6          1           0       -1.112391   -0.705056    0.048367
 ---------------------------------------------------------------------

 SCF Done:  E(RB2PLYPD3) =  -115.547363259     A.U. after   10 cycles
 E2(B2PLYPD3) =    -0.1461417231D+00 E(B2PLYPD3) =    -0.11569350498205D+03

 The electronic state is 1-A.
 Alpha  occ. eigenvalues --  -19.71872 -10.66122  -1.17848  -0.79146  -0.59604
 Alpha  occ. eigenvalues --   -0.51326  -0.50584  -0.41437  -0.35232
 Alpha virt. eigenvalues --    0.05189   0.08571   0.12178   0.12429   0.14881
 Alpha virt. eigenvalues --    0.17101   0.17890   0.29105   0.33030   0.33642
 Alpha virt. eigenvalues --    0.36720   0.38935   0.40106   0.40315   0.43602

 Mulliken charges:
               1
     1  C    0.067814
     2  O   -0.427509
     3  H    0.038686
     4  H    0.047748
     5  H    0.078357
     6  H    0.194905
 Sum of Mulliken charges =   0.00000

 Dipole moment (field-independent basis, Debye):
    X=              0.8610    Y=             -1.3921    Z=              0.1433  Tot=              1.6431
 Quadrupole moment (field-independent basis, Debye-Ang):
   XX=            -13.1724   YY=            -12.2154   ZZ=            -13.7643
   XY=              2.1857   XZ=             -0.1235   YZ=             -0.1196

 Normal termination of Gaussian 09 at Wed Aug 26 23:59:47 2020.
