 Gaussian 09, Revision D.01,
 Gaussian 09:  ES64L-G09RevD.01 24-Apr-2013

 --------------------
 #p B2PLYPD3/Def2QZVP
 --------------------

 --------
 methanol
 --------
 Symbolic Z-matrix:
 Charge =  0 Multiplicity = 1

                         Standard orientation:
 ---------------------------------------------------------------------
 Center     Atomic      Atomic             Coordinates (Angstroms)
 Number     Number       Type             X           Y           Z
 ---------------------------------------------------------------------
      1          6           0        0.672440   -0.006790    0.007473
      2          8           0       -0.767836    0.071674   -0.008721
      3          1           0        1.136737   -0.710988   -0.854666
      4          1           0        1.042606   -0.407603    1.026998
      5          1           0        1.037960    1.094814   -0.161351
      6          1           0       -1.109257   -0.508873    0.013944
 ---------------------------------------------------------------------

 SCF Done:  E(RB2PLYPD3) =  -115.376610552     A.U. after   11 cycles
 E2(B2PLYPD3) =    -0.1442910165D+00 E(B2PLYPD3) =    -0.11552090156810D+03

 The electronic state is 1-A.
 Alpha  occ. eigenvalues --  -19.69617 -10.69363  -1.24745  -0.81249  -0.61521
 Alpha  occ. eigenvalues --   -0.50658  -0.49615  -0.41023  -0.36218
 Alpha virt. eigenvalues --    0.05258   0.09008   0.11567   0.11840   0.14575
 Alpha virt. eigenvalues --    0.16736   0.17813   0.28706   0.31548   0.32935
 Alpha virt. eigenvalues --    0.35742   0.37283   0.38482   0.40659   0.41857

 Mulliken charges:
               1
     1  C    0.048786
     2  O   -0.233633
     3  H    0.046285
     4  H    0.058624
     5  H    0.084046
     6  H   -0.004107
 Sum of Mulliken charges =   0.00000

 Dipole moment (field-independent basis, Debye):
    X=              0.9755    Y=             -1.1689    Z=              0.0871  Tot=              1.5250
 Quadrupole moment (field-independent basis, Debye-Ang):
   XX=            -13.0197   YY=            -12.5327   ZZ=            -13.6474
   XY=              1.8344   XZ=             -0.1153   YZ=             -0.0912

 Normal termination of Gaussian 09 at Wed Aug 26 14:53:01 2020.
