 Gaussian 09, Revision D.01,
 Gaussian 09:  ES64L-G09RevD.01 24-Apr-2013

 --------------------
 #p B2PLYPD3/Def2QZVP
 --------------------

 --------
 methanol
 --------
 Symbolic Z-matrix:
 Charge =  0 Multiplicity = 1

                         Standard orientation:
 ---------------------------------------------------------------------
 Center     Atomic      Atomic             Coordinates (Angstroms)
 Number     Number       Type             X           Y           Z
 ---------------------------------------------------------------------
      1          6           0        0.674602   -0.018946    0.007089
      2          8           0       -0.753446    0.108326   -0.015362
      3          1           0        1.005118   -0.710905   -0.842894
      4          1           0        1.055702   -0.363096    0.971824
      5          1           0        1.072349    0.987502   -0.159983
      6          1           0       -1.153217   -0.666437    0.111414
 ---------------------------------------------------------------------

 SCF Done:  E(RB2PLYPD3) =  -115.544830747     A.U. after   10 cycles
 E2(B2PLYPD3) =    -0.1462325771D+00 E(B2PLYPD3) =    -0.11569106332413D+03

 The electronic state is 1-A.
 Alpha  occ. eigenvalues --  -19.71660 -10.66577  -1.17379  -0.79233  -0.59294
 Alpha  occ. eigenvalues --   -0.51526  -0.49906  -0.40902  -0.35572
 Alpha virt. eigenvalues --    0.05292   0.08455   0.12102   0.12404   0.14608
 Alpha virt. eigenvalues --    0.17075   0.18114   0.29017   0.32592   0.33416
 Alpha virt. eigenvalues --    0.36820   0.38930   0.39412   0.40653   0.43188

 Mulliken charges:
               1
     1  C    0.066333
     2  O   -0.430938
     3  H    0.046979
     4  H    0.055287
     5  H    0.075348
     6  H    0.186990
 Sum of Mulliken charges =   0.00000

 Dipole moment (field-independent basis, Debye):
    X=              0.8936    Y=             -1.3700    Z=              0.2704  Tot=              1.6579
 Quadrupole moment (field-independent basis, Debye-Ang):
   XX=            -12.9468   YY=            -12.4400   ZZ=            -13.6517
   XY=              2.2126   XZ=             -0.2437   YZ=             -0.1721

 Normal termination of Gaussian 09 at Wed Aug 26 09:50:46 2020.
