 Gaussian 09, Revision D.01,
 Gaussian 09:  ES64L-G09RevD.01 24-Apr-2013

 --------------------
 #p B2PLYPD3/Def2QZVP
 --------------------

 --------
 methanol
 --------
 Symbolic Z-matrix:
 Charge =  0 Multiplicity = 1

                         Standard orientation:
 ---------------------------------------------------------------------
 Center     Atomic      Atomic             Coordinates (Angstroms)
 Number     Number       Type             X           Y           Z
 ---------------------------------------------------------------------
      1          6           0        0.679903   -0.022708   -0.000052
      2          8           0       -0.755602    0.099896   -0.004423
      3          1           0        1.048810   -0.571105   -0.900005
      4          1           0        0.987443   -0.534795    0.939086
      5          1           0        1.072006    1.051897   -0.006212
      6          1           0       -1.142860   -0.608920    0.002821
 ---------------------------------------------------------------------

 SCF Done:  E(RB2PLYPD3) =  -115.519641940     A.U. after   10 cycles
 E2(B2PLYPD3) =    -0.1452381621D+00 E(B2PLYPD3) =    -0.11566488010222D+03

 The electronic state is 1-A.
 Alpha  occ. eigenvalues --  -19.70695 -10.67247  -1.19244  -0.79842  -0.60151
 Alpha  occ. eigenvalues --   -0.51722  -0.49490  -0.40861  -0.35823
 Alpha virt. eigenvalues --    0.05406   0.08773   0.12037   0.12122   0.14584
 Alpha virt. eigenvalues --    0.16944   0.17846   0.29022   0.32167   0.33292
 Alpha virt. eigenvalues --    0.37347   0.38879   0.39781   0.40058   0.42689

 Mulliken charges:
               1
     1  C    0.065086
     2  O   -0.376509
     3  H    0.055242
     4  H    0.055083
     5  H    0.075514
     6  H    0.125584
 Sum of Mulliken charges =   0.00000

 Dipole moment (field-independent basis, Debye):
    X=              0.9377    Y=             -1.3640    Z=              0.0200  Tot=              1.6554
 Quadrupole moment (field-independent basis, Debye-Ang):
   XX=            -12.9844   YY=            -12.4268   ZZ=            -13.6148
   XY=              2.0740   XZ=             -0.0744   YZ=              0.0029

 Normal termination of Gaussian 09 at Wed Aug 26 11:42:48 2020.
