 Gaussian 09, Revision D.01,
 Gaussian 09:  ES64L-G09RevD.01 24-Apr-2013

 --------------------
 #p B2PLYPD3/Def2QZVP
 --------------------

 --------
 methanol
 --------
 Symbolic Z-matrix:
 Charge =  0 Multiplicity = 1

                         Standard orientation:
 ---------------------------------------------------------------------
 Center     Atomic      Atomic             Coordinates (Angstroms)
 Number     Number       Type             X           Y           Z
 ---------------------------------------------------------------------
      1          6           0       -0.657321    0.019072    0.020212
      2          8           0        0.720439   -0.153383   -0.030482
      3          1           0       -0.890180    0.780656   -0.808944
      4          1           0       -1.040895    0.330679    0.837801
      5          1           0       -1.074202   -0.883594   -0.131078
      6          1           0        1.185697    0.884890    0.224805
 ---------------------------------------------------------------------

 SCF Done:  E(RB2PLYPD3) =  -115.497949874     A.U. after   11 cycles
 E2(B2PLYPD3) =    -0.1503331094D+00 E(B2PLYPD3) =    -0.11564828298302D+03

 The electronic state is 1-A.
 Alpha  occ. eigenvalues --  -19.73802 -10.63231  -1.14215  -0.79095  -0.57450
 Alpha  occ. eigenvalues --   -0.52659  -0.49798  -0.40584  -0.34400
 Alpha virt. eigenvalues --    0.02773   0.07902   0.12355   0.12791   0.14965
 Alpha virt. eigenvalues --    0.17297   0.18303   0.27366   0.29634   0.32413
 Alpha virt. eigenvalues --    0.35442   0.38214   0.40134   0.41949   0.46097

 Mulliken charges:
               1
     1  C    0.081096
     2  O   -0.475710
     3  H    0.031528
     4  H    0.043698
     5  H    0.065703
     6  H    0.253686
 Sum of Mulliken charges =   0.00000

 Dipole moment (field-independent basis, Debye):
    X=             -0.7802    Y=              1.5322    Z=              0.5654  Tot=              1.8100
 Quadrupole moment (field-independent basis, Debye-Ang):
   XX=            -13.0092   YY=            -11.9793   ZZ=            -13.7980
   XY=              2.5586   XZ=              0.1873   YZ=              0.3914

 Normal termination of Gaussian 09 at Wed Aug 26 23:11:38 2020.
