 Gaussian 09, Revision D.01,
 Gaussian 09:  ES64L-G09RevD.01 24-Apr-2013

 --------------------
 #p B2PLYPD3/Def2QZVP
 --------------------

 --------
 methanol
 --------
 Symbolic Z-matrix:
 Charge =  0 Multiplicity = 1

                         Standard orientation:
 ---------------------------------------------------------------------
 Center     Atomic      Atomic             Coordinates (Angstroms)
 Number     Number       Type             X           Y           Z
 ---------------------------------------------------------------------
      1          6           0        0.659068    0.010140   -0.021571
      2          8           0       -0.731145   -0.159484    0.028500
      3          1           0        1.046890    0.635402    0.850825
      4          1           0        0.950701    0.443441   -0.842111
      5          1           0        1.094536   -0.827539    0.014577
      6          1           0       -1.197377    0.963733   -0.121870
 ---------------------------------------------------------------------

 SCF Done:  E(RB2PLYPD3) =  -115.480540484     A.U. after   11 cycles
 E2(B2PLYPD3) =    -0.1515025611D+00 E(B2PLYPD3) =    -0.11563204304470D+03

 The electronic state is 1-A.
 Alpha  occ. eigenvalues --  -19.74293 -10.62669  -1.13286  -0.79644  -0.56548
 Alpha  occ. eigenvalues --   -0.51602  -0.50850  -0.40502  -0.34644
 Alpha virt. eigenvalues --    0.01838   0.07700   0.12566   0.13013   0.14861
 Alpha virt. eigenvalues --    0.17712   0.18286   0.25675   0.29554   0.32868
 Alpha virt. eigenvalues --    0.34767   0.38491   0.40963   0.41885   0.44664

 Mulliken charges:
               1
     1  C    0.087389
     2  O   -0.487662
     3  H    0.031657
     4  H    0.041601
     5  H    0.070180
     6  H    0.256836
 Sum of Mulliken charges =   0.00000

 Dipole moment (field-independent basis, Debye):
    X=              0.8589    Y=              1.5939    Z=             -0.3906  Tot=              1.8523
 Quadrupole moment (field-independent basis, Debye-Ang):
   XX=            -12.9189   YY=            -11.8212   ZZ=            -13.8666
   XY=             -2.6335   XZ=              0.1622   YZ=             -0.2700

 Normal termination of Gaussian 09 at Wed Aug 26 13:26:21 2020.
