 Gaussian 09, Revision D.01,
 Gaussian 09:  ES64L-G09RevD.01 24-Apr-2013

 --------------------
 #p B2PLYPD3/Def2QZVP
 --------------------

 --------
 methanol
 --------
 Symbolic Z-matrix:
 Charge =  0 Multiplicity = 1

                         Standard orientation:
 ---------------------------------------------------------------------
 Center     Atomic      Atomic             Coordinates (Angstroms)
 Number     Number       Type             X           Y           Z
 ---------------------------------------------------------------------
      1          6           0       -0.644021    0.025684    0.023115
      2          8           0        0.749533   -0.180046   -0.018315
      3          1           0       -1.144021    0.552153   -0.737956
      4          1           0       -0.929045    0.427057    0.758335
      5          1           0       -1.114495   -0.867871   -0.033493
      6          1           0        1.055418    1.174929    0.020940
 ---------------------------------------------------------------------

 SCF Done:  E(RB2PLYPD3) =  -115.416892584     A.U. after   12 cycles
 E2(B2PLYPD3) =    -0.1557512524D+00 E(B2PLYPD3) =    -0.11557264383602D+03

 The electronic state is 1-A.
 Alpha  occ. eigenvalues --  -19.75858 -10.61491  -1.12645  -0.81075  -0.56017
 Alpha  occ. eigenvalues --   -0.52552  -0.49390  -0.39681  -0.35525
 Alpha virt. eigenvalues --   -0.01429   0.07397   0.12509   0.13038   0.14794
 Alpha virt. eigenvalues --    0.18122   0.18507   0.22285   0.29571   0.33176
 Alpha virt. eigenvalues --    0.34913   0.37912   0.40010   0.42542   0.44745

 Mulliken charges:
               1
     1  C    0.086018
     2  O   -0.468158
     3  H    0.031412
     4  H    0.065726
     5  H    0.047470
     6  H    0.237533
 Sum of Mulliken charges =   0.00000

 Dipole moment (field-independent basis, Debye):
    X=             -1.2259    Y=              1.7785    Z=              0.1695  Tot=              2.1667
 Quadrupole moment (field-independent basis, Debye-Ang):
   XX=            -13.4982   YY=            -11.2153   ZZ=            -14.0533
   XY=              2.1331   XZ=              0.0612   YZ=              0.1618

 Normal termination of Gaussian 09 at Wed Aug 26 21:53:03 2020.
