 Gaussian 09, Revision D.01,
 Gaussian 09:  ES64L-G09RevD.01 24-Apr-2013

 --------------------
 #p B2PLYPD3/Def2QZVP
 --------------------

 --------
 methanol
 --------
 Symbolic Z-matrix:
 Charge =  0 Multiplicity = 1

                         Standard orientation:
 ---------------------------------------------------------------------
 Center     Atomic      Atomic             Coordinates (Angstroms)
 Number     Number       Type             X           Y           Z
 ---------------------------------------------------------------------
      1          6           0       -0.667541    0.007214    0.003634
      2          8           0        0.742105   -0.165448   -0.012210
      3          1           0       -1.207319    0.545029   -0.727287
      4          1           0       -0.974909    0.573824    0.753381
      5          1           0       -0.984815   -0.913912    0.053169
      6          1           0        1.235446    1.075359   -0.003386
 ---------------------------------------------------------------------

 SCF Done:  E(RB2PLYPD3) =  -115.454812208     A.U. after   11 cycles
 E2(B2PLYPD3) =    -0.1546619223D+00 E(B2PLYPD3) =    -0.11560947413050D+03

 The electronic state is 1-A.
 Alpha  occ. eigenvalues --  -19.75260 -10.62483  -1.12154  -0.79764  -0.57337
 Alpha  occ. eigenvalues --   -0.50610  -0.48681  -0.40764  -0.34581
 Alpha virt. eigenvalues --   -0.00083   0.07403   0.12249   0.13362   0.15127
 Alpha virt. eigenvalues --    0.17144   0.18261   0.23307   0.29711   0.32834
 Alpha virt. eigenvalues --    0.34525   0.38038   0.38974   0.41756   0.45167

 Mulliken charges:
               1
     1  C    0.089592
     2  O   -0.479988
     3  H    0.036431
     4  H    0.039503
     5  H    0.072257
     6  H    0.242205
 Sum of Mulliken charges =   0.00000

 Dipole moment (field-independent basis, Debye):
    X=             -0.9691    Y=              1.7374    Z=              0.0982  Tot=              1.9918
 Quadrupole moment (field-independent basis, Debye-Ang):
   XX=            -12.8580   YY=            -11.2798   ZZ=            -14.3893
   XY=              2.3098   XZ=              0.0501   YZ=              0.0404

 Normal termination of Gaussian 09 at Wed Aug 26 22:54:35 2020.
