 Gaussian 09, Revision D.01,
 Gaussian 09:  ES64L-G09RevD.01 24-Apr-2013

 --------------------
 #p B2PLYPD3/Def2QZVP
 --------------------

 --------
 methanol
 --------
 Symbolic Z-matrix:
 Charge =  0 Multiplicity = 1

                         Standard orientation:
 ---------------------------------------------------------------------
 Center     Atomic      Atomic             Coordinates (Angstroms)
 Number     Number       Type             X           Y           Z
 ---------------------------------------------------------------------
      1          6           0        0.679246    0.020465   -0.007281
      2          8           0       -0.749048   -0.138796    0.010432
      3          1           0        1.050906    0.572010    0.847484
      4          1           0        0.995777    0.526999   -0.843158
      5          1           0        1.070784   -0.957497   -0.005189
      6          1           0       -1.200560    0.846064   -0.038906
 ---------------------------------------------------------------------

 SCF Done:  E(RB2PLYPD3) =  -115.535556601     A.U. after   11 cycles
 E2(B2PLYPD3) =    -0.1494192009D+00 E(B2PLYPD3) =    -0.11568497580152D+03

 The electronic state is 1-A.
 Alpha  occ. eigenvalues --  -19.73308 -10.64372  -1.13326  -0.78831  -0.57183
 Alpha  occ. eigenvalues --   -0.51675  -0.49370  -0.41083  -0.35111
 Alpha virt. eigenvalues --    0.04006   0.07841   0.12460   0.12669   0.14959
 Alpha virt. eigenvalues --    0.17207   0.18045   0.29090   0.30856   0.33342
 Alpha virt. eigenvalues --    0.33476   0.39268   0.39655   0.41377   0.44402

 Mulliken charges:
               1
     1  C    0.082680
     2  O   -0.496208
     3  H    0.045575
     4  H    0.048648
     5  H    0.072029
     6  H    0.247276
 Sum of Mulliken charges =   0.00000

 Dipole moment (field-independent basis, Debye):
    X=              0.9205    Y=              1.6104    Z=             -0.1341  Tot=              1.8598
 Quadrupole moment (field-independent basis, Debye-Ang):
   XX=            -12.8544   YY=            -11.9597   ZZ=            -13.9061
   XY=             -2.3796   XZ=              0.0848   YZ=             -0.0851

 Normal termination of Gaussian 09 at Thu Aug 27 00:05:28 2020.
