 Gaussian 09, Revision D.01,
 Gaussian 09:  ES64L-G09RevD.01 24-Apr-2013

 --------------------
 #p B2PLYPD3/Def2QZVP
 --------------------

 --------
 methanol
 --------
 Symbolic Z-matrix:
 Charge =  0 Multiplicity = 1

                         Standard orientation:
 ---------------------------------------------------------------------
 Center     Atomic      Atomic             Coordinates (Angstroms)
 Number     Number       Type             X           Y           Z
 ---------------------------------------------------------------------
      1          6           0        0.646383    0.040255    0.004990
      2          8           0       -0.735228   -0.147253   -0.007035
      3          1           0        0.997865    0.437231    0.897755
      4          1           0        1.007245    0.621224   -0.813929
      5          1           0        1.192536   -0.934315   -0.086056
      6          1           0       -1.194124    0.812359    0.028571
 ---------------------------------------------------------------------

 SCF Done:  E(RB2PLYPD3) =  -115.538511757     A.U. after   11 cycles
 E2(B2PLYPD3) =    -0.1486543417D+00 E(B2PLYPD3) =    -0.11568716609863D+03

 The electronic state is 1-A.
 Alpha  occ. eigenvalues --  -19.73498 -10.64689  -1.15236  -0.78306  -0.57723
 Alpha  occ. eigenvalues --   -0.52784  -0.49846  -0.39798  -0.35345
 Alpha virt. eigenvalues --    0.04123   0.07756   0.12561   0.12753   0.14769
 Alpha virt. eigenvalues --    0.17837   0.18380   0.28950   0.30825   0.33460
 Alpha virt. eigenvalues --    0.34737   0.38605   0.40200   0.42352   0.43754

 Mulliken charges:
               1
     1  C    0.072957
     2  O   -0.474261
     3  H    0.050249
     4  H    0.044480
     5  H    0.055588
     6  H    0.250988
 Sum of Mulliken charges =   0.00000

 Dipole moment (field-independent basis, Debye):
    X=              0.7366    Y=              1.6395    Z=              0.0838  Tot=              1.7994
 Quadrupole moment (field-independent basis, Debye-Ang):
   XX=            -12.7200   YY=            -12.3433   ZZ=            -13.8395
   XY=             -2.4356   XZ=             -0.0795   YZ=              0.0346

 Normal termination of Gaussian 09 at Wed Aug 26 16:57:33 2020.
