 Gaussian 09, Revision D.01,
 Gaussian 09:  ES64L-G09RevD.01 24-Apr-2013

 --------------------
 #p B2PLYPD3/Def2QZVP
 --------------------

 --------
 methanol
 --------
 Symbolic Z-matrix:
 Charge =  0 Multiplicity = 1

                         Standard orientation:
 ---------------------------------------------------------------------
 Center     Atomic      Atomic             Coordinates (Angstroms)
 Number     Number       Type             X           Y           Z
 ---------------------------------------------------------------------
      1          6           0        0.665824   -0.013672   -0.002916
      2          8           0       -0.759412    0.108811    0.003303
      3          1           0        1.030479   -0.577114   -0.893305
      4          1           0        1.109535   -0.497649    0.920222
      5          1           0        1.054480    1.005950   -0.050129
      6          1           0       -1.114142   -0.719646    0.014282
 ---------------------------------------------------------------------

 SCF Done:  E(RB2PLYPD3) =  -115.548205096     A.U. after   10 cycles
 E2(B2PLYPD3) =    -0.1467582609D+00 E(B2PLYPD3) =    -0.11569496335682D+03

 The electronic state is 1-A.
 Alpha  occ. eigenvalues --  -19.72301 -10.66554  -1.17353  -0.78816  -0.59346
 Alpha  occ. eigenvalues --   -0.51075  -0.49770  -0.41493  -0.35607
 Alpha virt. eigenvalues --    0.05190   0.08301   0.12214   0.12314   0.14861
 Alpha virt. eigenvalues --    0.17151   0.18188   0.28970   0.32852   0.33437
 Alpha virt. eigenvalues --    0.36627   0.38328   0.39774   0.39931   0.43178

 Mulliken charges:
               1
     1  C    0.062382
     2  O   -0.430861
     3  H    0.048498
     4  H    0.047669
     5  H    0.073557
     6  H    0.198755
 Sum of Mulliken charges =   0.00000

 Dipole moment (field-independent basis, Debye):
    X=              0.9230    Y=             -1.4282    Z=             -0.0048  Tot=              1.7006
 Quadrupole moment (field-independent basis, Debye-Ang):
   XX=            -13.0918   YY=            -12.2895   ZZ=            -13.8162
   XY=              2.1486   XZ=              0.0080   YZ=             -0.0049

 Normal termination of Gaussian 09 at Wed Aug 26 09:58:37 2020.
