 Gaussian 09, Revision D.01,
 Gaussian 09:  ES64L-G09RevD.01 24-Apr-2013

 --------------------
 #p B2PLYPD3/Def2QZVP
 --------------------

 --------
 methanol
 --------
 Symbolic Z-matrix:
 Charge =  0 Multiplicity = 1

                         Standard orientation:
 ---------------------------------------------------------------------
 Center     Atomic      Atomic             Coordinates (Angstroms)
 Number     Number       Type             X           Y           Z
 ---------------------------------------------------------------------
      1          6           0       -0.661405   -0.033574   -0.006366
      2          8           0        0.723596    0.073347   -0.001318
      3          1           0       -0.929338   -0.582292    0.996835
      4          1           0       -0.869716   -0.659022   -0.953078
      5          1           0       -1.160043    1.151424   -0.032267
      6          1           0        1.138757   -0.295438    0.037253
 ---------------------------------------------------------------------

 SCF Done:  E(RB2PLYPD3) =  -115.040333620     A.U. after   11 cycles
 E2(B2PLYPD3) =    -0.1432183624D+00 E(B2PLYPD3) =    -0.11518355198198D+03

 The electronic state is 1-A.
 Alpha  occ. eigenvalues --  -19.67538 -10.70421  -1.30099  -0.85921  -0.61768
 Alpha  occ. eigenvalues --   -0.52784  -0.50205  -0.38054  -0.35930
 Alpha virt. eigenvalues --    0.04788   0.09811   0.11300   0.11654   0.13790
 Alpha virt. eigenvalues --    0.16693   0.16947   0.28578   0.31973   0.32275
 Alpha virt. eigenvalues --    0.32997   0.38138   0.38974   0.40812   0.43302

 Mulliken charges:
               1
     1  C    0.061954
     2  O   -0.104749
     3  H    0.050350
     4  H    0.059521
     5  H    0.074270
     6  H   -0.141347
 Sum of Mulliken charges =   0.00000

 Dipole moment (field-independent basis, Debye):
    X=             -0.6889    Y=             -1.0089    Z=              0.0825  Tot=              1.2245
 Quadrupole moment (field-independent basis, Debye-Ang):
   XX=            -12.9170   YY=            -12.7663   ZZ=            -13.3109
   XY=             -1.7414   XZ=              0.1061   YZ=              0.0058

 Normal termination of Gaussian 09 at Wed Aug 26 22:35:37 2020.
