 Gaussian 09, Revision D.01,
 Gaussian 09:  ES64L-G09RevD.01 24-Apr-2013

 --------------------
 #p B2PLYPD3/Def2QZVP
 --------------------

 --------
 methanol
 --------
 Symbolic Z-matrix:
 Charge =  0 Multiplicity = 1

                         Standard orientation:
 ---------------------------------------------------------------------
 Center     Atomic      Atomic             Coordinates (Angstroms)
 Number     Number       Type             X           Y           Z
 ---------------------------------------------------------------------
      1          6           0        0.666498   -0.005713    0.022236
      2          8           0       -0.754959    0.090718   -0.014359
      3          1           0        1.060811   -0.726277   -0.838353
      4          1           0        0.949369   -0.429794    0.956953
      5          1           0        1.057489    1.068074   -0.161026
      6          1           0       -1.026987   -0.603465    0.023883
 ---------------------------------------------------------------------

 SCF Done:  E(RB2PLYPD3) =  -115.472697525     A.U. after   10 cycles
 E2(B2PLYPD3) =    -0.1444817926D+00 E(B2PLYPD3) =    -0.11561717931814D+03

 The electronic state is 1-A.
 Alpha  occ. eigenvalues --  -19.70324 -10.67539  -1.22588  -0.80127  -0.61344
 Alpha  occ. eigenvalues --   -0.51914  -0.49629  -0.41931  -0.35853
 Alpha virt. eigenvalues --    0.05306   0.09138   0.11666   0.12055   0.14820
 Alpha virt. eigenvalues --    0.17051   0.17443   0.28845   0.32297   0.32830
 Alpha virt. eigenvalues --    0.36657   0.37820   0.40061   0.41394   0.42901

 Mulliken charges:
               1
     1  C    0.063508
     2  O   -0.299079
     3  H    0.034230
     4  H    0.060358
     5  H    0.076931
     6  H    0.064052
 Sum of Mulliken charges =   0.00000

 Dipole moment (field-independent basis, Debye):
    X=              1.0213    Y=             -1.3076    Z=              0.1815  Tot=              1.6690
 Quadrupole moment (field-independent basis, Debye-Ang):
   XX=            -13.5047   YY=            -12.2152   ZZ=            -13.6357
   XY=              1.9086   XZ=             -0.0894   YZ=             -0.1905

 Normal termination of Gaussian 09 at Wed Aug 26 16:15:58 2020.
