 Gaussian 09, Revision D.01,
 Gaussian 09:  ES64L-G09RevD.01 24-Apr-2013

 --------------------
 #p B2PLYPD3/Def2QZVP
 --------------------

 --------
 methanol
 --------
 Symbolic Z-matrix:
 Charge =  0 Multiplicity = 1

                         Standard orientation:
 ---------------------------------------------------------------------
 Center     Atomic      Atomic             Coordinates (Angstroms)
 Number     Number       Type             X           Y           Z
 ---------------------------------------------------------------------
      1          6           0       -0.664992   -0.033363    0.009792
      2          8           0        0.740196    0.081907   -0.025925
      3          1           0       -0.950338   -0.349486    1.015517
      4          1           0       -1.024399   -0.723886   -0.839126
      5          1           0       -1.042269    1.110565   -0.154247
      6          1           0        1.085389   -0.492273    0.126501
 ---------------------------------------------------------------------

 SCF Done:  E(RB2PLYPD3) =  -115.400523081     A.U. after   11 cycles
 E2(B2PLYPD3) =    -0.1436302949D+00 E(B2PLYPD3) =    -0.11554415337564D+03

 The electronic state is 1-A.
 Alpha  occ. eigenvalues --  -19.69264 -10.68068  -1.24771  -0.81590  -0.61753
 Alpha  occ. eigenvalues --   -0.52751  -0.49441  -0.40252  -0.36280
 Alpha virt. eigenvalues --    0.05313   0.09435   0.11590   0.11922   0.14440
 Alpha virt. eigenvalues --    0.16726   0.17768   0.28729   0.32826   0.33059
 Alpha virt. eigenvalues --    0.35568   0.38368   0.40616   0.40957   0.42829

 Mulliken charges:
               1
     1  C    0.051621
     2  O   -0.236583
     3  H    0.059040
     4  H    0.055822
     5  H    0.067779
     6  H    0.002322
 Sum of Mulliken charges =   0.00000

 Dipole moment (field-independent basis, Debye):
    X=             -0.8597    Y=             -1.2331    Z=              0.3850  Tot=              1.5517
 Quadrupole moment (field-independent basis, Debye-Ang):
   XX=            -13.2480   YY=            -12.5700   ZZ=            -13.3425
   XY=             -1.7565   XZ=              0.4435   YZ=             -0.1437

 Normal termination of Gaussian 09 at Wed Aug 26 14:39:22 2020.
