 Gaussian 09, Revision D.01,
 Gaussian 09:  ES64L-G09RevD.01 24-Apr-2013

 --------------------
 #p B2PLYPD3/Def2QZVP
 --------------------

 --------
 methanol
 --------
 Symbolic Z-matrix:
 Charge =  0 Multiplicity = 1

                         Standard orientation:
 ---------------------------------------------------------------------
 Center     Atomic      Atomic             Coordinates (Angstroms)
 Number     Number       Type             X           Y           Z
 ---------------------------------------------------------------------
      1          6           0        0.651358    0.052529   -0.006602
      2          8           0       -0.732087   -0.165379    0.010738
      3          1           0        0.963712    0.510198    0.809647
      4          1           0        0.980926    0.462679   -0.754185
      5          1           0        1.057380   -0.986597   -0.027939
      6          1           0       -1.053464    1.021581   -0.073818
 ---------------------------------------------------------------------

 SCF Done:  E(RB2PLYPD3) =  -115.467767259     A.U. after   11 cycles
 E2(B2PLYPD3) =    -0.1521011229D+00 E(B2PLYPD3) =    -0.11561986838153D+03

 The electronic state is 1-A.
 Alpha  occ. eigenvalues --  -19.74564 -10.62203  -1.13765  -0.79795  -0.56543
 Alpha  occ. eigenvalues --   -0.55123  -0.48445  -0.39871  -0.35690
 Alpha virt. eigenvalues --    0.01755   0.07862   0.12154   0.12784   0.15003
 Alpha virt. eigenvalues --    0.17554   0.18289   0.25248   0.29334   0.33596
 Alpha virt. eigenvalues --    0.35146   0.37213   0.40323   0.43883   0.45853

 Mulliken charges:
               1
     1  C    0.090924
     2  O   -0.472612
     3  H    0.045501
     4  H    0.051551
     5  H    0.045101
     6  H    0.239534
 Sum of Mulliken charges =   0.00000

 Dipole moment (field-independent basis, Debye):
    X=              1.0904    Y=              1.8112    Z=             -0.1748  Tot=              2.1213
 Quadrupole moment (field-independent basis, Debye-Ang):
   XX=            -13.6699   YY=            -11.5135   ZZ=            -13.7610
   XY=             -1.9646   XZ=              0.0421   YZ=             -0.1170

 Normal termination of Gaussian 09 at Wed Aug 26 19:06:44 2020.
