 Gaussian 09, Revision D.01,
 Gaussian 09:  ES64L-G09RevD.01 24-Apr-2013

 --------------------
 #p B2PLYPD3/Def2QZVP
 --------------------

 --------
 methanol
 --------
 Symbolic Z-matrix:
 Charge =  0 Multiplicity = 1

                         Standard orientation:
 ---------------------------------------------------------------------
 Center     Atomic      Atomic             Coordinates (Angstroms)
 Number     Number       Type             X           Y           Z
 ---------------------------------------------------------------------
      1          6           0        0.656936   -0.009502    0.008637
      2          8           0       -0.760615    0.102134   -0.018296
      3          1           0        1.091946   -0.756452   -0.784502
      4          1           0        1.002235   -0.366104    0.977715
      5          1           0        1.126116    1.017773   -0.170169
      6          1           0       -1.076986   -0.655279    0.071507
 ---------------------------------------------------------------------

 SCF Done:  E(RB2PLYPD3) =  -115.525435406     A.U. after   10 cycles
 E2(B2PLYPD3) =    -0.1456536228D+00 E(B2PLYPD3) =    -0.11567108902898D+03

 The electronic state is 1-A.
 Alpha  occ. eigenvalues --  -19.71679 -10.67351  -1.19943  -0.79195  -0.60631
 Alpha  occ. eigenvalues --   -0.51155  -0.49989  -0.41489  -0.35732
 Alpha virt. eigenvalues --    0.05282   0.08611   0.11923   0.12290   0.14815
 Alpha virt. eigenvalues --    0.17382   0.17916   0.28977   0.32635   0.33259
 Alpha virt. eigenvalues --    0.36723   0.38232   0.38819   0.40632   0.43074

 Mulliken charges:
               1
     1  C    0.063429
     2  O   -0.372890
     3  H    0.037251
     4  H    0.053787
     5  H    0.071850
     6  H    0.146573
 Sum of Mulliken charges =   0.00000

 Dipole moment (field-independent basis, Debye):
    X=              0.9423    Y=             -1.3656    Z=              0.2456  Tot=              1.6772
 Quadrupole moment (field-independent basis, Debye-Ang):
   XX=            -13.1703   YY=            -12.3641   ZZ=            -13.8216
   XY=              2.0653   XZ=             -0.2235   YZ=             -0.1678

 Normal termination of Gaussian 09 at Wed Aug 26 18:31:32 2020.
