 Gaussian 09, Revision D.01,
 Gaussian 09:  ES64L-G09RevD.01 24-Apr-2013

 --------------------
 #p B2PLYPD3/Def2QZVP
 --------------------

 --------
 methanol
 --------
 Symbolic Z-matrix:
 Charge =  0 Multiplicity = 1

                         Standard orientation:
 ---------------------------------------------------------------------
 Center     Atomic      Atomic             Coordinates (Angstroms)
 Number     Number       Type             X           Y           Z
 ---------------------------------------------------------------------
      1          6           0       -0.671915   -0.017793    0.002040
      2          8           0        0.762116    0.082802   -0.016243
      3          1           0       -1.079419   -0.370401    1.032690
      4          1           0       -0.997849   -0.759107   -0.856693
      5          1           0       -1.147050    1.040313   -0.188498
      6          1           0        1.158875   -0.466464    0.130210
 ---------------------------------------------------------------------

 SCF Done:  E(RB2PLYPD3) =  -115.406040227     A.U. after   11 cycles
 E2(B2PLYPD3) =    -0.1443132724D+00 E(B2PLYPD3) =    -0.11555035349966D+03

 The electronic state is 1-A.
 Alpha  occ. eigenvalues --  -19.69578 -10.69278  -1.23576  -0.81340  -0.61382
 Alpha  occ. eigenvalues --   -0.51058  -0.49874  -0.40050  -0.36092
 Alpha virt. eigenvalues --    0.05298   0.09019   0.11713   0.11936   0.14185
 Alpha virt. eigenvalues --    0.17047   0.17822   0.28756   0.31613   0.32995
 Alpha virt. eigenvalues --    0.35837   0.37468   0.38279   0.40513   0.42463

 Mulliken charges:
               1
     1  C    0.056416
     2  O   -0.254713
     3  H    0.053276
     4  H    0.053287
     5  H    0.082048
     6  H    0.009685
 Sum of Mulliken charges =   0.00000

 Dipole moment (field-independent basis, Debye):
    X=             -0.9189    Y=             -1.1246    Z=              0.3228  Tot=              1.4877
 Quadrupole moment (field-independent basis, Debye-Ang):
   XX=            -12.7348   YY=            -12.8049   ZZ=            -13.5453
   XY=             -1.9945   XZ=              0.3899   YZ=             -0.1554

 Normal termination of Gaussian 09 at Wed Aug 26 15:01:02 2020.
