 Gaussian 09, Revision D.01,
 Gaussian 09:  ES64L-G09RevD.01 24-Apr-2013

 --------------------
 #p B2PLYPD3/Def2QZVP
 --------------------

 --------
 methanol
 --------
 Symbolic Z-matrix:
 Charge =  0 Multiplicity = 1

                         Standard orientation:
 ---------------------------------------------------------------------
 Center     Atomic      Atomic             Coordinates (Angstroms)
 Number     Number       Type             X           Y           Z
 ---------------------------------------------------------------------
      1          6           0       -0.676156    0.003139   -0.008724
      2          8           0        0.776217   -0.057121   -0.022558
      3          1           0       -1.010967    1.149720   -0.287038
      4          1           0       -1.273604   -0.360544    1.050648
      5          1           0       -0.969751   -0.703558   -0.838758
      6          1           0        1.101522    0.352516    0.307955
 ---------------------------------------------------------------------

 SCF Done:  E(RB2PLYPD3) =  -115.248828334     A.U. after   11 cycles
 E2(B2PLYPD3) =    -0.1445235726D+00 E(B2PLYPD3) =    -0.11539335190620D+03

 The electronic state is 1-A.
 Alpha  occ. eigenvalues --  -19.69237 -10.70540  -1.27291  -0.82079  -0.61264
 Alpha  occ. eigenvalues --   -0.50561  -0.49427  -0.41115  -0.36198
 Alpha virt. eigenvalues --    0.05013   0.08738   0.11188   0.11840   0.14258
 Alpha virt. eigenvalues --    0.16509   0.18062   0.28195   0.30461   0.32432
 Alpha virt. eigenvalues --    0.33418   0.36322   0.38847   0.41069   0.42073

 Mulliken charges:
               1
     1  C    0.038802
     2  O   -0.179785
     3  H    0.047775
     4  H    0.050957
     5  H    0.096780
     6  H   -0.054529
 Sum of Mulliken charges =   0.00000

 Dipole moment (field-independent basis, Debye):
    X=             -1.0048    Y=              0.8519    Z=              0.5724  Tot=              1.4364
 Quadrupole moment (field-independent basis, Debye-Ang):
   XX=            -13.0536   YY=            -13.0274   ZZ=            -13.2186
   XY=              1.4955   XZ=              1.0437   YZ=              0.4806

 Normal termination of Gaussian 09 at Wed Aug 26 23:53:48 2020.
