 Gaussian 09, Revision D.01,
 Gaussian 09:  ES64L-G09RevD.01 24-Apr-2013

 --------------------
 #p B2PLYPD3/Def2QZVP
 --------------------

 --------
 methanol
 --------
 Symbolic Z-matrix:
 Charge =  0 Multiplicity = 1

                         Standard orientation:
 ---------------------------------------------------------------------
 Center     Atomic      Atomic             Coordinates (Angstroms)
 Number     Number       Type             X           Y           Z
 ---------------------------------------------------------------------
      1          6           0        0.661208   -0.014548    0.015728
      2          8           0       -0.754665    0.101358   -0.013173
      3          1           0        1.053160   -0.685182   -0.858951
      4          1           0        0.999955   -0.446254    0.948726
      5          1           0        1.122060    1.027414   -0.122593
      6          1           0       -1.105099   -0.619553    0.043833
 ---------------------------------------------------------------------

 SCF Done:  E(RB2PLYPD3) =  -115.516035531     A.U. after   10 cycles
 E2(B2PLYPD3) =    -0.1451250523D+00 E(B2PLYPD3) =    -0.11566116058370D+03

 The electronic state is 1-A.
 Alpha  occ. eigenvalues --  -19.71135 -10.67350  -1.20362  -0.79713  -0.60845
 Alpha  occ. eigenvalues --   -0.51534  -0.49970  -0.41103  -0.35756
 Alpha virt. eigenvalues --    0.05355   0.08766   0.12007   0.12191   0.14713
 Alpha virt. eigenvalues --    0.17313   0.17814   0.28950   0.32929   0.33037
 Alpha virt. eigenvalues --    0.36796   0.38346   0.39327   0.40784   0.42969

 Mulliken charges:
               1
     1  C    0.064042
     2  O   -0.357814
     3  H    0.039000
     4  H    0.056459
     5  H    0.073350
     6  H    0.124963
 Sum of Mulliken charges =   0.00000

 Dipole moment (field-independent basis, Debye):
    X=              0.9039    Y=             -1.3460    Z=              0.1876  Tot=              1.6321
 Quadrupole moment (field-independent basis, Debye-Ang):
   XX=            -13.0604   YY=            -12.4495   ZZ=            -13.7159
   XY=              2.0959   XZ=             -0.1195   YZ=             -0.1576

 Normal termination of Gaussian 09 at Wed Aug 26 10:02:18 2020.
