 Gaussian 09, Revision D.01,
 Gaussian 09:  ES64L-G09RevD.01 24-Apr-2013

 --------------------
 #p B2PLYPD3/Def2QZVP
 --------------------

 --------
 methanol
 --------
 Symbolic Z-matrix:
 Charge =  0 Multiplicity = 1

                         Standard orientation:
 ---------------------------------------------------------------------
 Center     Atomic      Atomic             Coordinates (Angstroms)
 Number     Number       Type             X           Y           Z
 ---------------------------------------------------------------------
      1          6           0        0.674220   -0.022594   -0.001659
      2          8           0       -0.756341    0.097672    0.000745
      3          1           0        1.029207   -0.567786   -0.897385
      4          1           0        1.061435   -0.500681    0.927153
      5          1           0        1.018112    1.067439   -0.036641
      6          1           0       -1.103343   -0.644790    0.010871
 ---------------------------------------------------------------------

 SCF Done:  E(RB2PLYPD3) =  -115.525736615     A.U. after   10 cycles
 E2(B2PLYPD3) =    -0.1454675961D+00 E(B2PLYPD3) =    -0.11567120421130D+03

 The electronic state is 1-A.
 Alpha  occ. eigenvalues --  -19.71094 -10.66980  -1.19331  -0.79554  -0.60302
 Alpha  occ. eigenvalues --   -0.51763  -0.49148  -0.41332  -0.35955
 Alpha virt. eigenvalues --    0.05371   0.08750   0.11971   0.12169   0.14796
 Alpha virt. eigenvalues --    0.16862   0.18014   0.28965   0.32479   0.33424
 Alpha virt. eigenvalues --    0.37332   0.38714   0.40124   0.40272   0.42506

 Mulliken charges:
               1
     1  C    0.059643
     2  O   -0.377986
     3  H    0.055253
     4  H    0.055062
     5  H    0.071804
     6  H    0.136225
 Sum of Mulliken charges =   0.00000

 Dipole moment (field-independent basis, Debye):
    X=              0.9536    Y=             -1.3975    Z=              0.0112  Tot=              1.6919
 Quadrupole moment (field-independent basis, Debye-Ang):
   XX=            -13.1743   YY=            -12.3269   ZZ=            -13.6367
   XY=              1.9598   XZ=             -0.0071   YZ=             -0.0028

 Normal termination of Gaussian 09 at Wed Aug 26 13:08:00 2020.
