 Gaussian 09, Revision D.01,
 Gaussian 09:  ES64L-G09RevD.01 24-Apr-2013

 --------------------
 #p B2PLYPD3/Def2QZVP
 --------------------

 --------
 methanol
 --------
 Symbolic Z-matrix:
 Charge =  0 Multiplicity = 1

                         Standard orientation:
 ---------------------------------------------------------------------
 Center     Atomic      Atomic             Coordinates (Angstroms)
 Number     Number       Type             X           Y           Z
 ---------------------------------------------------------------------
      1          6           0       -0.663264    0.016253    0.002017
      2          8           0        0.752926   -0.140209   -0.006690
      3          1           0       -1.078294    0.550030   -0.829704
      4          1           0       -0.994194    0.538989    0.844657
      5          1           0       -1.098352   -0.948731    0.016365
      6          1           0        1.127016    0.883867    0.010101
 ---------------------------------------------------------------------

 SCF Done:  E(RB2PLYPD3) =  -115.534799746     A.U. after   11 cycles
 E2(B2PLYPD3) =    -0.1496232102D+00 E(B2PLYPD3) =    -0.11568442295652D+03

 The electronic state is 1-A.
 Alpha  occ. eigenvalues --  -19.73780 -10.64388  -1.14021  -0.78680  -0.57290
 Alpha  occ. eigenvalues --   -0.51614  -0.49519  -0.41418  -0.35205
 Alpha virt. eigenvalues --    0.03828   0.07834   0.12473   0.12683   0.14988
 Alpha virt. eigenvalues --    0.17571   0.18120   0.28916   0.30387   0.33346
 Alpha virt. eigenvalues --    0.34041   0.39077   0.39828   0.41360   0.44069

 Mulliken charges:
               1
     1  C    0.081835
     2  O   -0.482432
     3  H    0.041910
     4  H    0.043266
     5  H    0.066627
     6  H    0.248794
 Sum of Mulliken charges =   0.00000

 Dipole moment (field-independent basis, Debye):
    X=             -0.9737    Y=              1.6384    Z=              0.0577  Tot=              1.9067
 Quadrupole moment (field-independent basis, Debye-Ang):
   XX=            -13.1134   YY=            -11.8699   ZZ=            -13.9767
   XY=              2.2974   XZ=              0.0619   YZ=              0.0286

 Normal termination of Gaussian 09 at Wed Aug 26 10:38:56 2020.
