 Gaussian 09, Revision D.01,
 Gaussian 09:  ES64L-G09RevD.01 24-Apr-2013

 --------------------
 #p B2PLYPD3/Def2QZVP
 --------------------

 --------
 methanol
 --------
 Symbolic Z-matrix:
 Charge =  0 Multiplicity = 1

                         Standard orientation:
 ---------------------------------------------------------------------
 Center     Atomic      Atomic             Coordinates (Angstroms)
 Number     Number       Type             X           Y           Z
 ---------------------------------------------------------------------
      1          6           0        0.658186    0.010184   -0.000292
      2          8           0       -0.754810    0.105311   -0.003918
      3          1           0        1.087637   -0.581846   -0.896162
      4          1           0        1.040093   -0.535638    0.935134
      5          1           0        1.033646    0.956919   -0.012696
      6          1           0       -1.072011   -0.743027    0.006820
 ---------------------------------------------------------------------

 SCF Done:  E(RB2PLYPD3) =  -115.543359472     A.U. after   10 cycles
 E2(B2PLYPD3) =    -0.1466303483D+00 E(B2PLYPD3) =    -0.11568998982020D+03

 The electronic state is 1-A.
 Alpha  occ. eigenvalues --  -19.72424 -10.66254  -1.17844  -0.79117  -0.59397
 Alpha  occ. eigenvalues --   -0.51257  -0.50483  -0.42077  -0.35129
 Alpha virt. eigenvalues --    0.05081   0.08402   0.12062   0.12549   0.14940
 Alpha virt. eigenvalues --    0.17324   0.17968   0.29033   0.32872   0.33517
 Alpha virt. eigenvalues --    0.35867   0.38543   0.39049   0.40875   0.44362

 Mulliken charges:
               1
     1  C    0.065628
     2  O   -0.425062
     3  H    0.036794
     4  H    0.037723
     5  H    0.082042
     6  H    0.202873
 Sum of Mulliken charges =   0.00000

 Dipole moment (field-independent basis, Debye):
    X=              0.9192    Y=             -1.3689    Z=              0.0264  Tot=              1.6490
 Quadrupole moment (field-independent basis, Debye-Ang):
   XX=            -13.2995   YY=            -12.1328   ZZ=            -13.8942
   XY=              2.1896   XZ=             -0.0570   YZ=             -0.0157

 Normal termination of Gaussian 09 at Wed Aug 26 11:12:26 2020.
