 Gaussian 09, Revision D.01,
 Gaussian 09:  ES64L-G09RevD.01 24-Apr-2013

 --------------------
 #p B2PLYPD3/Def2QZVP
 --------------------

 --------
 methanol
 --------
 Symbolic Z-matrix:
 Charge =  0 Multiplicity = 1

                         Standard orientation:
 ---------------------------------------------------------------------
 Center     Atomic      Atomic             Coordinates (Angstroms)
 Number     Number       Type             X           Y           Z
 ---------------------------------------------------------------------
      1          6           0       -0.666531    0.044008   -0.035497
      2          8           0        0.729385   -0.166917    0.021717
      3          1           0       -0.994165    0.405218   -0.738350
      4          1           0       -1.095931    0.625265    0.768791
      5          1           0       -0.993872   -0.975553    0.076347
      6          1           0        1.248073    1.016364   -0.067546
 ---------------------------------------------------------------------

 SCF Done:  E(RB2PLYPD3) =  -115.434838774     A.U. after   11 cycles
 E2(B2PLYPD3) =    -0.1535284690D+00 E(B2PLYPD3) =    -0.11558836724310D+03

 The electronic state is 1-A.
 Alpha  occ. eigenvalues --  -19.74943 -10.62335  -1.12599  -0.80483  -0.57324
 Alpha  occ. eigenvalues --   -0.52392  -0.48276  -0.39879  -0.35331
 Alpha virt. eigenvalues --    0.00842   0.07531   0.12066   0.13144   0.15408
 Alpha virt. eigenvalues --    0.16902   0.18490   0.24133   0.29439   0.33699
 Alpha virt. eigenvalues --    0.34587   0.37423   0.38472   0.41988   0.45979

 Mulliken charges:
               1
     1  C    0.034142
     2  O   -0.475896
     3  H    0.097803
     4  H    0.041272
     5  H    0.063636
     6  H    0.239044
 Sum of Mulliken charges =   0.00000

 Dipole moment (field-independent basis, Debye):
    X=             -0.9011    Y=              1.7196    Z=             -0.2774  Tot=              1.9611
 Quadrupole moment (field-independent basis, Debye-Ang):
   XX=            -12.8951   YY=            -11.5956   ZZ=            -14.0201
   XY=              2.2529   XZ=             -0.0314   YZ=             -0.2358

 Normal termination of Gaussian 09 at Wed Aug 26 22:05:19 2020.
