 Gaussian 09, Revision D.01,
 Gaussian 09:  ES64L-G09RevD.01 24-Apr-2013

 --------------------
 #p B2PLYPD3/Def2QZVP
 --------------------

 --------
 methanol
 --------
 Symbolic Z-matrix:
 Charge =  0 Multiplicity = 1

                         Standard orientation:
 ---------------------------------------------------------------------
 Center     Atomic      Atomic             Coordinates (Angstroms)
 Number     Number       Type             X           Y           Z
 ---------------------------------------------------------------------
      1          6           0       -0.662425    0.002470    0.010562
      2          8           0        0.729343   -0.146983   -0.025892
      3          1           0       -1.024509    0.708584   -0.806168
      4          1           0       -0.974584    0.413860    0.882970
      5          1           0       -1.061221   -0.862495   -0.065137
      6          1           0        1.200115    0.901095    0.132095
 ---------------------------------------------------------------------

 SCF Done:  E(RB2PLYPD3) =  -115.504824192     A.U. after   11 cycles
 E2(B2PLYPD3) =    -0.1502114230D+00 E(B2PLYPD3) =    -0.11565503561464D+03

 The electronic state is 1-A.
 Alpha  occ. eigenvalues --  -19.73755 -10.63313  -1.13784  -0.79137  -0.57085
 Alpha  occ. eigenvalues --   -0.51492  -0.50952  -0.40766  -0.34469
 Alpha virt. eigenvalues --    0.02871   0.07854   0.12545   0.12906   0.14979
 Alpha virt. eigenvalues --    0.17400   0.18129   0.27597   0.29672   0.32957
 Alpha virt. eigenvalues --    0.34779   0.38381   0.40733   0.41838   0.44270

 Mulliken charges:
               1
     1  C    0.084321
     2  O   -0.488328
     3  H    0.031011
     4  H    0.041011
     5  H    0.075337
     6  H    0.256648
 Sum of Mulliken charges =   0.00000

 Dipole moment (field-independent basis, Debye):
    X=             -0.8020    Y=              1.5533    Z=              0.3709  Tot=              1.7871
 Quadrupole moment (field-independent basis, Debye-Ang):
   XX=            -12.9089   YY=            -11.8604   ZZ=            -13.9131
   XY=              2.5777   XZ=              0.2220   YZ=              0.2547

 Normal termination of Gaussian 09 at Wed Aug 26 15:07:03 2020.
