 Gaussian 09, Revision D.01,
 Gaussian 09:  ES64L-G09RevD.01 24-Apr-2013

 --------------------
 #p B2PLYPD3/Def2QZVP
 --------------------

 --------
 methanol
 --------
 Symbolic Z-matrix:
 Charge =  0 Multiplicity = 1

                         Standard orientation:
 ---------------------------------------------------------------------
 Center     Atomic      Atomic             Coordinates (Angstroms)
 Number     Number       Type             X           Y           Z
 ---------------------------------------------------------------------
      1          6           0       -0.668166    0.021407    0.008641
      2          8           0        0.748505   -0.144974   -0.010741
      3          1           0       -1.081844    0.587720   -0.817305
      4          1           0       -0.994267    0.490298    0.851721
      5          1           0       -1.092894   -0.934259   -0.027160
      6          1           0        1.189956    0.887588    0.026823
 ---------------------------------------------------------------------

 SCF Done:  E(RB2PLYPD3) =  -115.526561119     A.U. after   11 cycles
 E2(B2PLYPD3) =    -0.1500893473D+00 E(B2PLYPD3) =    -0.11567665046624D+03

 The electronic state is 1-A.
 Alpha  occ. eigenvalues --  -19.73840 -10.64040  -1.13348  -0.78862  -0.56855
 Alpha  occ. eigenvalues --   -0.51726  -0.49500  -0.40987  -0.35158
 Alpha virt. eigenvalues --    0.03498   0.07718   0.12555   0.12754   0.14998
 Alpha virt. eigenvalues --    0.17418   0.18230   0.28471   0.29887   0.33431
 Alpha virt. eigenvalues --    0.33960   0.39066   0.39729   0.41594   0.44159

 Mulliken charges:
               1
     1  C    0.083121
     2  O   -0.491312
     3  H    0.041028
     4  H    0.047696
     5  H    0.067393
     6  H    0.252074
 Sum of Mulliken charges =   0.00000

 Dipole moment (field-independent basis, Debye):
    X=             -0.9118    Y=              1.6378    Z=              0.1191  Tot=              1.8783
 Quadrupole moment (field-independent basis, Debye-Ang):
   XX=            -12.8530   YY=            -11.9309   ZZ=            -13.9591
   XY=              2.4065   XZ=              0.0779   YZ=              0.0862

 Normal termination of Gaussian 09 at Wed Aug 26 09:55:19 2020.
