 Gaussian 09, Revision D.01,
 Gaussian 09:  ES64L-G09RevD.01 24-Apr-2013

 --------------------
 #p B2PLYPD3/Def2QZVP
 --------------------

 --------
 methanol
 --------
 Symbolic Z-matrix:
 Charge =  0 Multiplicity = 1

                         Standard orientation:
 ---------------------------------------------------------------------
 Center     Atomic      Atomic             Coordinates (Angstroms)
 Number     Number       Type             X           Y           Z
 ---------------------------------------------------------------------
      1          6           0       -0.674532   -0.000008    0.009993
      2          8           0        0.747126   -0.106911   -0.032848
      3          1           0       -0.991595    0.849690   -0.749668
      4          1           0       -0.973642    0.275210    0.988191
      5          1           0       -1.079912   -0.933898   -0.225652
      6          1           0        1.115332    0.664333    0.189958
 ---------------------------------------------------------------------

 SCF Done:  E(RB2PLYPD3) =  -115.540737652     A.U. after   11 cycles
 E2(B2PLYPD3) =    -0.1459757823D+00 E(B2PLYPD3) =    -0.11568671343414D+03

 The electronic state is 1-A.
 Alpha  occ. eigenvalues --  -19.71495 -10.65998  -1.17591  -0.79631  -0.59382
 Alpha  occ. eigenvalues --   -0.51339  -0.51156  -0.41350  -0.35115
 Alpha virt. eigenvalues --    0.05192   0.08648   0.11978   0.12552   0.14663
 Alpha virt. eigenvalues --    0.17154   0.17778   0.29168   0.32462   0.33139
 Alpha virt. eigenvalues --    0.36373   0.38898   0.40443   0.40963   0.44538

 Mulliken charges:
               1
     1  C    0.075832
     2  O   -0.431402
     3  H    0.034795
     4  H    0.050657
     5  H    0.081733
     6  H    0.188386
 Sum of Mulliken charges =   0.00000

 Dipole moment (field-independent basis, Debye):
    X=             -0.9285    Y=              1.2945    Z=              0.5020  Tot=              1.6703
 Quadrupole moment (field-independent basis, Debye-Ang):
   XX=            -13.1623   YY=            -12.2993   ZZ=            -13.6217
   XY=              2.2504   XZ=              0.4759   YZ=              0.3462

 Normal termination of Gaussian 09 at Wed Aug 26 14:57:40 2020.
