 Gaussian 09, Revision D.01,
 Gaussian 09:  ES64L-G09RevD.01 24-Apr-2013

 --------------------
 #p B2PLYPD3/Def2QZVP
 --------------------

 --------
 methanol
 --------
 Symbolic Z-matrix:
 Charge =  0 Multiplicity = 1

                         Standard orientation:
 ---------------------------------------------------------------------
 Center     Atomic      Atomic             Coordinates (Angstroms)
 Number     Number       Type             X           Y           Z
 ---------------------------------------------------------------------
      1          6           0       -0.679009    0.014934    0.007187
      2          8           0        0.747459   -0.138565   -0.009059
      3          1           0       -1.045181    0.561631   -0.875040
      4          1           0       -0.989720    0.509368    0.882381
      5          1           0       -1.061585   -0.906825   -0.007095
      6          1           0        1.190869    0.854742    0.029100
 ---------------------------------------------------------------------

 SCF Done:  E(RB2PLYPD3) =  -115.531993891     A.U. after   11 cycles
 E2(B2PLYPD3) =    -0.1494124322D+00 E(B2PLYPD3) =    -0.11568140632351D+03

 The electronic state is 1-A.
 Alpha  occ. eigenvalues --  -19.73288 -10.64188  -1.13360  -0.79006  -0.56787
 Alpha  occ. eigenvalues --   -0.51708  -0.50118  -0.40978  -0.35041
 Alpha virt. eigenvalues --    0.03956   0.07881   0.12457   0.12770   0.14753
 Alpha virt. eigenvalues --    0.17258   0.18186   0.29004   0.30714   0.33292
 Alpha virt. eigenvalues --    0.33399   0.38828   0.40894   0.41317   0.43738

 Mulliken charges:
               1
     1  C    0.080058
     2  O   -0.496197
     3  H    0.044366
     4  H    0.048319
     5  H    0.074316
     6  H    0.249138
 Sum of Mulliken charges =   0.00000

 Dipole moment (field-independent basis, Debye):
    X=             -0.9271    Y=              1.5570    Z=              0.1076  Tot=              1.8153
 Quadrupole moment (field-independent basis, Debye-Ang):
   XX=            -12.9036   YY=            -12.0169   ZZ=            -13.8024
   XY=              2.4720   XZ=              0.0743   YZ=              0.0732

 Normal termination of Gaussian 09 at Wed Aug 26 23:35:25 2020.
