 Gaussian 09, Revision D.01,
 Gaussian 09:  ES64L-G09RevD.01 24-Apr-2013

 --------------------
 #p B2PLYPD3/Def2QZVP
 --------------------

 --------
 methanol
 --------
 Symbolic Z-matrix:
 Charge =  0 Multiplicity = 1

                         Standard orientation:
 ---------------------------------------------------------------------
 Center     Atomic      Atomic             Coordinates (Angstroms)
 Number     Number       Type             X           Y           Z
 ---------------------------------------------------------------------
      1          6           0        0.684279   -0.032098    0.000764
      2          8           0       -0.755959    0.128991   -0.010122
      3          1           0        0.991985   -0.628360   -0.827723
      4          1           0        1.062780   -0.440977    0.868295
      5          1           0        1.068512    1.011454   -0.055007
      6          1           0       -1.181275   -0.781456    0.090830
 ---------------------------------------------------------------------

 SCF Done:  E(RB2PLYPD3) =  -115.545234727     A.U. after   10 cycles
 E2(B2PLYPD3) =    -0.1483846065D+00 E(B2PLYPD3) =    -0.11569361933303D+03

 The electronic state is 1-A.
 Alpha  occ. eigenvalues --  -19.72769 -10.65077  -1.14124  -0.78964  -0.57824
 Alpha  occ. eigenvalues --   -0.52344  -0.48430  -0.41092  -0.35528
 Alpha virt. eigenvalues --    0.04704   0.08005   0.12165   0.12583   0.14937
 Alpha virt. eigenvalues --    0.17044   0.18139   0.29060   0.32413   0.33762
 Alpha virt. eigenvalues --    0.33820   0.37967   0.39750   0.41941   0.44318

 Mulliken charges:
               1
     1  C    0.076857
     2  O   -0.485753
     3  H    0.053476
     4  H    0.054257
     5  H    0.067665
     6  H    0.233499
 Sum of Mulliken charges =   0.00000

 Dipole moment (field-independent basis, Debye):
    X=              0.9601    Y=             -1.5884    Z=              0.2096  Tot=              1.8678
 Quadrupole moment (field-independent basis, Debye-Ang):
   XX=            -12.9007   YY=            -12.1064   ZZ=            -13.8029
   XY=              2.2249   XZ=             -0.1190   YZ=             -0.0950

 Normal termination of Gaussian 09 at Wed Aug 26 15:13:29 2020.
