 Gaussian 09, Revision D.01,
 Gaussian 09:  ES64L-G09RevD.01 24-Apr-2013

 --------------------
 #p B2PLYPD3/Def2QZVP
 --------------------

 --------
 methanol
 --------
 Symbolic Z-matrix:
 Charge =  0 Multiplicity = 1

                         Standard orientation:
 ---------------------------------------------------------------------
 Center     Atomic      Atomic             Coordinates (Angstroms)
 Number     Number       Type             X           Y           Z
 ---------------------------------------------------------------------
      1          6           0        0.648320    0.044369   -0.017384
      2          8           0       -0.699941   -0.210346   -0.006026
      3          1           0        0.912953    0.411751    0.876130
      4          1           0        0.991916    0.623516   -0.685857
      5          1           0        1.128500   -0.750361   -0.055317
      6          1           0       -1.323763    1.131648    0.017562
 ---------------------------------------------------------------------

 SCF Done:  E(RB2PLYPD3) =  -115.401719681     A.U. after   12 cycles
 E2(B2PLYPD3) =    -0.1560456865D+00 E(B2PLYPD3) =    -0.11555776536727D+03

 The electronic state is 1-A.
 Alpha  occ. eigenvalues --  -19.75226 -10.60266  -1.13197  -0.80623  -0.55848
 Alpha  occ. eigenvalues --   -0.53555  -0.50360  -0.38471  -0.34649
 Alpha virt. eigenvalues --   -0.03058   0.07569   0.12821   0.13300   0.14681
 Alpha virt. eigenvalues --    0.17789   0.18514   0.21393   0.29609   0.33142
 Alpha virt. eigenvalues --    0.36095   0.39514   0.40735   0.43741   0.45614

 Mulliken charges:
               1
     1  C    0.105031
     2  O   -0.465639
     3  H    0.040048
     4  H    0.035096
     5  H    0.057432
     6  H    0.228032
 Sum of Mulliken charges =   0.00000

 Dipole moment (field-independent basis, Debye):
    X=              0.9020    Y=              1.7163    Z=              0.0017  Tot=              1.9389
 Quadrupole moment (field-independent basis, Debye-Ang):
   XX=            -12.5730   YY=            -11.5529   ZZ=            -13.9046
   XY=             -2.7239   XZ=             -0.1568   YZ=             -0.0762

 Normal termination of Gaussian 09 at Wed Aug 26 21:39:43 2020.
