 Gaussian 09, Revision D.01,
 Gaussian 09:  ES64L-G09RevD.01 24-Apr-2013

 --------------------
 #p B2PLYPD3/Def2QZVP
 --------------------

 --------
 methanol
 --------
 Symbolic Z-matrix:
 Charge =  0 Multiplicity = 1

                         Standard orientation:
 ---------------------------------------------------------------------
 Center     Atomic      Atomic             Coordinates (Angstroms)
 Number     Number       Type             X           Y           Z
 ---------------------------------------------------------------------
      1          6           0        0.702025    0.032789    0.014966
      2          8           0       -0.715056   -0.200090   -0.000436
      3          1           0        1.033912    0.417939    0.851252
      4          1           0        0.871118    0.620846   -0.827077
      5          1           0        1.045789   -0.694789   -0.154540
      6          1           0       -1.442517    1.059993    0.044057
 ---------------------------------------------------------------------

 SCF Done:  E(RB2PLYPD3) =  -115.364989049     A.U. after   12 cycles
 E2(B2PLYPD3) =    -0.1564178090D+00 E(B2PLYPD3) =    -0.11552140685789D+03

 The electronic state is 1-A.
 Alpha  occ. eigenvalues --  -19.74607 -10.60550  -1.10750  -0.81585  -0.56403
 Alpha  occ. eigenvalues --   -0.53241  -0.48941  -0.38400  -0.34717
 Alpha virt. eigenvalues --   -0.02210   0.07571   0.12661   0.13204   0.14322
 Alpha virt. eigenvalues --    0.17211   0.18432   0.21831   0.29386   0.32849
 Alpha virt. eigenvalues --    0.33740   0.37821   0.42025   0.43489   0.44914

 Mulliken charges:
               1
     1  C    0.000828
     2  O   -0.500675
     3  H    0.057867
     4  H    0.050080
     5  H    0.157594
     6  H    0.234306
 Sum of Mulliken charges =   0.00000

 Dipole moment (field-independent basis, Debye):
    X=              0.9103    Y=              1.6137    Z=              0.0451  Tot=              1.8533
 Quadrupole moment (field-independent basis, Debye-Ang):
   XX=            -12.0978   YY=            -11.8598   ZZ=            -13.6685
   XY=             -2.9495   XZ=              0.0196   YZ=              0.1487

 Normal termination of Gaussian 09 at Wed Aug 26 19:26:28 2020.
