 Gaussian 09, Revision D.01,
 Gaussian 09:  ES64L-G09RevD.01 24-Apr-2013

 --------------------
 #p B2PLYPD3/Def2QZVP
 --------------------

 --------
 methanol
 --------
 Symbolic Z-matrix:
 Charge =  0 Multiplicity = 1

                         Standard orientation:
 ---------------------------------------------------------------------
 Center     Atomic      Atomic             Coordinates (Angstroms)
 Number     Number       Type             X           Y           Z
 ---------------------------------------------------------------------
      1          6           0        0.662862   -0.027542    0.010436
      2          8           0       -0.753948    0.110993   -0.005717
      3          1           0        1.020590   -0.619601   -0.881990
      4          1           0        1.056621   -0.458249    0.916070
      5          1           0        1.100794    1.031568   -0.090376
      6          1           0       -1.123589   -0.676415    0.039418
 ---------------------------------------------------------------------

 SCF Done:  E(RB2PLYPD3) =  -115.541734881     A.U. after   10 cycles
 E2(B2PLYPD3) =    -0.1461353463D+00 E(B2PLYPD3) =    -0.11568787022759D+03

 The electronic state is 1-A.
 Alpha  occ. eigenvalues --  -19.71882 -10.66726  -1.18256  -0.79027  -0.59980
 Alpha  occ. eigenvalues --   -0.51834  -0.49415  -0.40883  -0.35818
 Alpha virt. eigenvalues --    0.05269   0.08485   0.12120   0.12258   0.14760
 Alpha virt. eigenvalues --    0.17244   0.18144   0.28978   0.32999   0.33481
 Alpha virt. eigenvalues --    0.36809   0.38011   0.39513   0.40986   0.43020

 Mulliken charges:
               1
     1  C    0.062880
     2  O   -0.413708
     3  H    0.047427
     4  H    0.057513
     5  H    0.065568
     6  H    0.180320
 Sum of Mulliken charges =   0.00000

 Dipole moment (field-independent basis, Debye):
    X=              0.8836    Y=             -1.4491    Z=              0.1254  Tot=              1.7019
 Quadrupole moment (field-independent basis, Debye-Ang):
   XX=            -13.0246   YY=            -12.4264   ZZ=            -13.7198
   XY=              2.1141   XZ=             -0.0348   YZ=             -0.0997

 Normal termination of Gaussian 09 at Thu Aug 27 00:15:03 2020.
