 Gaussian 09, Revision D.01,
 Gaussian 09:  ES64L-G09RevD.01 24-Apr-2013

 --------------------
 #p B2PLYPD3/Def2QZVP
 --------------------

 --------
 methanol
 --------
 Symbolic Z-matrix:
 Charge =  0 Multiplicity = 1

                         Standard orientation:
 ---------------------------------------------------------------------
 Center     Atomic      Atomic             Coordinates (Angstroms)
 Number     Number       Type             X           Y           Z
 ---------------------------------------------------------------------
      1          6           0       -0.667474    0.015284    0.015776
      2          8           0        0.750291   -0.130767   -0.026559
      3          1           0       -1.052825    0.725183   -0.774490
      4          1           0       -0.951466    0.328623    0.916103
      5          1           0       -1.075875   -0.940385   -0.141114
      6          1           0        1.082680    0.841011    0.117314
 ---------------------------------------------------------------------

 SCF Done:  E(RB2PLYPD3) =  -115.537437730     A.U. after   10 cycles
 E2(B2PLYPD3) =    -0.1486152601D+00 E(B2PLYPD3) =    -0.11568605299042D+03

 The electronic state is 1-A.
 Alpha  occ. eigenvalues --  -19.73159 -10.64405  -1.14801  -0.78964  -0.57784
 Alpha  occ. eigenvalues --   -0.52303  -0.49582  -0.41523  -0.35326
 Alpha virt. eigenvalues --    0.04366   0.08135   0.12292   0.12608   0.14824
 Alpha virt. eigenvalues --    0.17404   0.18140   0.29098   0.31626   0.33307
 Alpha virt. eigenvalues --    0.34045   0.38530   0.40253   0.41627   0.44643

 Mulliken charges:
               1
     1  C    0.080253
     2  O   -0.476863
     3  H    0.037170
     4  H    0.051952
     5  H    0.067625
     6  H    0.239864
 Sum of Mulliken charges =   0.00000

 Dipole moment (field-independent basis, Debye):
    X=             -1.0237    Y=              1.5405    Z=              0.3457  Tot=              1.8816
 Quadrupole moment (field-independent basis, Debye-Ang):
   XX=            -13.3532   YY=            -11.9514   ZZ=            -13.7363
   XY=              2.2375   XZ=              0.2589   YZ=              0.2293

 Normal termination of Gaussian 09 at Wed Aug 26 13:14:47 2020.
