 Gaussian 09, Revision D.01,
 Gaussian 09:  ES64L-G09RevD.01 24-Apr-2013

 --------------------
 #p B2PLYPD3/Def2QZVP
 --------------------

 --------
 methanol
 --------
 Symbolic Z-matrix:
 Charge =  0 Multiplicity = 1

                         Standard orientation:
 ---------------------------------------------------------------------
 Center     Atomic      Atomic             Coordinates (Angstroms)
 Number     Number       Type             X           Y           Z
 ---------------------------------------------------------------------
      1          6           0       -0.657865   -0.026666    0.014382
      2          8           0        0.743456    0.102235   -0.017803
      3          1           0       -0.992257   -0.445475    0.948248
      4          1           0       -1.059558   -0.693539   -0.851943
      5          1           0       -1.137697    1.058245   -0.106863
      6          1           0        1.189059   -0.577115    0.066688
 ---------------------------------------------------------------------

 SCF Done:  E(RB2PLYPD3) =  -115.517613819     A.U. after   10 cycles
 E2(B2PLYPD3) =    -0.1452585285D+00 E(B2PLYPD3) =    -0.11566287234713D+03

 The electronic state is 1-A.
 Alpha  occ. eigenvalues --  -19.71101 -10.67661  -1.19834  -0.79854  -0.61071
 Alpha  occ. eigenvalues --   -0.51599  -0.49655  -0.39916  -0.35635
 Alpha virt. eigenvalues --    0.05347   0.08599   0.11925   0.12272   0.14754
 Alpha virt. eigenvalues --    0.17142   0.17906   0.29016   0.32988   0.33594
 Alpha virt. eigenvalues --    0.35883   0.38224   0.39444   0.40793   0.42619

 Mulliken charges:
               1
     1  C    0.061149
     2  O   -0.369800
     3  H    0.057879
     4  H    0.043512
     5  H    0.068601
     6  H    0.138659
 Sum of Mulliken charges =   0.00000

 Dipole moment (field-independent basis, Debye):
    X=             -0.7019    Y=             -1.3466    Z=              0.2554  Tot=              1.5399
 Quadrupole moment (field-independent basis, Debye-Ang):
   XX=            -12.6873   YY=            -12.6566   ZZ=            -13.7539
   XY=             -2.1003   XZ=              0.2018   YZ=             -0.1509

 Normal termination of Gaussian 09 at Wed Aug 26 14:10:53 2020.
