 Gaussian 09, Revision D.01,
 Gaussian 09:  ES64L-G09RevD.01 24-Apr-2013

 --------------------
 #p B2PLYPD3/Def2QZVP
 --------------------

 --------
 methanol
 --------
 Symbolic Z-matrix:
 Charge =  0 Multiplicity = 1

                         Standard orientation:
 ---------------------------------------------------------------------
 Center     Atomic      Atomic             Coordinates (Angstroms)
 Number     Number       Type             X           Y           Z
 ---------------------------------------------------------------------
      1          6           0       -0.672576   -0.045213    0.015961
      2          8           0        0.738392    0.073732   -0.010859
      3          1           0       -0.989343   -0.506673    0.965416
      4          1           0       -1.083306   -0.589888   -0.943581
      5          1           0       -1.050471    1.186796   -0.043421
      6          1           0        1.251444   -0.408816    0.012694
 ---------------------------------------------------------------------

 SCF Done:  E(RB2PLYPD3) =  -115.403813345     A.U. after   11 cycles
 E2(B2PLYPD3) =    -0.1446355858D+00 E(B2PLYPD3) =    -0.11554844893121D+03

 The electronic state is 1-A.
 Alpha  occ. eigenvalues --  -19.69121 -10.69766  -1.22663  -0.82281  -0.61530
 Alpha  occ. eigenvalues --   -0.52093  -0.48556  -0.37835  -0.36114
 Alpha virt. eigenvalues --    0.05098   0.09053   0.11044   0.11978   0.14400
 Alpha virt. eigenvalues --    0.16458   0.18001   0.28889   0.32222   0.32986
 Alpha virt. eigenvalues --    0.33695   0.37455   0.39819   0.40659   0.42095

 Mulliken charges:
               1
     1  C    0.045426
     2  O   -0.249787
     3  H    0.071508
     4  H    0.059519
     5  H    0.066670
     6  H    0.006663
 Sum of Mulliken charges =   0.00000

 Dipole moment (field-independent basis, Debye):
    X=             -0.6074    Y=             -1.1897    Z=              0.1235  Tot=              1.3415
 Quadrupole moment (field-independent basis, Debye-Ang):
   XX=            -12.4683   YY=            -12.9986   ZZ=            -13.4911
   XY=             -1.6231   XZ=              0.0902   YZ=             -0.0852

 Normal termination of Gaussian 09 at Wed Aug 26 22:51:04 2020.
