 Gaussian 09, Revision D.01,
 Gaussian 09:  ES64L-G09RevD.01 24-Apr-2013

 --------------------
 #p B2PLYPD3/Def2QZVP
 --------------------

 --------
 methanol
 --------
 Symbolic Z-matrix:
 Charge =  0 Multiplicity = 1

                         Standard orientation:
 ---------------------------------------------------------------------
 Center     Atomic      Atomic             Coordinates (Angstroms)
 Number     Number       Type             X           Y           Z
 ---------------------------------------------------------------------
      1          6           0        0.669351    0.027703    0.004512
      2          8           0       -0.750668   -0.143765   -0.006043
      3          1           0        1.016107    0.470797    0.872583
      4          1           0        1.053385    0.602595   -0.811123
      5          1           0        1.120695   -0.945552   -0.058099
      6          1           0       -1.200952    0.856057    0.017912
 ---------------------------------------------------------------------

 SCF Done:  E(RB2PLYPD3) =  -115.534020895     A.U. after   11 cycles
 E2(B2PLYPD3) =    -0.1496593198D+00 E(B2PLYPD3) =    -0.11568368021512D+03

 The electronic state is 1-A.
 Alpha  occ. eigenvalues --  -19.73656 -10.64452  -1.13501  -0.78726  -0.56873
 Alpha  occ. eigenvalues --   -0.51893  -0.49356  -0.40777  -0.35297
 Alpha virt. eigenvalues --    0.03847   0.07709   0.12515   0.12717   0.14915
 Alpha virt. eigenvalues --    0.17459   0.18260   0.28889   0.30312   0.33481
 Alpha virt. eigenvalues --    0.33756   0.38978   0.39677   0.41806   0.43969

 Mulliken charges:
               1
     1  C    0.080539
     2  O   -0.491407
     3  H    0.050209
     4  H    0.044546
     5  H    0.065355
     6  H    0.250758
 Sum of Mulliken charges =   0.00000

 Dipole moment (field-independent basis, Debye):
    X=              0.8956    Y=              1.6363    Z=              0.0674  Tot=              1.8666
 Quadrupole moment (field-independent basis, Debye-Ang):
   XX=            -12.7685   YY=            -12.0641   ZZ=            -13.9260
   XY=             -2.4107   XZ=             -0.0561   YZ=              0.0455

 Normal termination of Gaussian 09 at Thu Aug 27 00:07:11 2020.
