 Gaussian 09, Revision D.01,
 Gaussian 09:  ES64L-G09RevD.01 24-Apr-2013

 --------------------
 #p B2PLYPD3/Def2QZVP
 --------------------

 --------
 methanol
 --------
 Symbolic Z-matrix:
 Charge =  0 Multiplicity = 1

                         Standard orientation:
 ---------------------------------------------------------------------
 Center     Atomic      Atomic             Coordinates (Angstroms)
 Number     Number       Type             X           Y           Z
 ---------------------------------------------------------------------
      1          6           0       -0.657598   -0.005851    0.015956
      2          8           0        0.762535    0.079616   -0.019751
      3          1           0       -1.018683   -0.427995    0.992014
      4          1           0       -0.925140   -0.799780   -0.881275
      5          1           0       -1.200918    1.051766   -0.194743
      6          1           0        0.990051   -0.425817    0.146272
 ---------------------------------------------------------------------

 SCF Done:  E(RB2PLYPD3) =  -115.141441962     A.U. after   11 cycles
 E2(B2PLYPD3) =    -0.1432861099D+00 E(B2PLYPD3) =    -0.11528472807228D+03

 The electronic state is 1-A.
 Alpha  occ. eigenvalues --  -19.68910 -10.69546  -1.30789  -0.82029  -0.62827
 Alpha  occ. eigenvalues --   -0.51437  -0.50554  -0.41968  -0.36083
 Alpha virt. eigenvalues --    0.05087   0.09534   0.11423   0.11603   0.14337
 Alpha virt. eigenvalues --    0.17098   0.17468   0.27960   0.31548   0.32997
 Alpha virt. eigenvalues --    0.34640   0.36531   0.38824   0.40688   0.44290

 Mulliken charges:
               1
     1  C    0.058276
     2  O   -0.146961
     3  H    0.054874
     4  H    0.038845
     5  H    0.080689
     6  H   -0.085723
 Sum of Mulliken charges =   0.00000

 Dipole moment (field-independent basis, Debye):
    X=             -1.1287    Y=             -1.0526    Z=              0.4695  Tot=              1.6132
 Quadrupole moment (field-independent basis, Debye-Ang):
   XX=            -13.3942   YY=            -12.5514   ZZ=            -13.4130
   XY=             -1.8877   XZ=              0.3050   YZ=             -0.3471

 Normal termination of Gaussian 09 at Wed Aug 26 20:48:56 2020.
