 Gaussian 09, Revision D.01,
 Gaussian 09:  ES64L-G09RevD.01 24-Apr-2013

 --------------------
 #p B2PLYPD3/Def2QZVP
 --------------------

 --------
 methanol
 --------
 Symbolic Z-matrix:
 Charge =  0 Multiplicity = 1

                         Standard orientation:
 ---------------------------------------------------------------------
 Center     Atomic      Atomic             Coordinates (Angstroms)
 Number     Number       Type             X           Y           Z
 ---------------------------------------------------------------------
      1          6           0        0.668673    0.030084    0.021843
      2          8           0       -0.736007   -0.150794   -0.011257
      3          1           0        0.991081    0.421732    0.858226
      4          1           0        1.046154    0.572849   -0.844822
      5          1           0        1.015299   -0.907491   -0.084263
      6          1           0       -1.176518    0.938756    0.029852
 ---------------------------------------------------------------------

 SCF Done:  E(RB2PLYPD3) =  -115.505704984     A.U. after   11 cycles
 E2(B2PLYPD3) =    -0.1509042078D+00 E(B2PLYPD3) =    -0.11565660919186D+03

 The electronic state is 1-A.
 Alpha  occ. eigenvalues --  -19.73956 -10.62987  -1.13190  -0.79152  -0.56797
 Alpha  occ. eigenvalues --   -0.52828  -0.49150  -0.40588  -0.35224
 Alpha virt. eigenvalues --    0.02848   0.07834   0.12595   0.12722   0.14929
 Alpha virt. eigenvalues --    0.17093   0.18515   0.27163   0.29496   0.33587
 Alpha virt. eigenvalues --    0.34408   0.38497   0.40156   0.42464   0.44945

 Mulliken charges:
               1
     1  C    0.082933
     2  O   -0.489764
     3  H    0.051148
     4  H    0.040932
     5  H    0.065527
     6  H    0.249223
 Sum of Mulliken charges =   0.00000

 Dipole moment (field-independent basis, Debye):
    X=              0.9423    Y=              1.6162    Z=              0.1349  Tot=              1.8757
 Quadrupole moment (field-independent basis, Debye-Ang):
   XX=            -13.0660   YY=            -11.8611   ZZ=            -13.7396
   XY=             -2.3892   XZ=             -0.0372   YZ=              0.1442

 Normal termination of Gaussian 09 at Wed Aug 26 16:04:25 2020.
