 Gaussian 09, Revision D.01,
 Gaussian 09:  ES64L-G09RevD.01 24-Apr-2013

 --------------------
 #p B2PLYPD3/Def2QZVP
 --------------------

 --------
 methanol
 --------
 Symbolic Z-matrix:
 Charge =  0 Multiplicity = 1

                         Standard orientation:
 ---------------------------------------------------------------------
 Center     Atomic      Atomic             Coordinates (Angstroms)
 Number     Number       Type             X           Y           Z
 ---------------------------------------------------------------------
      1          6           0        0.659796   -0.025763    0.005742
      2          8           0       -0.750899    0.118661   -0.003168
      3          1           0        1.008809   -0.589923   -0.895861
      4          1           0        1.032106   -0.496594    0.919061
      5          1           0        1.147598    0.985778   -0.053947
      6          1           0       -1.140095   -0.693967    0.021637
 ---------------------------------------------------------------------

 SCF Done:  E(RB2PLYPD3) =  -115.548521909     A.U. after   10 cycles
 E2(B2PLYPD3) =    -0.1464334079D+00 E(B2PLYPD3) =    -0.11569495531650D+03

 The electronic state is 1-A.
 Alpha  occ. eigenvalues --  -19.72140 -10.66439  -1.17567  -0.78844  -0.59462
 Alpha  occ. eigenvalues --   -0.51863  -0.49936  -0.40629  -0.35624
 Alpha virt. eigenvalues --    0.05211   0.08338   0.12225   0.12436   0.14603
 Alpha virt. eigenvalues --    0.17514   0.18140   0.29003   0.33205   0.33436
 Alpha virt. eigenvalues --    0.35994   0.38685   0.39636   0.40687   0.43696

 Mulliken charges:
               1
     1  C    0.065734
     2  O   -0.432815
     3  H    0.046721
     4  H    0.052291
     5  H    0.067611
     6  H    0.200459
 Sum of Mulliken charges =   0.00000

 Dipole moment (field-independent basis, Debye):
    X=              0.8555    Y=             -1.4535    Z=              0.0652  Tot=              1.6879
 Quadrupole moment (field-independent basis, Debye-Ang):
   XX=            -12.9248   YY=            -12.4743   ZZ=            -13.7305
   XY=              2.2631   XZ=             -0.0247   YZ=             -0.0563

 Normal termination of Gaussian 09 at Thu Aug 27 00:12:26 2020.
