 Gaussian 09, Revision D.01,
 Gaussian 09:  ES64L-G09RevD.01 24-Apr-2013

 --------------------
 #p B2PLYPD3/Def2QZVP
 --------------------

 --------
 methanol
 --------
 Symbolic Z-matrix:
 Charge =  0 Multiplicity = 1

                         Standard orientation:
 ---------------------------------------------------------------------
 Center     Atomic      Atomic             Coordinates (Angstroms)
 Number     Number       Type             X           Y           Z
 ---------------------------------------------------------------------
      1          6           0        0.691912    0.046206    0.009824
      2          8           0       -0.747340   -0.183447   -0.013830
      3          1           0        0.982922    0.341401    0.823795
      4          1           0        1.010099    0.602084   -0.756315
      5          1           0        1.027261   -0.872780   -0.084708
      6          1           0       -1.193036    1.119635    0.068923
 ---------------------------------------------------------------------

 SCF Done:  E(RB2PLYPD3) =  -115.428841179     A.U. after   12 cycles
 E2(B2PLYPD3) =    -0.1557050616D+00 E(B2PLYPD3) =    -0.11558454624083D+03

 The electronic state is 1-A.
 Alpha  occ. eigenvalues --  -19.75060 -10.61266  -1.10670  -0.80922  -0.55194
 Alpha  occ. eigenvalues --   -0.54714  -0.47411  -0.39747  -0.35673
 Alpha virt. eigenvalues --   -0.00585   0.07576   0.12475   0.12810   0.14617
 Alpha virt. eigenvalues --    0.17060   0.18501   0.22731   0.29210   0.32896
 Alpha virt. eigenvalues --    0.33798   0.39164   0.39650   0.43901   0.45098

 Mulliken charges:
               1
     1  C    0.098078
     2  O   -0.494848
     3  H    0.060199
     4  H    0.048894
     5  H    0.059781
     6  H    0.227896
 Sum of Mulliken charges =   0.00000

 Dipole moment (field-independent basis, Debye):
    X=              1.2678    Y=              1.7039    Z=              0.1559  Tot=              2.1295
 Quadrupole moment (field-independent basis, Debye-Ang):
   XX=            -13.2063   YY=            -11.4067   ZZ=            -13.7511
   XY=             -2.3251   XZ=             -0.0893   YZ=              0.0711

 Normal termination of Gaussian 09 at Wed Aug 26 21:41:16 2020.
