 Gaussian 09, Revision D.01,
 Gaussian 09:  ES64L-G09RevD.01 24-Apr-2013

 --------------------
 #p B2PLYPD3/Def2QZVP
 --------------------

 --------
 methanol
 --------
 Symbolic Z-matrix:
 Charge =  0 Multiplicity = 1

                         Standard orientation:
 ---------------------------------------------------------------------
 Center     Atomic      Atomic             Coordinates (Angstroms)
 Number     Number       Type             X           Y           Z
 ---------------------------------------------------------------------
      1          6           0       -0.651288    0.002762   -0.037620
      2          8           0        0.763794   -0.001033    0.074768
      3          1           0       -0.918604   -0.863647   -0.804662
      4          1           0       -1.081151    1.160652   -0.287468
      5          1           0       -1.290639   -0.340863    1.024510
      6          1           0        1.087767    0.035547   -0.304805
 ---------------------------------------------------------------------

 SCF Done:  E(RB2PLYPD3) =  -114.752666274     A.U. after   12 cycles
 E2(B2PLYPD3) =    -0.1441238731D+00 E(B2PLYPD3) =    -0.11489679014684D+03

 The electronic state is 1-A.
 Alpha  occ. eigenvalues --  -19.69093 -10.71956  -1.33843  -0.84863  -0.62517
 Alpha  occ. eigenvalues --   -0.51806  -0.49904  -0.38664  -0.36906
 Alpha virt. eigenvalues --    0.04554   0.09544   0.10765   0.11293   0.13436
 Alpha virt. eigenvalues --    0.17314   0.17910   0.27598   0.30770   0.32056
 Alpha virt. eigenvalues --    0.32462   0.34649   0.37565   0.40848   0.44276

 Mulliken charges:
               1
     1  C    0.053388
     2  O   -0.031938
     3  H    0.059085
     4  H    0.056995
     5  H    0.070807
     6  H   -0.208336
 Sum of Mulliken charges =   0.00000

 Dipole moment (field-independent basis, Debye):
    X=             -0.9794    Y=              0.0150    Z=             -1.0012  Tot=              1.4006
 Quadrupole moment (field-independent basis, Debye-Ang):
   XX=            -12.7976   YY=            -13.1911   ZZ=            -13.2046
   XY=              0.2006   XZ=             -1.8539   YZ=              0.0399

 Normal termination of Gaussian 09 at Wed Aug 26 23:18:29 2020.
