 Gaussian 09, Revision D.01,
 Gaussian 09:  ES64L-G09RevD.01 24-Apr-2013

 --------------------
 #p B2PLYPD3/Def2QZVP
 --------------------

 --------
 methanol
 --------
 Symbolic Z-matrix:
 Charge =  0 Multiplicity = 1

                         Standard orientation:
 ---------------------------------------------------------------------
 Center     Atomic      Atomic             Coordinates (Angstroms)
 Number     Number       Type             X           Y           Z
 ---------------------------------------------------------------------
      1          6           0        0.671076    0.025975    0.013903
      2          8           0       -0.738327   -0.156645   -0.019555
      3          1           0        1.038837    0.327027    0.873869
      4          1           0        1.032953    0.674646   -0.789491
      5          1           0        1.015229   -0.878009   -0.124879
      6          1           0       -1.206857    0.973649    0.113523
 ---------------------------------------------------------------------

 SCF Done:  E(RB2PLYPD3) =  -115.489246179     A.U. after   11 cycles
 E2(B2PLYPD3) =    -0.1520790163D+00 E(B2PLYPD3) =    -0.11564132519554D+03

 The electronic state is 1-A.
 Alpha  occ. eigenvalues --  -19.74361 -10.62785  -1.12556  -0.79421  -0.56136
 Alpha  occ. eigenvalues --   -0.52418  -0.49209  -0.40488  -0.35173
 Alpha virt. eigenvalues --    0.01973   0.07687   0.12595   0.12843   0.14948
 Alpha virt. eigenvalues --    0.17037   0.18589   0.25691   0.29393   0.33538
 Alpha virt. eigenvalues --    0.34389   0.38293   0.40232   0.42172   0.44765

 Mulliken charges:
               1
     1  C    0.083503
     2  O   -0.491459
     3  H    0.049279
     4  H    0.040945
     5  H    0.068178
     6  H    0.249555
 Sum of Mulliken charges =   0.00000

 Dipole moment (field-independent basis, Debye):
    X=              0.9529    Y=              1.6067    Z=              0.2739  Tot=              1.8880
 Quadrupole moment (field-independent basis, Debye-Ang):
   XX=            -12.9537   YY=            -11.7891   ZZ=            -13.8235
   XY=             -2.4613   XZ=             -0.1541   YZ=              0.1889

 Normal termination of Gaussian 09 at Wed Aug 26 16:30:09 2020.
