 Gaussian 09, Revision D.01,
 Gaussian 09:  ES64L-G09RevD.01 24-Apr-2013

 --------------------
 #p B2PLYPD3/Def2QZVP
 --------------------

 --------
 methanol
 --------
 Symbolic Z-matrix:
 Charge =  0 Multiplicity = 1

                         Standard orientation:
 ---------------------------------------------------------------------
 Center     Atomic      Atomic             Coordinates (Angstroms)
 Number     Number       Type             X           Y           Z
 ---------------------------------------------------------------------
      1          6           0       -0.630970    0.008520    0.011374
      2          8           0        0.750273    0.080434   -0.034191
      3          1           0       -1.004809   -0.417641    1.020322
      4          1           0       -1.212828   -0.684410   -0.875683
      5          1           0       -1.045866    1.016198   -0.070687
      6          1           0        1.047143   -0.608738    0.131332
 ---------------------------------------------------------------------

 SCF Done:  E(RB2PLYPD3) =  -115.483089426     A.U. after   10 cycles
 E2(B2PLYPD3) =    -0.1450538108D+00 E(B2PLYPD3) =    -0.11562814323642D+03

 The electronic state is 1-A.
 Alpha  occ. eigenvalues --  -19.71724 -10.68302  -1.23449  -0.80071  -0.61691
 Alpha  occ. eigenvalues --   -0.51783  -0.50443  -0.41491  -0.35264
 Alpha virt. eigenvalues --    0.05259   0.08573   0.11734   0.12246   0.14924
 Alpha virt. eigenvalues --    0.17225   0.18053   0.28465   0.31805   0.34345
 Alpha virt. eigenvalues --    0.35089   0.37997   0.39974   0.40436   0.43043

 Mulliken charges:
               1
     1  C    0.044790
     2  O   -0.285856
     3  H    0.038822
     4  H    0.024674
     5  H    0.081663
     6  H    0.095907
 Sum of Mulliken charges =   0.00000

 Dipole moment (field-independent basis, Debye):
    X=             -0.7350    Y=             -1.1209    Z=              0.4472  Tot=              1.4130
 Quadrupole moment (field-independent basis, Debye-Ang):
   XX=            -13.2962   YY=            -12.5818   ZZ=            -13.8577
   XY=             -2.0052   XZ=              0.3979   YZ=             -0.2960

 Normal termination of Gaussian 09 at Wed Aug 26 22:19:09 2020.
