 Gaussian 09, Revision D.01,
 Gaussian 09:  ES64L-G09RevD.01 24-Apr-2013

 --------------------
 #p B2PLYPD3/Def2QZVP
 --------------------

 --------
 methanol
 --------
 Symbolic Z-matrix:
 Charge =  0 Multiplicity = 1

                         Standard orientation:
 ---------------------------------------------------------------------
 Center     Atomic      Atomic             Coordinates (Angstroms)
 Number     Number       Type             X           Y           Z
 ---------------------------------------------------------------------
      1          6           0        0.673154    0.011388    0.005526
      2          8           0       -0.754552   -0.138818   -0.009973
      3          1           0        1.057006    0.443082    0.885924
      4          1           0        1.038715    0.629199   -0.834817
      5          1           0        1.072872   -0.909581   -0.069989
      6          1           0       -1.171100    0.879510    0.065509
 ---------------------------------------------------------------------

 SCF Done:  E(RB2PLYPD3) =  -115.529759621     A.U. after   11 cycles
 E2(B2PLYPD3) =    -0.1499028873D+00 E(B2PLYPD3) =    -0.11567966250824D+03

 The electronic state is 1-A.
 Alpha  occ. eigenvalues --  -19.73727 -10.64353  -1.13329  -0.78937  -0.56747
 Alpha  occ. eigenvalues --   -0.51242  -0.49929  -0.41258  -0.35127
 Alpha virt. eigenvalues --    0.03747   0.07755   0.12516   0.12712   0.14865
 Alpha virt. eigenvalues --    0.17378   0.18274   0.28767   0.30247   0.33233
 Alpha virt. eigenvalues --    0.33661   0.38617   0.40532   0.41073   0.43727

 Mulliken charges:
               1
     1  C    0.079631
     2  O   -0.491262
     3  H    0.047316
     4  H    0.040697
     5  H    0.072358
     6  H    0.251259
 Sum of Mulliken charges =   0.00000

 Dipole moment (field-independent basis, Debye):
    X=              0.9549    Y=              1.5736    Z=              0.1628  Tot=              1.8478
 Quadrupole moment (field-independent basis, Debye-Ang):
   XX=            -12.9439   YY=            -11.9578   ZZ=            -13.9172
   XY=             -2.4284   XZ=             -0.0960   YZ=              0.1228

 Normal termination of Gaussian 09 at Wed Aug 26 14:49:21 2020.
