 Gaussian 09, Revision D.01,
 Gaussian 09:  ES64L-G09RevD.01 24-Apr-2013

 --------------------
 #p B2PLYPD3/Def2QZVP
 --------------------

 --------
 methanol
 --------
 Symbolic Z-matrix:
 Charge =  0 Multiplicity = 1

                         Standard orientation:
 ---------------------------------------------------------------------
 Center     Atomic      Atomic             Coordinates (Angstroms)
 Number     Number       Type             X           Y           Z
 ---------------------------------------------------------------------
      1          6           0       -0.686951   -0.008397    0.007783
      2          8           0        0.759247   -0.153374   -0.019057
      3          1           0       -1.145273    0.560939   -0.834285
      4          1           0       -1.011103    0.421088    0.876131
      5          1           0       -0.918220   -0.800619   -0.003171
      6          1           0        1.122322    1.095963    0.067087
 ---------------------------------------------------------------------

 SCF Done:  E(RB2PLYPD3) =  -115.410436561     A.U. after   11 cycles
 E2(B2PLYPD3) =    -0.1545549769D+00 E(B2PLYPD3) =    -0.11556499153838D+03

 The electronic state is 1-A.
 Alpha  occ. eigenvalues --  -19.74949 -10.62066  -1.11430  -0.81156  -0.57069
 Alpha  occ. eigenvalues --   -0.51196  -0.48467  -0.41366  -0.35139
 Alpha virt. eigenvalues --    0.00668   0.07465   0.12458   0.12995   0.14624
 Alpha virt. eigenvalues --    0.17009   0.18570   0.24074   0.29229   0.32811
 Alpha virt. eigenvalues --    0.33588   0.37126   0.40186   0.41887   0.43874

 Mulliken charges:
               1
     1  C   -0.015508
     2  O   -0.495011
     3  H    0.049340
     4  H    0.050050
     5  H    0.166913
     6  H    0.244216
 Sum of Mulliken charges =   0.00000

 Dipole moment (field-independent basis, Debye):
    X=             -1.2109    Y=              1.6021    Z=              0.2097  Tot=              2.0192
 Quadrupole moment (field-independent basis, Debye-Ang):
   XX=            -13.3820   YY=            -11.3297   ZZ=            -13.8582
   XY=              2.2937   XZ=              0.1306   YZ=              0.1225

 Normal termination of Gaussian 09 at Wed Aug 26 18:53:33 2020.
