 Gaussian 09, Revision D.01,
 Gaussian 09:  ES64L-G09RevD.01 24-Apr-2013

 --------------------
 #p B2PLYPD3/Def2QZVP
 --------------------

 --------
 methanol
 --------
 Symbolic Z-matrix:
 Charge =  0 Multiplicity = 1

                         Standard orientation:
 ---------------------------------------------------------------------
 Center     Atomic      Atomic             Coordinates (Angstroms)
 Number     Number       Type             X           Y           Z
 ---------------------------------------------------------------------
      1          6           0       -0.677426   -0.017207    0.002536
      2          8           0        0.765867    0.086548   -0.016496
      3          1           0       -1.082602   -0.327495    1.001733
      4          1           0       -1.004320   -0.828352   -0.781534
      5          1           0       -1.140217    1.061517   -0.230561
      6          1           0        1.164758   -0.494809    0.127111
 ---------------------------------------------------------------------

 SCF Done:  E(RB2PLYPD3) =  -115.439741572     A.U. after   11 cycles
 E2(B2PLYPD3) =    -0.1446452113D+00 E(B2PLYPD3) =    -0.11558438678363D+03

 The electronic state is 1-A.
 Alpha  occ. eigenvalues --  -19.69853 -10.68980  -1.22260  -0.80810  -0.61352
 Alpha  occ. eigenvalues --   -0.50926  -0.49329  -0.40429  -0.36018
 Alpha virt. eigenvalues --    0.05280   0.08893   0.11659   0.11978   0.14476
 Alpha virt. eigenvalues --    0.16966   0.17728   0.28901   0.31385   0.33032
 Alpha virt. eigenvalues --    0.35544   0.37638   0.39254   0.40190   0.42014

 Mulliken charges:
               1
     1  C    0.060745
     2  O   -0.283468
     3  H    0.058118
     4  H    0.050503
     5  H    0.079674
     6  H    0.034427
 Sum of Mulliken charges =   0.00000

 Dipole moment (field-independent basis, Debye):
    X=             -0.9488    Y=             -1.2039    Z=              0.3519  Tot=              1.5727
 Quadrupole moment (field-independent basis, Debye-Ang):
   XX=            -12.7345   YY=            -12.6164   ZZ=            -13.6982
   XY=             -1.9813   XZ=              0.3236   YZ=             -0.1705

 Normal termination of Gaussian 09 at Wed Aug 26 13:25:00 2020.
