 Gaussian 09, Revision D.01,
 Gaussian 09:  ES64L-G09RevD.01 24-Apr-2013

 --------------------
 #p B2PLYPD3/Def2QZVP
 --------------------

 --------
 methanol
 --------
 Symbolic Z-matrix:
 Charge =  0 Multiplicity = 1

                         Standard orientation:
 ---------------------------------------------------------------------
 Center     Atomic      Atomic             Coordinates (Angstroms)
 Number     Number       Type             X           Y           Z
 ---------------------------------------------------------------------
      1          6           0       -0.662553   -0.018957   -0.006265
      2          8           0        0.754358    0.092124   -0.011891
      3          1           0       -1.037237   -0.478746    0.976665
      4          1           0       -0.967404   -0.710570   -0.867914
      5          1           0       -1.186958    1.059124   -0.083285
      6          1           0        1.132054   -0.493052    0.107248
 ---------------------------------------------------------------------

 SCF Done:  E(RB2PLYPD3) =  -115.426272367     A.U. after   11 cycles
 E2(B2PLYPD3) =    -0.1441579887D+00 E(B2PLYPD3) =    -0.11557043035561D+03

 The electronic state is 1-A.
 Alpha  occ. eigenvalues --  -19.69800 -10.68753  -1.23611  -0.81121  -0.61733
 Alpha  occ. eigenvalues --   -0.51578  -0.49840  -0.40271  -0.35939
 Alpha virt. eigenvalues --    0.05297   0.09065   0.11829   0.11942   0.14415
 Alpha virt. eigenvalues --    0.17189   0.17609   0.28858   0.32323   0.33016
 Alpha virt. eigenvalues --    0.35216   0.38493   0.38732   0.40456   0.42721

 Mulliken charges:
               1
     1  C    0.061064
     2  O   -0.261868
     3  H    0.046165
     4  H    0.052986
     5  H    0.076966
     6  H    0.024686
 Sum of Mulliken charges =   0.00000

 Dipole moment (field-independent basis, Debye):
    X=             -0.8877    Y=             -1.2236    Z=              0.2551  Tot=              1.5331
 Quadrupole moment (field-independent basis, Debye-Ang):
   XX=            -12.8592   YY=            -12.6440   ZZ=            -13.6599
   XY=             -2.0256   XZ=              0.2841   YZ=             -0.0857

 Normal termination of Gaussian 09 at Wed Aug 26 15:32:33 2020.
