 Gaussian 09, Revision D.01,
 Gaussian 09:  ES64L-G09RevD.01 24-Apr-2013

 --------------------
 #p B2PLYPD3/Def2QZVP
 --------------------

 --------
 methanol
 --------
 Symbolic Z-matrix:
 Charge =  0 Multiplicity = 1

                         Standard orientation:
 ---------------------------------------------------------------------
 Center     Atomic      Atomic             Coordinates (Angstroms)
 Number     Number       Type             X           Y           Z
 ---------------------------------------------------------------------
      1          6           0        0.691065    0.047484    0.019744
      2          8           0       -0.735874   -0.153369   -0.020252
      3          1           0        0.964415    0.383133    0.816702
      4          1           0        1.041493    0.685949   -0.747562
      5          1           0        1.050718   -0.993291   -0.103023
      6          1           0       -1.316020    0.866256    0.077434
 ---------------------------------------------------------------------

 SCF Done:  E(RB2PLYPD3) =  -115.488861489     A.U. after   11 cycles
 E2(B2PLYPD3) =    -0.1510396001D+00 E(B2PLYPD3) =    -0.11563990108946D+03

 The electronic state is 1-A.
 Alpha  occ. eigenvalues --  -19.73553 -10.63251  -1.11917  -0.79750  -0.56643
 Alpha  occ. eigenvalues --   -0.53152  -0.47937  -0.39980  -0.35243
 Alpha virt. eigenvalues --    0.02977   0.07604   0.12088   0.12991   0.15180
 Alpha virt. eigenvalues --    0.16848   0.18157   0.27559   0.29371   0.33426
 Alpha virt. eigenvalues --    0.33702   0.37553   0.39154   0.42402   0.45058

 Mulliken charges:
               1
     1  C    0.070911
     2  O   -0.509796
     3  H    0.071572
     4  H    0.050021
     5  H    0.068632
     6  H    0.248660
 Sum of Mulliken charges =   0.00000

 Dipole moment (field-independent basis, Debye):
    X=              0.8399    Y=              1.6802    Z=              0.2641  Tot=              1.8969
 Quadrupole moment (field-independent basis, Debye-Ang):
   XX=            -12.4497   YY=            -11.9466   ZZ=            -13.8832
   XY=             -2.3861   XZ=             -0.1360   YZ=              0.1484

 Normal termination of Gaussian 09 at Wed Aug 26 19:28:50 2020.
