 Gaussian 09, Revision D.01,
 Gaussian 09:  ES64L-G09RevD.01 24-Apr-2013

 --------------------
 #p B2PLYPD3/Def2QZVP
 --------------------

 --------
 methanol
 --------
 Symbolic Z-matrix:
 Charge =  0 Multiplicity = 1

                         Standard orientation:
 ---------------------------------------------------------------------
 Center     Atomic      Atomic             Coordinates (Angstroms)
 Number     Number       Type             X           Y           Z
 ---------------------------------------------------------------------
      1          6           0        0.663082    0.067537   -0.002009
      2          8           0       -0.719460   -0.205585   -0.003138
      3          1           0        1.055887    0.452420    0.773772
      4          1           0        1.097089    0.540756   -0.716162
      5          1           0        1.070574   -0.860859   -0.028199
      6          1           0       -1.446359    1.107140    0.007746
 ---------------------------------------------------------------------

 SCF Done:  E(RB2PLYPD3) =  -115.404878759     A.U. after   12 cycles
 E2(B2PLYPD3) =    -0.1576706568D+00 E(B2PLYPD3) =    -0.11556254941620D+03

 The electronic state is 1-A.
 Alpha  occ. eigenvalues --  -19.75932 -10.61311  -1.11816  -0.81090  -0.54623
 Alpha  occ. eigenvalues --   -0.53186  -0.49048  -0.38085  -0.35580
 Alpha virt. eigenvalues --   -0.03182   0.07232   0.12488   0.13406   0.15090
 Alpha virt. eigenvalues --    0.16982   0.18841   0.21082   0.29356   0.34383
 Alpha virt. eigenvalues --    0.35036   0.37948   0.38801   0.44026   0.45424

 Mulliken charges:
               1
     1  C    0.098281
     2  O   -0.464348
     3  H    0.046982
     4  H    0.044183
     5  H    0.054856
     6  H    0.220046
 Sum of Mulliken charges =   0.00000

 Dipole moment (field-independent basis, Debye):
    X=              0.9054    Y=              1.7005    Z=              0.0275  Tot=              1.9267
 Quadrupole moment (field-independent basis, Debye-Ang):
   XX=            -12.0323   YY=            -11.7697   ZZ=            -14.1313
   XY=             -2.5743   XZ=             -0.0251   YZ=             -0.0044

 Normal termination of Gaussian 09 at Wed Aug 26 22:48:52 2020.
