 Gaussian 09, Revision D.01,
 Gaussian 09:  ES64L-G09RevD.01 24-Apr-2013

 --------------------
 #p B2PLYPD3/Def2QZVP
 --------------------

 --------
 methanol
 --------
 Symbolic Z-matrix:
 Charge =  0 Multiplicity = 1

                         Standard orientation:
 ---------------------------------------------------------------------
 Center     Atomic      Atomic             Coordinates (Angstroms)
 Number     Number       Type             X           Y           Z
 ---------------------------------------------------------------------
      1          6           0        0.654970   -0.004879    0.042028
      2          8           0       -0.728182   -0.013929   -0.090840
      3          1           0        0.799427   -0.643864    0.898921
      4          1           0        1.065589    1.160802   -0.008587
      5          1           0        1.056583   -0.561903   -0.878922
      6          1           0       -1.025964    0.185666    0.463139
 ---------------------------------------------------------------------

 SCF Done:  E(RB2PLYPD3) =  -115.348635867     A.U. after   11 cycles
 E2(B2PLYPD3) =    -0.1433469799D+00 E(B2PLYPD3) =    -0.11549198284664D+03

 The electronic state is 1-A.
 Alpha  occ. eigenvalues --  -19.68991 -10.67889  -1.26960  -0.82172  -0.61602
 Alpha  occ. eigenvalues --   -0.53183  -0.50831  -0.40371  -0.35957
 Alpha virt. eigenvalues --    0.05328   0.09484   0.11363   0.12189   0.13700
 Alpha virt. eigenvalues --    0.16960   0.17973   0.28101   0.32221   0.33191
 Alpha virt. eigenvalues --    0.35778   0.37640   0.40400   0.41776   0.44608

 Mulliken charges:
               1
     1  C    0.047109
     2  O   -0.205516
     3  H    0.058654
     4  H    0.043807
     5  H    0.070563
     6  H   -0.014618
 Sum of Mulliken charges =   0.00000

 Dipole moment (field-independent basis, Debye):
    X=              0.8364    Y=              0.2434    Z=              1.1596  Tot=              1.4504
 Quadrupole moment (field-independent basis, Debye-Ang):
   XX=            -13.5333   YY=            -13.0839   ZZ=            -12.7422
   XY=             -0.6515   XZ=             -1.8766   YZ=              0.1209

 Normal termination of Gaussian 09 at Wed Aug 26 21:24:37 2020.
