 Gaussian 09, Revision D.01,
 Gaussian 09:  ES64L-G09RevD.01 24-Apr-2013

 --------------------
 #p B2PLYPD3/Def2QZVP
 --------------------

 --------
 methanol
 --------
 Symbolic Z-matrix:
 Charge =  0 Multiplicity = 1

                         Standard orientation:
 ---------------------------------------------------------------------
 Center     Atomic      Atomic             Coordinates (Angstroms)
 Number     Number       Type             X           Y           Z
 ---------------------------------------------------------------------
      1          6           0        0.664503    0.031566   -0.009938
      2          8           0       -0.740837   -0.169503   -0.007588
      3          1           0        0.975978    0.444304    0.875093
      4          1           0        1.022085    0.612823   -0.757031
      5          1           0        1.156545   -0.867560   -0.034962
      6          1           0       -1.214931    0.977059    0.037233
 ---------------------------------------------------------------------

 SCF Done:  E(RB2PLYPD3) =  -115.494002522     A.U. after   11 cycles
 E2(B2PLYPD3) =    -0.1520765115D+00 E(B2PLYPD3) =    -0.11564607903317D+03

 The electronic state is 1-A.
 Alpha  occ. eigenvalues --  -19.74458 -10.62876  -1.12468  -0.79286  -0.55440
 Alpha  occ. eigenvalues --   -0.52541  -0.49658  -0.40231  -0.35069
 Alpha virt. eigenvalues --    0.01661   0.07573   0.12654   0.12972   0.14721
 Alpha virt. eigenvalues --    0.17765   0.18411   0.25251   0.29596   0.33373
 Alpha virt. eigenvalues --    0.34232   0.39566   0.40380   0.42415   0.43666

 Mulliken charges:
               1
     1  C    0.096489
     2  O   -0.494990
     3  H    0.043045
     4  H    0.042384
     5  H    0.059329
     6  H    0.253743
 Sum of Mulliken charges =   0.00000

 Dipole moment (field-independent basis, Debye):
    X=              0.9460    Y=              1.7185    Z=              0.0733  Tot=              1.9630
 Quadrupole moment (field-independent basis, Debye-Ang):
   XX=            -12.7947   YY=            -11.8118   ZZ=            -13.9408
   XY=             -2.5532   XZ=             -0.1244   YZ=             -0.0145

 Normal termination of Gaussian 09 at Wed Aug 26 14:51:54 2020.
