 Gaussian 09, Revision D.01,
 Gaussian 09:  ES64L-G09RevD.01 24-Apr-2013

 --------------------
 #p B2PLYPD3/Def2QZVP
 --------------------

 --------
 methanol
 --------
 Symbolic Z-matrix:
 Charge =  0 Multiplicity = 1

                         Standard orientation:
 ---------------------------------------------------------------------
 Center     Atomic      Atomic             Coordinates (Angstroms)
 Number     Number       Type             X           Y           Z
 ---------------------------------------------------------------------
      1          6           0        0.675813   -0.033891    0.009064
      2          8           0       -0.780805   -0.027275   -0.053274
      3          1           0        1.109797   -0.340149    1.038244
      4          1           0        1.055800    1.256843   -0.223611
      5          1           0        1.114490   -0.690602   -0.802400
      6          1           0       -1.088529    0.195453    0.359579
 ---------------------------------------------------------------------

 SCF Done:  E(RB2PLYPD3) =  -115.058157522     A.U. after   12 cycles
 E2(B2PLYPD3) =    -0.1442726809D+00 E(B2PLYPD3) =    -0.11520243020238D+03

 The electronic state is 1-A.
 Alpha  occ. eigenvalues --  -19.68916 -10.71196  -1.30246  -0.83032  -0.62597
 Alpha  occ. eigenvalues --   -0.51257  -0.49032  -0.41653  -0.35564
 Alpha virt. eigenvalues --    0.04697   0.09283   0.10354   0.11794   0.14140
 Alpha virt. eigenvalues --    0.16964   0.17617   0.28179   0.29474   0.31345
 Alpha virt. eigenvalues --    0.34203   0.36601   0.37412   0.41158   0.42724

 Mulliken charges:
               1
     1  C    0.049903
     2  O   -0.126000
     3  H    0.063134
     4  H    0.028147
     5  H    0.103166
     6  H   -0.118351
 Sum of Mulliken charges =   0.00000

 Dipole moment (field-independent basis, Debye):
    X=              1.0895    Y=              0.1996    Z=              0.9960  Tot=              1.4896
 Quadrupole moment (field-independent basis, Debye-Ang):
   XX=            -13.0259   YY=            -13.4475   ZZ=            -12.8310
   XY=             -1.3083   XZ=             -1.4353   YZ=              0.4251

 Normal termination of Gaussian 09 at Wed Aug 26 19:29:39 2020.
