 Gaussian 09, Revision D.01,
 Gaussian 09:  ES64L-G09RevD.01 24-Apr-2013

 --------------------
 #p B2PLYPD3/Def2QZVP
 --------------------

 --------
 methanol
 --------
 Symbolic Z-matrix:
 Charge =  0 Multiplicity = 1

                         Standard orientation:
 ---------------------------------------------------------------------
 Center     Atomic      Atomic             Coordinates (Angstroms)
 Number     Number       Type             X           Y           Z
 ---------------------------------------------------------------------
      1          6           0        0.663664   -0.021381    0.012521
      2          8           0       -0.746429    0.107310    0.000953
      3          1           0        0.978575   -0.583320   -0.918103
      4          1           0        1.011958   -0.499428    0.919509
      5          1           0        1.063729    1.023028   -0.077920
      6          1           0       -1.064815   -0.670474   -0.006240
 ---------------------------------------------------------------------

 SCF Done:  E(RB2PLYPD3) =  -115.534471967     A.U. after   10 cycles
 E2(B2PLYPD3) =    -0.1454366761D+00 E(B2PLYPD3) =    -0.11567990864319D+03

 The electronic state is 1-A.
 Alpha  occ. eigenvalues --  -19.71292 -10.66451  -1.19439  -0.79299  -0.60142
 Alpha  occ. eigenvalues --   -0.52399  -0.49822  -0.41295  -0.35703
 Alpha virt. eigenvalues --    0.05314   0.08861   0.12074   0.12213   0.14614
 Alpha virt. eigenvalues --    0.17187   0.17911   0.28954   0.33057   0.33207
 Alpha virt. eigenvalues --    0.37412   0.38474   0.40169   0.41056   0.43567

 Mulliken charges:
               1
     1  C    0.064946
     2  O   -0.389627
     3  H    0.043785
     4  H    0.055794
     5  H    0.069823
     6  H    0.155279
 Sum of Mulliken charges =   0.00000

 Dipole moment (field-independent basis, Debye):
    X=              0.9420    Y=             -1.4068    Z=              0.0200  Tot=              1.6931
 Quadrupole moment (field-independent basis, Debye-Ang):
   XX=            -13.3658   YY=            -12.3065   ZZ=            -13.5763
   XY=              2.0678   XZ=              0.0795   YZ=             -0.0729

 Normal termination of Gaussian 09 at Wed Aug 26 14:29:48 2020.
