 Gaussian 09, Revision D.01,
 Gaussian 09:  ES64L-G09RevD.01 24-Apr-2013

 --------------------
 #p B2PLYPD3/Def2QZVP
 --------------------

 --------
 methanol
 --------
 Symbolic Z-matrix:
 Charge =  0 Multiplicity = 1

                         Standard orientation:
 ---------------------------------------------------------------------
 Center     Atomic      Atomic             Coordinates (Angstroms)
 Number     Number       Type             X           Y           Z
 ---------------------------------------------------------------------
      1          6           0        0.658012    0.057651   -0.021626
      2          8           0       -0.731966   -0.216204    0.017981
      3          1           0        0.948819    0.614193    0.733835
      4          1           0        0.970659    0.451168   -0.653466
      5          1           0        1.248608   -0.842179    0.003835
      6          1           0       -1.260428    1.160540   -0.098302
 ---------------------------------------------------------------------

 SCF Done:  E(RB2PLYPD3) =  -115.346089130     A.U. after   12 cycles
 E2(B2PLYPD3) =    -0.1571102705D+00 E(B2PLYPD3) =    -0.11550319940091D+03

 The electronic state is 1-A.
 Alpha  occ. eigenvalues --  -19.75904 -10.60652  -1.11745  -0.82882  -0.55160
 Alpha  occ. eigenvalues --   -0.53442  -0.48945  -0.38848  -0.35575
 Alpha virt. eigenvalues --   -0.03106   0.07229   0.12519   0.13273   0.14645
 Alpha virt. eigenvalues --    0.18116   0.18522   0.21283   0.29759   0.33268
 Alpha virt. eigenvalues --    0.34643   0.37471   0.39503   0.42396   0.46225

 Mulliken charges:
               1
     1  C    0.006198
     2  O   -0.469343
     3  H    0.045374
     4  H    0.145364
     5  H    0.048361
     6  H    0.224046
 Sum of Mulliken charges =   0.00000

 Dipole moment (field-independent basis, Debye):
    X=              1.0821    Y=              1.9021    Z=             -0.2595  Tot=              2.2037
 Quadrupole moment (field-independent basis, Debye-Ang):
   XX=            -12.7563   YY=            -11.3532   ZZ=            -14.0622
   XY=             -2.4486   XZ=              0.0138   YZ=             -0.1735

 Normal termination of Gaussian 09 at Wed Aug 26 23:24:42 2020.
