 Gaussian 09, Revision D.01,
 Gaussian 09:  ES64L-G09RevD.01 24-Apr-2013

 --------------------
 #p B2PLYPD3/Def2QZVP
 --------------------

 --------
 methanol
 --------
 Symbolic Z-matrix:
 Charge =  0 Multiplicity = 1

                         Standard orientation:
 ---------------------------------------------------------------------
 Center     Atomic      Atomic             Coordinates (Angstroms)
 Number     Number       Type             X           Y           Z
 ---------------------------------------------------------------------
      1          6           0       -0.688532    0.022064   -0.013758
      2          8           0        0.752978   -0.155064    0.001650
      3          1           0       -1.065639    0.463239   -0.798219
      4          1           0       -0.939536    0.614920    0.815984
      5          1           0       -1.061090   -0.922461    0.094546
      6          1           0        1.173635    0.952424   -0.042960
 ---------------------------------------------------------------------

 SCF Done:  E(RB2PLYPD3) =  -115.502545648     A.U. after   11 cycles
 E2(B2PLYPD3) =    -0.1515231321D+00 E(B2PLYPD3) =    -0.11565406877971D+03

 The electronic state is 1-A.
 Alpha  occ. eigenvalues --  -19.73961 -10.63061  -1.11859  -0.79632  -0.56477
 Alpha  occ. eigenvalues --   -0.52418  -0.48491  -0.41224  -0.35118
 Alpha virt. eigenvalues --    0.02704   0.07751   0.12452   0.12784   0.14800
 Alpha virt. eigenvalues --    0.17277   0.18063   0.26929   0.29594   0.32490
 Alpha virt. eigenvalues --    0.34014   0.38935   0.39751   0.42494   0.45057

 Mulliken charges:
               1
     1  C    0.096125
     2  O   -0.503176
     3  H    0.048637
     4  H    0.042144
     5  H    0.068632
     6  H    0.247637
 Sum of Mulliken charges =   0.00000

 Dipole moment (field-independent basis, Debye):
    X=             -1.0915    Y=              1.6903    Z=             -0.1020  Tot=              2.0147
 Quadrupole moment (field-independent basis, Debye-Ang):
   XX=            -13.0625   YY=            -11.6406   ZZ=            -13.9037
   XY=              2.3648   XZ=              0.0652   YZ=             -0.1256

 Normal termination of Gaussian 09 at Wed Aug 26 16:00:18 2020.
