 Gaussian 09, Revision D.01,
 Gaussian 09:  ES64L-G09RevD.01 24-Apr-2013

 --------------------
 #p B2PLYPD3/Def2QZVP
 --------------------

 --------
 methanol
 --------
 Symbolic Z-matrix:
 Charge =  0 Multiplicity = 1

                         Standard orientation:
 ---------------------------------------------------------------------
 Center     Atomic      Atomic             Coordinates (Angstroms)
 Number     Number       Type             X           Y           Z
 ---------------------------------------------------------------------
      1          6           0       -0.640980   -0.052632    0.026015
      2          8           0        0.730724    0.099593   -0.019606
      3          1           0       -0.915269   -0.426840    0.922366
      4          1           0       -1.035099   -0.600462   -0.891669
      5          1           0       -1.072956    1.123835   -0.079445
      6          1           0        1.023417   -0.577478    0.049510
 ---------------------------------------------------------------------

 SCF Done:  E(RB2PLYPD3) =  -115.455495912     A.U. after   10 cycles
 E2(B2PLYPD3) =    -0.1439964751D+00 E(B2PLYPD3) =    -0.11559949238748D+03

 The electronic state is 1-A.
 Alpha  occ. eigenvalues --  -19.70390 -10.66909  -1.24271  -0.80674  -0.62525
 Alpha  occ. eigenvalues --   -0.54212  -0.49505  -0.39974  -0.36421
 Alpha virt. eigenvalues --    0.05258   0.09347   0.11424   0.12089   0.14657
 Alpha virt. eigenvalues --    0.17193   0.18075   0.28502   0.33104   0.33371
 Alpha virt. eigenvalues --    0.35031   0.38758   0.41127   0.42250   0.44542

 Mulliken charges:
               1
     1  C    0.051115
     2  O   -0.268067
     3  H    0.065108
     4  H    0.050584
     5  H    0.045338
     6  H    0.055921
 Sum of Mulliken charges =   0.00000

 Dipole moment (field-independent basis, Debye):
    X=             -0.7970    Y=             -1.4417    Z=              0.2411  Tot=              1.6648
 Quadrupole moment (field-independent basis, Debye-Ang):
   XX=            -13.4898   YY=            -12.5483   ZZ=            -13.3626
   XY=             -1.7232   XZ=              0.1695   YZ=             -0.1582

 Normal termination of Gaussian 09 at Wed Aug 26 21:12:12 2020.
