 Gaussian 09, Revision D.01,
 Gaussian 09:  ES64L-G09RevD.01 24-Apr-2013

 --------------------
 #p B2PLYPD3/Def2QZVP
 --------------------

 --------
 methanol
 --------
 Symbolic Z-matrix:
 Charge =  0 Multiplicity = 1

                         Standard orientation:
 ---------------------------------------------------------------------
 Center     Atomic      Atomic             Coordinates (Angstroms)
 Number     Number       Type             X           Y           Z
 ---------------------------------------------------------------------
      1          6           0        0.650560    0.030838   -0.048040
      2          8           0       -0.714963   -0.169799    0.039123
      3          1           0        1.109506    0.626735    0.816280
      4          1           0        0.844618    0.478185   -0.733231
      5          1           0        1.092309   -0.907091   -0.003304
      6          1           0       -1.230092    0.975533   -0.104491
 ---------------------------------------------------------------------

 SCF Done:  E(RB2PLYPD3) =  -115.432575914     A.U. after   11 cycles
 E2(B2PLYPD3) =    -0.1521442690D+00 E(B2PLYPD3) =    -0.11558472018257D+03

 The electronic state is 1-A.
 Alpha  occ. eigenvalues --  -19.74493 -10.62145  -1.13894  -0.80046  -0.58454
 Alpha  occ. eigenvalues --   -0.51816  -0.49735  -0.40417  -0.34442
 Alpha virt. eigenvalues --    0.01161   0.07608   0.12479   0.12975   0.15271
 Alpha virt. eigenvalues --    0.17503   0.18143   0.24645   0.29578   0.32224
 Alpha virt. eigenvalues --    0.35638   0.38815   0.39404   0.40844   0.46022

 Mulliken charges:
               1
     1  C    0.019577
     2  O   -0.478152
     3  H    0.029564
     4  H    0.111046
     5  H    0.069268
     6  H    0.248698
 Sum of Mulliken charges =   0.00000

 Dipole moment (field-independent basis, Debye):
    X=              0.7536    Y=              1.6655    Z=             -0.4525  Tot=              1.8832
 Quadrupole moment (field-independent basis, Debye-Ang):
   XX=            -12.8967   YY=            -11.6900   ZZ=            -13.9769
   XY=             -2.5519   XZ=              0.1689   YZ=             -0.3815

 Normal termination of Gaussian 09 at Wed Aug 26 19:51:44 2020.
