 Gaussian 09, Revision D.01,
 Gaussian 09:  ES64L-G09RevD.01 24-Apr-2013

 --------------------
 #p B2PLYPD3/Def2QZVP
 --------------------

 --------
 methanol
 --------
 Symbolic Z-matrix:
 Charge =  0 Multiplicity = 1

                         Standard orientation:
 ---------------------------------------------------------------------
 Center     Atomic      Atomic             Coordinates (Angstroms)
 Number     Number       Type             X           Y           Z
 ---------------------------------------------------------------------
      1          6           0       -0.661895   -0.029205    0.002357
      2          8           0        0.750618    0.094901   -0.021995
      3          1           0       -0.965139   -0.437850    0.990962
      4          1           0       -1.043458   -0.692674   -0.851457
      5          1           0       -1.161503    1.067168   -0.080085
      6          1           0        1.136521   -0.520626    0.102400
 ---------------------------------------------------------------------

 SCF Done:  E(RB2PLYPD3) =  -115.462282346     A.U. after   10 cycles
 E2(B2PLYPD3) =    -0.1443701990D+00 E(B2PLYPD3) =    -0.11560665254494D+03

 The electronic state is 1-A.
 Alpha  occ. eigenvalues --  -19.70142 -10.68256  -1.22487  -0.80697  -0.61483
 Alpha  occ. eigenvalues --   -0.51928  -0.49656  -0.40097  -0.36068
 Alpha virt. eigenvalues --    0.05341   0.08987   0.11842   0.12042   0.14439
 Alpha virt. eigenvalues --    0.17144   0.17813   0.28838   0.32863   0.32982
 Alpha virt. eigenvalues --    0.35283   0.38526   0.39909   0.40125   0.42898

 Mulliken charges:
               1
     1  C    0.058265
     2  O   -0.288639
     3  H    0.053691
     4  H    0.054074
     5  H    0.069469
     6  H    0.053140
 Sum of Mulliken charges =   0.00000

 Dipole moment (field-independent basis, Debye):
    X=             -0.8501    Y=             -1.2795    Z=              0.2994  Tot=              1.5651
 Quadrupole moment (field-independent basis, Debye-Ang):
   XX=            -12.8859   YY=            -12.6827   ZZ=            -13.5813
   XY=             -1.9864   XZ=              0.3853   YZ=             -0.1023

 Normal termination of Gaussian 09 at Wed Aug 26 10:46:23 2020.
