 Gaussian 09, Revision D.01,
 Gaussian 09:  ES64L-G09RevD.01 24-Apr-2013

 --------------------
 #p B2PLYPD3/Def2QZVP
 --------------------

 --------
 methanol
 --------
 Symbolic Z-matrix:
 Charge =  0 Multiplicity = 1

                         Standard orientation:
 ---------------------------------------------------------------------
 Center     Atomic      Atomic             Coordinates (Angstroms)
 Number     Number       Type             X           Y           Z
 ---------------------------------------------------------------------
      1          6           0        0.671328   -0.019526   -0.005754
      2          8           0       -0.750845    0.096716    0.001627
      3          1           0        1.013591   -0.598866   -0.885285
      4          1           0        1.012546   -0.509089    0.958771
      5          1           0        1.053405    1.057927   -0.045375
      6          1           0       -1.100746   -0.606549   -0.006601
 ---------------------------------------------------------------------

 SCF Done:  E(RB2PLYPD3) =  -115.507667410     A.U. after   10 cycles
 E2(B2PLYPD3) =    -0.1448130035D+00 E(B2PLYPD3) =    -0.11565248041386D+03

 The electronic state is 1-A.
 Alpha  occ. eigenvalues --  -19.70567 -10.67245  -1.20597  -0.79985  -0.60660
 Alpha  occ. eigenvalues --   -0.51796  -0.49730  -0.41191  -0.35807
 Alpha virt. eigenvalues --    0.05394   0.08965   0.11985   0.12091   0.14659
 Alpha virt. eigenvalues --    0.16943   0.17779   0.28972   0.32649   0.33173
 Alpha virt. eigenvalues --    0.37447   0.38729   0.40036   0.40187   0.42735

 Mulliken charges:
               1
     1  C    0.062200
     2  O   -0.344387
     3  H    0.053598
     4  H    0.050834
     5  H    0.074908
     6  H    0.102847
 Sum of Mulliken charges =   0.00000

 Dipole moment (field-independent basis, Debye):
    X=              0.9295    Y=             -1.3485    Z=             -0.0429  Tot=              1.6384
 Quadrupole moment (field-independent basis, Debye-Ang):
   XX=            -13.1821   YY=            -12.3644   ZZ=            -13.6024
   XY=              2.0066   XZ=             -0.0237   YZ=              0.0439

 Normal termination of Gaussian 09 at Wed Aug 26 21:43:05 2020.
