 Gaussian 09, Revision D.01,
 Gaussian 09:  ES64L-G09RevD.01 24-Apr-2013

 --------------------
 #p B2PLYPD3/Def2QZVP
 --------------------

 --------
 methanol
 --------
 Symbolic Z-matrix:
 Charge =  0 Multiplicity = 1

                         Standard orientation:
 ---------------------------------------------------------------------
 Center     Atomic      Atomic             Coordinates (Angstroms)
 Number     Number       Type             X           Y           Z
 ---------------------------------------------------------------------
      1          6           0       -0.665935   -0.018861   -0.019445
      2          8           0        0.746909    0.098084    0.004359
      3          1           0       -1.027573   -0.594243    0.938226
      4          1           0       -0.933951   -0.560803   -0.934956
      5          1           0       -1.133107    1.038647    0.044662
      6          1           0        1.114976   -0.555110    0.033867
 ---------------------------------------------------------------------

 SCF Done:  E(RB2PLYPD3) =  -115.477303330     A.U. after   10 cycles
 E2(B2PLYPD3) =    -0.1443488098D+00 E(B2PLYPD3) =    -0.11562165213952D+03

 The electronic state is 1-A.
 Alpha  occ. eigenvalues --  -19.70113 -10.67814  -1.21987  -0.80559  -0.61020
 Alpha  occ. eigenvalues --   -0.52212  -0.50011  -0.40526  -0.35738
 Alpha virt. eigenvalues --    0.05382   0.09061   0.11895   0.12082   0.14404
 Alpha virt. eigenvalues --    0.17145   0.17642   0.28857   0.32567   0.32968
 Alpha virt. eigenvalues --    0.36597   0.38257   0.39617   0.40826   0.43091

 Mulliken charges:
               1
     1  C    0.063300
     2  O   -0.305774
     3  H    0.039486
     4  H    0.058355
     5  H    0.077376
     6  H    0.067257
 Sum of Mulliken charges =   0.00000

 Dipole moment (field-independent basis, Debye):
    X=             -0.8818    Y=             -1.2795    Z=             -0.0082  Tot=              1.5540
 Quadrupole moment (field-independent basis, Debye-Ang):
   XX=            -13.0616   YY=            -12.5360   ZZ=            -13.5792
   XY=             -2.1143   XZ=              0.0529   YZ=              0.0813

 Normal termination of Gaussian 09 at Wed Aug 26 12:20:06 2020.
