 Gaussian 09, Revision D.01,
 Gaussian 09:  ES64L-G09RevD.01 24-Apr-2013

 --------------------
 #p B2PLYPD3/Def2QZVP
 --------------------

 --------
 methanol
 --------
 Symbolic Z-matrix:
 Charge =  0 Multiplicity = 1

                         Standard orientation:
 ---------------------------------------------------------------------
 Center     Atomic      Atomic             Coordinates (Angstroms)
 Number     Number       Type             X           Y           Z
 ---------------------------------------------------------------------
      1          6           0        0.629288    0.067728   -0.022062
      2          8           0       -0.708150   -0.209177    0.018554
      3          1           0        0.969783    0.615511    0.769710
      4          1           0        1.057909    0.385896   -0.712105
      5          1           0        1.174964   -0.842822    0.039616
      6          1           0       -1.313190    1.108465   -0.113278
 ---------------------------------------------------------------------

 SCF Done:  E(RB2PLYPD3) =  -115.395420685     A.U. after   11 cycles
 E2(B2PLYPD3) =    -0.1561244089D+00 E(B2PLYPD3) =    -0.11555154509344D+03

 The electronic state is 1-A.
 Alpha  occ. eigenvalues --  -19.75907 -10.61264  -1.13703  -0.81183  -0.55115
 Alpha  occ. eigenvalues --   -0.53756  -0.49946  -0.37833  -0.35423
 Alpha virt. eigenvalues --   -0.02713   0.07232   0.12739   0.13164   0.15027
 Alpha virt. eigenvalues --    0.17730   0.18958   0.21328   0.29422   0.33774
 Alpha virt. eigenvalues --    0.36504   0.37431   0.39684   0.42698   0.46878

 Mulliken charges:
               1
     1  C    0.068729
     2  O   -0.451927
     3  H    0.041018
     4  H    0.072518
     5  H    0.040482
     6  H    0.229180
 Sum of Mulliken charges =   0.00000

 Dipole moment (field-independent basis, Debye):
    X=              0.8442    Y=              1.7765    Z=             -0.2933  Tot=              1.9886
 Quadrupole moment (field-independent basis, Debye-Ang):
   XX=            -12.5277   YY=            -11.7753   ZZ=            -14.0316
   XY=             -2.5340   XZ=             -0.0004   YZ=             -0.1480

 Normal termination of Gaussian 09 at Wed Aug 26 19:01:40 2020.
