 Gaussian 09, Revision D.01,
 Gaussian 09:  ES64L-G09RevD.01 24-Apr-2013

 --------------------
 #p B2PLYPD3/Def2QZVP
 --------------------

 --------
 methanol
 --------
 Symbolic Z-matrix:
 Charge =  0 Multiplicity = 1

                         Standard orientation:
 ---------------------------------------------------------------------
 Center     Atomic      Atomic             Coordinates (Angstroms)
 Number     Number       Type             X           Y           Z
 ---------------------------------------------------------------------
      1          6           0        0.677327    0.023292    0.009085
      2          8           0       -0.735839   -0.150258    0.007517
      3          1           0        1.009788    0.530112    0.884941
      4          1           0        1.126350    0.454922   -0.868558
      5          1           0        0.928485   -0.889677   -0.032570
      6          1           0       -1.241869    0.966954   -0.098455
 ---------------------------------------------------------------------

 SCF Done:  E(RB2PLYPD3) =  -115.487635386     A.U. after   11 cycles
 E2(B2PLYPD3) =    -0.1524293730D+00 E(B2PLYPD3) =    -0.11564006475902D+03

 The electronic state is 1-A.
 Alpha  occ. eigenvalues --  -19.74328 -10.63234  -1.12533  -0.78930  -0.56316
 Alpha  occ. eigenvalues --   -0.52261  -0.48581  -0.40385  -0.35087
 Alpha virt. eigenvalues --    0.02055   0.07619   0.12527   0.12794   0.14961
 Alpha virt. eigenvalues --    0.16592   0.18753   0.25852   0.29265   0.33280
 Alpha virt. eigenvalues --    0.34658   0.37855   0.39489   0.42280   0.43740

 Mulliken charges:
               1
     1  C    0.058467
     2  O   -0.490199
     3  H    0.054441
     4  H    0.046003
     5  H    0.083455
     6  H    0.247832
 Sum of Mulliken charges =   0.00000

 Dipole moment (field-independent basis, Debye):
    X=              0.8907    Y=              1.5651    Z=             -0.1599  Tot=              1.8079
 Quadrupole moment (field-independent basis, Debye-Ang):
   XX=            -12.9103   YY=            -11.8647   ZZ=            -13.8219
   XY=             -2.4325   XZ=              0.1092   YZ=             -0.0402

 Normal termination of Gaussian 09 at Wed Aug 26 20:46:11 2020.
