 Gaussian 09, Revision D.01,
 Gaussian 09:  ES64L-G09RevD.01 24-Apr-2013

 --------------------
 #p B2PLYPD3/Def2QZVP
 --------------------

 --------
 methanol
 --------
 Symbolic Z-matrix:
 Charge =  0 Multiplicity = 1

                         Standard orientation:
 ---------------------------------------------------------------------
 Center     Atomic      Atomic             Coordinates (Angstroms)
 Number     Number       Type             X           Y           Z
 ---------------------------------------------------------------------
      1          6           0        0.657889   -0.019704   -0.004790
      2          8           0       -0.755119    0.109464    0.006052
      3          1           0        1.002417   -0.553880   -0.916814
      4          1           0        1.069165   -0.514104    0.940477
      5          1           0        1.106150    0.995558   -0.035617
      6          1           0       -1.084116   -0.685061   -0.007723
 ---------------------------------------------------------------------

 SCF Done:  E(RB2PLYPD3) =  -115.540100334     A.U. after   10 cycles
 E2(B2PLYPD3) =    -0.1459809580D+00 E(B2PLYPD3) =    -0.11568608129232D+03

 The electronic state is 1-A.
 Alpha  occ. eigenvalues --  -19.71897 -10.66796  -1.18919  -0.78996  -0.59867
 Alpha  occ. eigenvalues --   -0.51672  -0.50124  -0.41158  -0.35755
 Alpha virt. eigenvalues --    0.05292   0.08547   0.12051   0.12388   0.14571
 Alpha virt. eigenvalues --    0.17424   0.18166   0.28844   0.33116   0.33249
 Alpha virt. eigenvalues --    0.36693   0.38776   0.39696   0.40130   0.43603

 Mulliken charges:
               1
     1  C    0.060699
     2  O   -0.401299
     3  H    0.050013
     4  H    0.046936
     5  H    0.070075
     6  H    0.173576
 Sum of Mulliken charges =   0.00000

 Dipole moment (field-independent basis, Debye):
    X=              0.9246    Y=             -1.3928    Z=             -0.0619  Tot=              1.6729
 Quadrupole moment (field-independent basis, Debye-Ang):
   XX=            -13.1822   YY=            -12.4325   ZZ=            -13.6812
   XY=              2.1581   XZ=              0.0405   YZ=              0.0378

 Normal termination of Gaussian 09 at Thu Aug 27 00:02:30 2020.
