 Gaussian 09, Revision D.01,
 Gaussian 09:  ES64L-G09RevD.01 24-Apr-2013

 --------------------
 #p B2PLYPD3/Def2QZVP
 --------------------

 --------
 methanol
 --------
 Symbolic Z-matrix:
 Charge =  0 Multiplicity = 1

                         Standard orientation:
 ---------------------------------------------------------------------
 Center     Atomic      Atomic             Coordinates (Angstroms)
 Number     Number       Type             X           Y           Z
 ---------------------------------------------------------------------
      1          6           0       -0.663997   -0.023523    0.001027
      2          8           0        0.742507    0.111675   -0.003022
      3          1           0       -1.027667   -0.485102    0.919414
      4          1           0       -0.958827   -0.608038   -0.888600
      5          1           0       -1.074939    1.016095   -0.059183
      6          1           0        1.105362   -0.675218    0.046376
 ---------------------------------------------------------------------

 SCF Done:  E(RB2PLYPD3) =  -115.543519636     A.U. after   10 cycles
 E2(B2PLYPD3) =    -0.1456696960D+00 E(B2PLYPD3) =    -0.11568918933185D+03

 The electronic state is 1-A.
 Alpha  occ. eigenvalues --  -19.71476 -10.66146  -1.18520  -0.79247  -0.59924
 Alpha  occ. eigenvalues --   -0.52359  -0.49867  -0.41043  -0.35550
 Alpha virt. eigenvalues --    0.05291   0.08729   0.12221   0.12270   0.14721
 Alpha virt. eigenvalues --    0.17183   0.17888   0.29057   0.32992   0.33656
 Alpha virt. eigenvalues --    0.37445   0.38486   0.40102   0.40926   0.43680

 Mulliken charges:
               1
     1  C    0.067493
     2  O   -0.413548
     3  H    0.050380
     4  H    0.048660
     5  H    0.070103
     6  H    0.176911
 Sum of Mulliken charges =   0.00000

 Dipole moment (field-independent basis, Debye):
    X=             -0.8803    Y=             -1.4325    Z=              0.1019  Tot=              1.6845
 Quadrupole moment (field-independent basis, Debye-Ang):
   XX=            -13.1784   YY=            -12.3105   ZZ=            -13.6339
   XY=             -2.1386   XZ=              0.0452   YZ=             -0.0636

 Normal termination of Gaussian 09 at Thu Aug 27 00:10:44 2020.
