 Gaussian 09, Revision D.01,
 Gaussian 09:  ES64L-G09RevD.01 24-Apr-2013

 --------------------
 #p B2PLYPD3/Def2QZVP
 --------------------

 --------
 methanol
 --------
 Symbolic Z-matrix:
 Charge =  0 Multiplicity = 1

                         Standard orientation:
 ---------------------------------------------------------------------
 Center     Atomic      Atomic             Coordinates (Angstroms)
 Number     Number       Type             X           Y           Z
 ---------------------------------------------------------------------
      1          6           0        0.676497   -0.003599    0.009004
      2          8           0       -0.753222    0.105158   -0.012035
      3          1           0        1.040110   -0.668439   -0.871040
      4          1           0        1.018275   -0.454002    0.952260
      5          1           0        1.044072    0.986201   -0.099555
      6          1           0       -1.135663   -0.683435    0.060589
 ---------------------------------------------------------------------

 SCF Done:  E(RB2PLYPD3) =  -115.543521858     A.U. after   10 cycles
 E2(B2PLYPD3) =    -0.1461648777D+00 E(B2PLYPD3) =    -0.11568968673542D+03

 The electronic state is 1-A.
 Alpha  occ. eigenvalues --  -19.71598 -10.66482  -1.17440  -0.79369  -0.59324
 Alpha  occ. eigenvalues --   -0.51057  -0.50480  -0.41369  -0.35312
 Alpha virt. eigenvalues --    0.05252   0.08525   0.12084   0.12411   0.14726
 Alpha virt. eigenvalues --    0.17052   0.17850   0.29105   0.32711   0.33064
 Alpha virt. eigenvalues --    0.36822   0.38886   0.39943   0.40308   0.43380

 Mulliken charges:
               1
     1  C    0.070072
     2  O   -0.430376
     3  H    0.040553
     4  H    0.051684
     5  H    0.082032
     6  H    0.186035
 Sum of Mulliken charges =   0.00000

 Dipole moment (field-independent basis, Debye):
    X=              0.9155    Y=             -1.3643    Z=              0.1847  Tot=              1.6534
 Quadrupole moment (field-independent basis, Debye-Ang):
   XX=            -13.0723   YY=            -12.2708   ZZ=            -13.7355
   XY=              2.2119   XZ=             -0.1445   YZ=             -0.1548

 Normal termination of Gaussian 09 at Wed Aug 26 23:59:33 2020.
