 Gaussian 09, Revision D.01,
 Gaussian 09:  ES64L-G09RevD.01 24-Apr-2013

 --------------------
 #p B2PLYPD3/Def2QZVP
 --------------------

 --------
 methanol
 --------
 Symbolic Z-matrix:
 Charge =  0 Multiplicity = 1

                         Standard orientation:
 ---------------------------------------------------------------------
 Center     Atomic      Atomic             Coordinates (Angstroms)
 Number     Number       Type             X           Y           Z
 ---------------------------------------------------------------------
      1          6           0       -0.684748   -0.013494    0.016880
      2          8           0        0.752790   -0.157399   -0.023375
      3          1           0       -1.028899    0.666956   -0.797866
      4          1           0       -0.955057    0.382675    0.840275
      5          1           0       -0.986496   -0.801323   -0.071435
      6          1           0        1.056619    1.091853    0.114741
 ---------------------------------------------------------------------

 SCF Done:  E(RB2PLYPD3) =  -115.417929250     A.U. after   12 cycles
 E2(B2PLYPD3) =    -0.1538277964D+00 E(B2PLYPD3) =    -0.11557175704643D+03

 The electronic state is 1-A.
 Alpha  occ. eigenvalues --  -19.74586 -10.61500  -1.11671  -0.81247  -0.58038
 Alpha  occ. eigenvalues --   -0.51870  -0.48641  -0.41387  -0.34873
 Alpha virt. eigenvalues --    0.00755   0.07718   0.12458   0.12836   0.14551
 Alpha virt. eigenvalues --    0.17411   0.18087   0.24392   0.29550   0.32942
 Alpha virt. eigenvalues --    0.33223   0.37422   0.41286   0.42086   0.45317

 Mulliken charges:
               1
     1  C    0.038703
     2  O   -0.497340
     3  H    0.038920
     4  H    0.047567
     5  H    0.129116
     6  H    0.243034
 Sum of Mulliken charges =   0.00000

 Dipole moment (field-independent basis, Debye):
    X=             -1.2855    Y=              1.6246    Z=              0.3123  Tot=              2.0951
 Quadrupole moment (field-independent basis, Debye-Ang):
   XX=            -13.6497   YY=            -11.1849   ZZ=            -13.7998
   XY=              2.2687   XZ=              0.1137   YZ=              0.2646

 Normal termination of Gaussian 09 at Wed Aug 26 22:26:45 2020.
