 Gaussian 09, Revision D.01,
 Gaussian 09:  ES64L-G09RevD.01 24-Apr-2013

 --------------------
 #p B2PLYPD3/Def2QZVP
 --------------------

 --------
 methanol
 --------
 Symbolic Z-matrix:
 Charge =  0 Multiplicity = 1

                         Standard orientation:
 ---------------------------------------------------------------------
 Center     Atomic      Atomic             Coordinates (Angstroms)
 Number     Number       Type             X           Y           Z
 ---------------------------------------------------------------------
      1          6           0       -0.654063   -0.003130    0.018765
      2          8           0        0.703451   -0.175816   -0.033924
      3          1           0       -0.979537    0.711420   -0.825213
      4          1           0       -0.872136    0.454974    0.846175
      5          1           0       -1.099977   -0.744151   -0.009419
      6          1           0        1.248422    1.003070    0.147261
 ---------------------------------------------------------------------

 SCF Done:  E(RB2PLYPD3) =  -115.423928075     A.U. after   11 cycles
 E2(B2PLYPD3) =    -0.1525587288D+00 E(B2PLYPD3) =    -0.11557648680429D+03

 The electronic state is 1-A.
 Alpha  occ. eigenvalues --  -19.74268 -10.61579  -1.13871  -0.80133  -0.57138
 Alpha  occ. eigenvalues --   -0.52243  -0.51441  -0.39627  -0.33793
 Alpha virt. eigenvalues --    0.00027   0.07795   0.12560   0.13158   0.14781
 Alpha virt. eigenvalues --    0.17633   0.18359   0.23790   0.29575   0.32414
 Alpha virt. eigenvalues --    0.35405   0.38321   0.40628   0.42973   0.46001

 Mulliken charges:
               1
     1  C    0.053637
     2  O   -0.478138
     3  H    0.026120
     4  H    0.037236
     5  H    0.103620
     6  H    0.257525
 Sum of Mulliken charges =   0.00000

 Dipole moment (field-independent basis, Debye):
    X=             -0.7053    Y=              1.5906    Z=              0.4579  Tot=              1.7992
 Quadrupole moment (field-independent basis, Debye-Ang):
   XX=            -12.8171   YY=            -11.6852   ZZ=            -13.8963
   XY=              2.8833   XZ=              0.1963   YZ=              0.3122

 Normal termination of Gaussian 09 at Wed Aug 26 19:43:28 2020.
