 Gaussian 09, Revision D.01,
 Gaussian 09:  ES64L-G09RevD.01 24-Apr-2013

 --------------------
 #p B2PLYPD3/Def2QZVP
 --------------------

 --------
 methanol
 --------
 Symbolic Z-matrix:
 Charge =  0 Multiplicity = 1

                         Standard orientation:
 ---------------------------------------------------------------------
 Center     Atomic      Atomic             Coordinates (Angstroms)
 Number     Number       Type             X           Y           Z
 ---------------------------------------------------------------------
      1          6           0        0.661139   -0.021015    0.001964
      2          8           0       -0.752467    0.133221   -0.007542
      3          1           0        1.055126   -0.575221   -0.841502
      4          1           0        1.010393   -0.486931    0.882690
      5          1           0        1.098939    0.959232   -0.022158
      6          1           0       -1.111551   -0.836763    0.029520
 ---------------------------------------------------------------------

 SCF Done:  E(RB2PLYPD3) =  -115.545252368     A.U. after   10 cycles
 E2(B2PLYPD3) =    -0.1486208610D+00 E(B2PLYPD3) =    -0.11569387322936D+03

 The electronic state is 1-A.
 Alpha  occ. eigenvalues --  -19.73377 -10.64833  -1.14949  -0.78596  -0.57791
 Alpha  occ. eigenvalues --   -0.51923  -0.49610  -0.41304  -0.35403
 Alpha virt. eigenvalues --    0.04400   0.07998   0.12459   0.12553   0.14896
 Alpha virt. eigenvalues --    0.17532   0.18215   0.29085   0.31862   0.33474
 Alpha virt. eigenvalues --    0.34136   0.38857   0.40029   0.41353   0.44165

 Mulliken charges:
               1
     1  C    0.074919
     2  O   -0.473000
     3  H    0.044339
     4  H    0.046956
     5  H    0.065320
     6  H    0.241466
 Sum of Mulliken charges =   0.00000

 Dipole moment (field-independent basis, Debye):
    X=              0.9600    Y=             -1.5880    Z=              0.0896  Tot=              1.8578
 Quadrupole moment (field-independent basis, Debye-Ang):
   XX=            -13.1492   YY=            -12.0393   ZZ=            -13.8567
   XY=              2.2611   XZ=             -0.0827   YZ=             -0.0479

 Normal termination of Gaussian 09 at Thu Aug 27 00:11:50 2020.
