 Gaussian 09, Revision D.01,
 Gaussian 09:  ES64L-G09RevD.01 24-Apr-2013

 --------------------
 #p B2PLYPD3/Def2QZVP
 --------------------

 --------
 methanol
 --------
 Symbolic Z-matrix:
 Charge =  0 Multiplicity = 1

                         Standard orientation:
 ---------------------------------------------------------------------
 Center     Atomic      Atomic             Coordinates (Angstroms)
 Number     Number       Type             X           Y           Z
 ---------------------------------------------------------------------
      1          6           0        0.655477    0.030149    0.019501
      2          8           0       -0.725708   -0.177093   -0.026528
      3          1           0        0.872210    0.323588    0.856421
      4          1           0        1.026773    0.601915   -0.787949
      5          1           0        1.050763   -0.804976   -0.065724
      6          1           0       -1.076943    1.115323    0.092469
 ---------------------------------------------------------------------

 SCF Done:  E(RB2PLYPD3) =  -115.425998814     A.U. after   12 cycles
 E2(B2PLYPD3) =    -0.1540065367D+00 E(B2PLYPD3) =    -0.11558000535026D+03

 The electronic state is 1-A.
 Alpha  occ. eigenvalues --  -19.74757 -10.60664  -1.13073  -0.80547  -0.56491
 Alpha  occ. eigenvalues --   -0.54389  -0.49265  -0.39589  -0.35280
 Alpha virt. eigenvalues --   -0.00238   0.07794   0.12483   0.12949   0.14516
 Alpha virt. eigenvalues --    0.17762   0.18545   0.23284   0.29248   0.33113
 Alpha virt. eigenvalues --    0.35082   0.38870   0.41446   0.43164   0.45237

 Mulliken charges:
               1
     1  C    0.083363
     2  O   -0.477619
     3  H    0.054659
     4  H    0.041557
     5  H    0.060345
     6  H    0.237695
 Sum of Mulliken charges =   0.00000

 Dipole moment (field-independent basis, Debye):
    X=              1.1852    Y=              1.6448    Z=              0.2500  Tot=              2.0427
 Quadrupole moment (field-independent basis, Debye-Ang):
   XX=            -13.5672   YY=            -11.4083   ZZ=            -13.5877
   XY=             -2.3354   XZ=             -0.2084   YZ=              0.1537

 Normal termination of Gaussian 09 at Wed Aug 26 20:11:07 2020.
