 Gaussian 09, Revision D.01,
 Gaussian 09:  ES64L-G09RevD.01 24-Apr-2013

 --------------------
 #p B2PLYPD3/Def2QZVP
 --------------------

 --------
 methanol
 --------
 Symbolic Z-matrix:
 Charge =  0 Multiplicity = 1

                         Standard orientation:
 ---------------------------------------------------------------------
 Center     Atomic      Atomic             Coordinates (Angstroms)
 Number     Number       Type             X           Y           Z
 ---------------------------------------------------------------------
      1          6           0        0.682193    0.024392    0.014778
      2          8           0       -0.748168   -0.161042   -0.021875
      3          1           0        0.973128    0.364061    0.842839
      4          1           0        1.050786    0.656738   -0.773744
      5          1           0        1.038740   -0.890030   -0.080749
      6          1           0       -1.170466    1.011217    0.097989
 ---------------------------------------------------------------------

 SCF Done:  E(RB2PLYPD3) =  -115.476510317     A.U. after   11 cycles
 E2(B2PLYPD3) =    -0.1527426060D+00 E(B2PLYPD3) =    -0.11562925292296D+03

 The electronic state is 1-A.
 Alpha  occ. eigenvalues --  -19.74421 -10.62386  -1.11740  -0.79992  -0.56132
 Alpha  occ. eigenvalues --   -0.52739  -0.48503  -0.40812  -0.35277
 Alpha virt. eigenvalues --    0.01655   0.07677   0.12561   0.12772   0.14825
 Alpha virt. eigenvalues --    0.17187   0.18331   0.25189   0.29459   0.33434
 Alpha virt. eigenvalues --    0.33551   0.38763   0.40174   0.42183   0.44990

 Mulliken charges:
               1
     1  C    0.092835
     2  O   -0.499716
     3  H    0.052229
     4  H    0.042991
     5  H    0.066157
     6  H    0.245503
 Sum of Mulliken charges =   0.00000

 Dipole moment (field-independent basis, Debye):
    X=              1.1106    Y=              1.6651    Z=              0.2733  Tot=              2.0201
 Quadrupole moment (field-independent basis, Debye-Ang):
   XX=            -13.1413   YY=            -11.5760   ZZ=            -13.8286
   XY=             -2.3729   XZ=             -0.1524   YZ=              0.1751

 Normal termination of Gaussian 09 at Wed Aug 26 10:56:41 2020.
