 Gaussian 09, Revision D.01,
 Gaussian 09:  ES64L-G09RevD.01 24-Apr-2013

 --------------------
 #p B2PLYPD3/Def2QZVP
 --------------------

 --------
 methanol
 --------
 Symbolic Z-matrix:
 Charge =  0 Multiplicity = 1

                         Standard orientation:
 ---------------------------------------------------------------------
 Center     Atomic      Atomic             Coordinates (Angstroms)
 Number     Number       Type             X           Y           Z
 ---------------------------------------------------------------------
      1          6           0        0.669282   -0.008807   -0.002043
      2          8           0       -0.744893    0.107213   -0.010035
      3          1           0        1.029626   -0.669494   -0.841137
      4          1           0        1.032581   -0.433644    0.955524
      5          1           0        1.016700    0.999021   -0.091537
      6          1           0       -1.135455   -0.700740    0.069686
 ---------------------------------------------------------------------

 SCF Done:  E(RB2PLYPD3) =  -115.548757722     A.U. after   10 cycles
 E2(B2PLYPD3) =    -0.1462908604D+00 E(B2PLYPD3) =    -0.11569504858218D+03

 The electronic state is 1-A.
 Alpha  occ. eigenvalues --  -19.71822 -10.66083  -1.17357  -0.79142  -0.59453
 Alpha  occ. eigenvalues --   -0.51351  -0.50254  -0.41312  -0.35254
 Alpha virt. eigenvalues --    0.05196   0.08523   0.12209   0.12400   0.14909
 Alpha virt. eigenvalues --    0.16933   0.17945   0.29139   0.33141   0.33512
 Alpha virt. eigenvalues --    0.36884   0.38956   0.39857   0.40279   0.43389

 Mulliken charges:
               1
     1  C    0.068042
     2  O   -0.435935
     3  H    0.044728
     4  H    0.046708
     5  H    0.078373
     6  H    0.198083
 Sum of Mulliken charges =   0.00000

 Dipole moment (field-independent basis, Debye):
    X=              0.8517    Y=             -1.4038    Z=              0.1574  Tot=              1.6495
 Quadrupole moment (field-independent basis, Debye-Ang):
   XX=            -13.0919   YY=            -12.2112   ZZ=            -13.7655
   XY=              2.1673   XZ=             -0.1812   YZ=             -0.0929

 Normal termination of Gaussian 09 at Wed Aug 26 23:58:11 2020.
