 Gaussian 09, Revision D.01,
 Gaussian 09:  ES64L-G09RevD.01 24-Apr-2013

 --------------------
 #p B2PLYPD3/Def2QZVP
 --------------------

 --------
 methanol
 --------
 Symbolic Z-matrix:
 Charge =  0 Multiplicity = 1

                         Standard orientation:
 ---------------------------------------------------------------------
 Center     Atomic      Atomic             Coordinates (Angstroms)
 Number     Number       Type             X           Y           Z
 ---------------------------------------------------------------------
      1          6           0        0.663763    0.005440   -0.009776
      2          8           0       -0.720812   -0.167785   -0.014886
      3          1           0        0.947877    0.388952    0.908496
      4          1           0        0.864903    0.723071   -0.770586
      5          1           0        1.136232   -0.761744   -0.084801
      6          1           0       -1.165092    0.959361    0.124633
 ---------------------------------------------------------------------

 SCF Done:  E(RB2PLYPD3) =  -115.473270321     A.U. after   11 cycles
 E2(B2PLYPD3) =    -0.1510204244D+00 E(B2PLYPD3) =    -0.11562429074578D+03

 The electronic state is 1-A.
 Alpha  occ. eigenvalues --  -19.73745 -10.62028  -1.13441  -0.79829  -0.56411
 Alpha  occ. eigenvalues --   -0.52987  -0.51246  -0.40102  -0.34248
 Alpha virt. eigenvalues --    0.01828   0.07963   0.12470   0.13124   0.14566
 Alpha virt. eigenvalues --    0.17554   0.18523   0.25994   0.29606   0.32749
 Alpha virt. eigenvalues --    0.34307   0.39139   0.41535   0.42504   0.45329

 Mulliken charges:
               1
     1  C    0.079000
     2  O   -0.487907
     3  H    0.034767
     4  H    0.036931
     5  H    0.080150
     6  H    0.257058
 Sum of Mulliken charges =   0.00000

 Dipole moment (field-independent basis, Debye):
    X=              0.9082    Y=              1.6226    Z=              0.2314  Tot=              1.8738
 Quadrupole moment (field-independent basis, Debye-Ang):
   XX=            -13.0524   YY=            -11.7129   ZZ=            -13.7913
   XY=             -2.7352   XZ=             -0.2000   YZ=              0.1373

 Normal termination of Gaussian 09 at Wed Aug 26 20:23:15 2020.
