 Gaussian 09, Revision D.01,
 Gaussian 09:  ES64L-G09RevD.01 24-Apr-2013

 --------------------
 #p B2PLYPD3/Def2QZVP
 --------------------

 --------
 methanol
 --------
 Symbolic Z-matrix:
 Charge =  0 Multiplicity = 1

                         Standard orientation:
 ---------------------------------------------------------------------
 Center     Atomic      Atomic             Coordinates (Angstroms)
 Number     Number       Type             X           Y           Z
 ---------------------------------------------------------------------
      1          6           0       -0.704307   -0.018685   -0.005053
      2          8           0        0.756859   -0.040658   -0.047413
      3          1           0       -1.036076    1.163910   -0.276711
      4          1           0       -1.039518   -0.320877    1.070662
      5          1           0       -0.918732   -0.725649   -0.738888
      6          1           0        1.165295    0.319991    0.354562
 ---------------------------------------------------------------------

 SCF Done:  E(RB2PLYPD3) =  -115.370112681     A.U. after   11 cycles
 E2(B2PLYPD3) =    -0.1442451723D+00 E(B2PLYPD3) =    -0.11551435785308D+03

 The electronic state is 1-A.
 Alpha  occ. eigenvalues --  -19.68432 -10.69001  -1.23033  -0.82588  -0.60096
 Alpha  occ. eigenvalues --   -0.51891  -0.49931  -0.40339  -0.35455
 Alpha virt. eigenvalues --    0.05224   0.09181   0.11133   0.12278   0.13910
 Alpha virt. eigenvalues --    0.16338   0.17553   0.28701   0.30327   0.32340
 Alpha virt. eigenvalues --    0.34986   0.37567   0.40362   0.41537   0.42646

 Mulliken charges:
               1
     1  C    0.058100
     2  O   -0.253164
     3  H    0.045853
     4  H    0.058306
     5  H    0.107305
     6  H   -0.016400
 Sum of Mulliken charges =   0.00000

 Dipole moment (field-independent basis, Debye):
    X=             -0.9776    Y=              0.6243    Z=              0.8432  Tot=              1.4340
 Quadrupole moment (field-independent basis, Debye-Ang):
   XX=            -13.0269   YY=            -12.9802   ZZ=            -12.9288
   XY=              1.3820   XZ=              1.3250   YZ=              0.4957

 Normal termination of Gaussian 09 at Wed Aug 26 23:08:20 2020.
