 Gaussian 09, Revision D.01,
 Gaussian 09:  ES64L-G09RevD.01 24-Apr-2013

 --------------------
 #p B2PLYPD3/Def2QZVP
 --------------------

 --------
 methanol
 --------
 Symbolic Z-matrix:
 Charge =  0 Multiplicity = 1

                         Standard orientation:
 ---------------------------------------------------------------------
 Center     Atomic      Atomic             Coordinates (Angstroms)
 Number     Number       Type             X           Y           Z
 ---------------------------------------------------------------------
      1          6           0        0.665579    0.022068    0.007948
      2          8           0       -0.732171   -0.161675   -0.006545
      3          1           0        1.023231    0.381707    0.901476
      4          1           0        1.072214    0.569912   -0.810278
      5          1           0        0.955588   -0.834546   -0.105671
      6          1           0       -1.187137    1.043922    0.019141
 ---------------------------------------------------------------------

 SCF Done:  E(RB2PLYPD3) =  -115.461569993     A.U. after   11 cycles
 E2(B2PLYPD3) =    -0.1532284436D+00 E(B2PLYPD3) =    -0.11561479843633D+03

 The electronic state is 1-A.
 Alpha  occ. eigenvalues --  -19.74711 -10.62059  -1.12776  -0.79701  -0.56220
 Alpha  occ. eigenvalues --   -0.52654  -0.49240  -0.40281  -0.35165
 Alpha virt. eigenvalues --    0.00947   0.07674   0.12619   0.12979   0.14927
 Alpha virt. eigenvalues --    0.16918   0.18751   0.24327   0.29317   0.33647
 Alpha virt. eigenvalues --    0.34940   0.37892   0.40613   0.42790   0.43898

 Mulliken charges:
               1
     1  C    0.059686
     2  O   -0.483432
     3  H    0.049629
     4  H    0.041705
     5  H    0.087552
     6  H    0.244860
 Sum of Mulliken charges =   0.00000

 Dipole moment (field-independent basis, Debye):
    X=              0.9917    Y=              1.5989    Z=              0.0431  Tot=              1.8820
 Quadrupole moment (field-independent basis, Debye-Ang):
   XX=            -13.1198   YY=            -11.6435   ZZ=            -13.7759
   XY=             -2.4319   XZ=             -0.0798   YZ=              0.0750

 Normal termination of Gaussian 09 at Wed Aug 26 23:05:08 2020.
