 Gaussian 09, Revision D.01,
 Gaussian 09:  ES64L-G09RevD.01 24-Apr-2013

 --------------------
 #p B2PLYPD3/Def2QZVP
 --------------------

 --------
 methanol
 --------
 Symbolic Z-matrix:
 Charge =  0 Multiplicity = 1

                         Standard orientation:
 ---------------------------------------------------------------------
 Center     Atomic      Atomic             Coordinates (Angstroms)
 Number     Number       Type             X           Y           Z
 ---------------------------------------------------------------------
      1          6           0       -0.669826   -0.013354    0.009898
      2          8           0        0.757973    0.106113   -0.020182
      3          1           0       -1.024170   -0.397700    0.961424
      4          1           0       -1.078461   -0.694954   -0.841104
      5          1           0       -1.082238    1.000387   -0.117236
      6          1           0        1.140040   -0.676510    0.098983
 ---------------------------------------------------------------------

 SCF Done:  E(RB2PLYPD3) =  -115.543464327     A.U. after   10 cycles
 E2(B2PLYPD3) =    -0.1463330455D+00 E(B2PLYPD3) =    -0.11568979737272D+03

 The electronic state is 1-A.
 Alpha  occ. eigenvalues --  -19.71892 -10.66782  -1.17638  -0.79124  -0.59560
 Alpha  occ. eigenvalues --   -0.51062  -0.49950  -0.41181  -0.35588
 Alpha virt. eigenvalues --    0.05267   0.08387   0.12111   0.12351   0.14753
 Alpha virt. eigenvalues --    0.17165   0.18078   0.29013   0.32805   0.33183
 Alpha virt. eigenvalues --    0.36672   0.38740   0.39176   0.40369   0.43196

 Mulliken charges:
               1
     1  C    0.065805
     2  O   -0.425007
     3  H    0.054318
     4  H    0.042917
     5  H    0.075439
     6  H    0.186527
 Sum of Mulliken charges =   0.00000

 Dipole moment (field-independent basis, Debye):
    X=             -0.9011    Y=             -1.3737    Z=              0.2910  Tot=              1.6685
 Quadrupole moment (field-independent basis, Debye-Ang):
   XX=            -12.9709   YY=            -12.3999   ZZ=            -13.7515
   XY=             -2.1788   XZ=              0.2636   YZ=             -0.1858

 Normal termination of Gaussian 09 at Thu Aug 27 00:12:13 2020.
