 Gaussian 09, Revision D.01,
 Gaussian 09:  ES64L-G09RevD.01 24-Apr-2013

 --------------------
 #p B2PLYPD3/Def2QZVP
 --------------------

 --------
 methanol
 --------
 Symbolic Z-matrix:
 Charge =  0 Multiplicity = 1

                         Standard orientation:
 ---------------------------------------------------------------------
 Center     Atomic      Atomic             Coordinates (Angstroms)
 Number     Number       Type             X           Y           Z
 ---------------------------------------------------------------------
      1          6           0        0.664251   -0.007181   -0.007625
      2          8           0       -0.746058    0.095434   -0.015226
      3          1           0        1.064174   -0.684479   -0.862533
      4          1           0        1.022748   -0.412749    1.044199
      5          1           0        1.081363    0.968566   -0.100269
      6          1           0       -1.185331   -0.591725    0.086156
 ---------------------------------------------------------------------

 SCF Done:  E(RB2PLYPD3) =  -115.520930110     A.U. after   10 cycles
 E2(B2PLYPD3) =    -0.1453070630D+00 E(B2PLYPD3) =    -0.11566623717344D+03

 The electronic state is 1-A.
 Alpha  occ. eigenvalues --  -19.71105 -10.67512  -1.19419  -0.80170  -0.60178
 Alpha  occ. eigenvalues --   -0.51398  -0.50711  -0.40245  -0.35321
 Alpha virt. eigenvalues --    0.05385   0.08599   0.11855   0.12603   0.14457
 Alpha virt. eigenvalues --    0.17069   0.18104   0.28907   0.32704   0.33199
 Alpha virt. eigenvalues --    0.36424   0.38798   0.39244   0.40905   0.43017

 Mulliken charges:
               1
     1  C    0.061223
     2  O   -0.378160
     3  H    0.047147
     4  H    0.038951
     5  H    0.085371
     6  H    0.145469
 Sum of Mulliken charges =   0.00000

 Dipole moment (field-independent basis, Debye):
    X=              0.7402    Y=             -1.2099    Z=              0.1585  Tot=              1.4272
 Quadrupole moment (field-independent basis, Debye-Ang):
   XX=            -12.7258   YY=            -12.6606   ZZ=            -13.7047
   XY=              2.2466   XZ=             -0.3858   YZ=             -0.0655

 Normal termination of Gaussian 09 at Wed Aug 26 14:59:30 2020.
