 Gaussian 09, Revision D.01,
 Gaussian 09:  ES64L-G09RevD.01 24-Apr-2013

 --------------------
 #p B2PLYPD3/Def2QZVP
 --------------------

 --------
 methanol
 --------
 Symbolic Z-matrix:
 Charge =  0 Multiplicity = 1

                         Standard orientation:
 ---------------------------------------------------------------------
 Center     Atomic      Atomic             Coordinates (Angstroms)
 Number     Number       Type             X           Y           Z
 ---------------------------------------------------------------------
      1          6           0        0.683226    0.020524   -0.003283
      2          8           0       -0.732499   -0.191605    0.010948
      3          1           0        1.117798    0.460577    0.810826
      4          1           0        0.955483    0.523833   -0.792285
      5          1           0        0.934956   -0.775095   -0.082263
      6          1           0       -1.247603    1.200384   -0.004165
 ---------------------------------------------------------------------

 SCF Done:  E(RB2PLYPD3) =  -115.367090488     A.U. after   11 cycles
 E2(B2PLYPD3) =    -0.1577495980D+00 E(B2PLYPD3) =    -0.11552484008636D+03

 The electronic state is 1-A.
 Alpha  occ. eigenvalues --  -19.75565 -10.60423  -1.11474  -0.81496  -0.57178
 Alpha  occ. eigenvalues --   -0.52965  -0.48199  -0.39299  -0.35314
 Alpha virt. eigenvalues --   -0.02769   0.07497   0.12873   0.12916   0.14627
 Alpha virt. eigenvalues --    0.16887   0.18547   0.21527   0.29328   0.33042
 Alpha virt. eigenvalues --    0.34333   0.37882   0.40916   0.42779   0.44868

 Mulliken charges:
               1
     1  C    0.014393
     2  O   -0.477257
     3  H    0.049411
     4  H    0.044759
     5  H    0.151366
     6  H    0.217328
 Sum of Mulliken charges =   0.00000

 Dipole moment (field-independent basis, Debye):
    X=              1.1941    Y=              1.6571    Z=             -0.0886  Tot=              2.0444
 Quadrupole moment (field-independent basis, Debye-Ang):
   XX=            -13.0504   YY=            -11.2155   ZZ=            -13.8702
   XY=             -2.4091   XZ=              0.0671   YZ=              0.0048

 Normal termination of Gaussian 09 at Wed Aug 26 20:47:07 2020.
