 Gaussian 09, Revision D.01,
 Gaussian 09:  ES64L-G09RevD.01 24-Apr-2013

 --------------------
 #p B2PLYPD3/Def2QZVP
 --------------------

 --------
 methanol
 --------
 Symbolic Z-matrix:
 Charge =  0 Multiplicity = 1

                         Standard orientation:
 ---------------------------------------------------------------------
 Center     Atomic      Atomic             Coordinates (Angstroms)
 Number     Number       Type             X           Y           Z
 ---------------------------------------------------------------------
      1          6           0       -0.674878   -0.033226   -0.000265
      2          8           0        0.751739    0.097443   -0.005989
      3          1           0       -0.895175   -0.550646    0.986484
      4          1           0       -1.039311   -0.539374   -0.938847
      5          1           0       -1.130661    1.046597    0.026798
      6          1           0        1.100504   -0.536767   -0.024932
 ---------------------------------------------------------------------

 SCF Done:  E(RB2PLYPD3) =  -115.450570461     A.U. after   11 cycles
 E2(B2PLYPD3) =    -0.1442499085D+00 E(B2PLYPD3) =    -0.11559482036972D+03

 The electronic state is 1-A.
 Alpha  occ. eigenvalues --  -19.69652 -10.68011  -1.22667  -0.80677  -0.60737
 Alpha  occ. eigenvalues --   -0.52535  -0.49699  -0.40393  -0.36082
 Alpha virt. eigenvalues --    0.05385   0.09139   0.11780   0.12045   0.13979
 Alpha virt. eigenvalues --    0.17119   0.17822   0.28698   0.31851   0.33216
 Alpha virt. eigenvalues --    0.36190   0.38521   0.39570   0.40469   0.43430

 Mulliken charges:
               1
     1  C    0.058008
     2  O   -0.284618
     3  H    0.057226
     4  H    0.058480
     5  H    0.072372
     6  H    0.038531
 Sum of Mulliken charges =   0.00000

 Dipole moment (field-independent basis, Debye):
    X=             -0.9686    Y=             -1.2788    Z=             -0.0414  Tot=              1.6047
 Quadrupole moment (field-independent basis, Debye-Ang):
   XX=            -13.1391   YY=            -12.6444   ZZ=            -13.3661
   XY=             -2.0668   XZ=              0.1092   YZ=              0.0528

 Normal termination of Gaussian 09 at Wed Aug 26 12:35:22 2020.
