 Gaussian 09, Revision D.01,
 Gaussian 09:  ES64L-G09RevD.01 24-Apr-2013

 --------------------
 #p B2PLYPD3/Def2QZVP
 --------------------

 --------
 methanol
 --------
 Symbolic Z-matrix:
 Charge =  0 Multiplicity = 1

                         Standard orientation:
 ---------------------------------------------------------------------
 Center     Atomic      Atomic             Coordinates (Angstroms)
 Number     Number       Type             X           Y           Z
 ---------------------------------------------------------------------
      1          6           0       -0.674544   -0.040601    0.013943
      2          8           0        0.751960    0.084964   -0.015068
      3          1           0       -0.951548   -0.436916    0.990094
      4          1           0       -1.042200   -0.638122   -0.899433
      5          1           0       -1.090478    1.119146   -0.096004
      6          1           0        1.115811   -0.480215    0.042227
 ---------------------------------------------------------------------

 SCF Done:  E(RB2PLYPD3) =  -115.377726844     A.U. after   11 cycles
 E2(B2PLYPD3) =    -0.1438331585D+00 E(B2PLYPD3) =    -0.11552156000285D+03

 The electronic state is 1-A.
 Alpha  occ. eigenvalues --  -19.69059 -10.68579  -1.24610  -0.81667  -0.61582
 Alpha  occ. eigenvalues --   -0.52701  -0.48950  -0.39929  -0.36537
 Alpha virt. eigenvalues --    0.05272   0.09334   0.11474   0.11893   0.14237
 Alpha virt. eigenvalues --    0.16807   0.17855   0.28699   0.31965   0.33176
 Alpha virt. eigenvalues --    0.34648   0.38195   0.40485   0.40829   0.42590

 Mulliken charges:
               1
     1  C    0.053189
     2  O   -0.237033
     3  H    0.067498
     4  H    0.059028
     5  H    0.067418
     6  H   -0.010099
 Sum of Mulliken charges =   0.00000

 Dipole moment (field-independent basis, Debye):
    X=             -0.9325    Y=             -1.2676    Z=              0.1798  Tot=              1.5839
 Quadrupole moment (field-independent basis, Debye-Ang):
   XX=            -13.0504   YY=            -12.6752   ZZ=            -13.3314
   XY=             -1.8253   XZ=              0.2124   YZ=             -0.0840

 Normal termination of Gaussian 09 at Wed Aug 26 15:09:33 2020.
