 Gaussian 09, Revision D.01,
 Gaussian 09:  ES64L-G09RevD.01 24-Apr-2013

 --------------------
 #p B2PLYPD3/Def2QZVP
 --------------------

 --------
 methanol
 --------
 Symbolic Z-matrix:
 Charge =  0 Multiplicity = 1

                         Standard orientation:
 ---------------------------------------------------------------------
 Center     Atomic      Atomic             Coordinates (Angstroms)
 Number     Number       Type             X           Y           Z
 ---------------------------------------------------------------------
      1          6           0        0.657533    0.036956   -0.000105
      2          8           0       -0.737759   -0.177282   -0.002599
      3          1           0        1.070434    0.397423    0.777602
      4          1           0        1.121314    0.578382   -0.682709
      5          1           0        0.941585   -0.947304   -0.079415
      6          1           0       -1.176459    1.168016    0.005939
 ---------------------------------------------------------------------

 SCF Done:  E(RB2PLYPD3) =  -115.426487833     A.U. after   11 cycles
 E2(B2PLYPD3) =    -0.1565831258D+00 E(B2PLYPD3) =    -0.11558307095899D+03

 The electronic state is 1-A.
 Alpha  occ. eigenvalues --  -19.75973 -10.61809  -1.12456  -0.80491  -0.56436
 Alpha  occ. eigenvalues --   -0.52406  -0.48524  -0.39260  -0.35536
 Alpha virt. eigenvalues --   -0.01604   0.07427   0.12024   0.13371   0.15333
 Alpha virt. eigenvalues --    0.16833   0.18550   0.21955   0.29473   0.33979
 Alpha virt. eigenvalues --    0.34445   0.38194   0.38447   0.43316   0.46082

 Mulliken charges:
               1
     1  C    0.092650
     2  O   -0.454477
     3  H    0.044922
     4  H    0.037767
     5  H    0.057375
     6  H    0.221764
 Sum of Mulliken charges =   0.00000

 Dipole moment (field-independent basis, Debye):
    X=              1.1287    Y=              1.7527    Z=              0.0436  Tot=              2.0851
 Quadrupole moment (field-independent basis, Debye-Ang):
   XX=            -13.2477   YY=            -11.2045   ZZ=            -14.2121
   XY=             -1.9997   XZ=              0.0217   YZ=              0.0218

 Normal termination of Gaussian 09 at Wed Aug 26 19:01:26 2020.
