 Gaussian 09, Revision D.01,
 Gaussian 09:  ES64L-G09RevD.01 24-Apr-2013

 --------------------
 #p B2PLYPD3/Def2QZVP
 --------------------

 --------
 methanol
 --------
 Symbolic Z-matrix:
 Charge =  0 Multiplicity = 1

                         Standard orientation:
 ---------------------------------------------------------------------
 Center     Atomic      Atomic             Coordinates (Angstroms)
 Number     Number       Type             X           Y           Z
 ---------------------------------------------------------------------
      1          6           0       -0.645186    0.003385    0.004755
      2          8           0        0.743807   -0.179904   -0.024377
      3          1           0       -1.060388    0.635898   -0.775629
      4          1           0       -0.986973    0.333043    0.841849
      5          1           0       -1.098064   -0.742507   -0.030030
      6          1           0        1.066087    1.192488    0.130292
 ---------------------------------------------------------------------

 SCF Done:  E(RB2PLYPD3) =  -115.397473681     A.U. after   12 cycles
 E2(B2PLYPD3) =    -0.1560313920D+00 E(B2PLYPD3) =    -0.11555350507297D+03

 The electronic state is 1-A.
 Alpha  occ. eigenvalues --  -19.75718 -10.61066  -1.12649  -0.81699  -0.55108
 Alpha  occ. eigenvalues --   -0.52648  -0.50236  -0.39466  -0.35206
 Alpha virt. eigenvalues --   -0.02041   0.07439   0.12566   0.13065   0.14606
 Alpha virt. eigenvalues --    0.18087   0.18851   0.22339   0.29490   0.33240
 Alpha virt. eigenvalues --    0.34797   0.37900   0.40818   0.42561   0.44671

 Mulliken charges:
               1
     1  C    0.070421
     2  O   -0.470021
     3  H    0.033239
     4  H    0.036797
     5  H    0.087513
     6  H    0.242051
 Sum of Mulliken charges =   0.00000

 Dipole moment (field-independent basis, Debye):
    X=             -1.2091    Y=              1.6544    Z=              0.3187  Tot=              2.0738
 Quadrupole moment (field-independent basis, Debye-Ang):
   XX=            -13.4682   YY=            -11.2360   ZZ=            -13.9015
   XY=              2.3928   XZ=              0.1161   YZ=              0.1825

 Normal termination of Gaussian 09 at Wed Aug 26 23:21:06 2020.
