 Gaussian 09, Revision D.01,
 Gaussian 09:  ES64L-G09RevD.01 24-Apr-2013

 --------------------
 #p B2PLYPD3/Def2QZVP
 --------------------

 --------
 methanol
 --------
 Symbolic Z-matrix:
 Charge =  0 Multiplicity = 1

                         Standard orientation:
 ---------------------------------------------------------------------
 Center     Atomic      Atomic             Coordinates (Angstroms)
 Number     Number       Type             X           Y           Z
 ---------------------------------------------------------------------
      1          6           0       -0.656723   -0.006638   -0.023646
      2          8           0        0.743933   -0.177014   -0.007081
      3          1           0       -1.161365    0.526650   -0.776231
      4          1           0       -1.119964    0.523847    0.810156
      5          1           0       -0.969847   -0.779629    0.112803
      6          1           0        1.240046    1.185066    0.051794
 ---------------------------------------------------------------------

 SCF Done:  E(RB2PLYPD3) =  -115.383761037     A.U. after   12 cycles
 E2(B2PLYPD3) =    -0.1574803023D+00 E(B2PLYPD3) =    -0.11554124133916D+03

 The electronic state is 1-A.
 Alpha  occ. eigenvalues --  -19.76150 -10.62080  -1.12316  -0.80964  -0.56718
 Alpha  occ. eigenvalues --   -0.50524  -0.49273  -0.39869  -0.34613
 Alpha virt. eigenvalues --   -0.02590   0.07169   0.12665   0.13112   0.14998
 Alpha virt. eigenvalues --    0.17326   0.18707   0.21520   0.29648   0.33435
 Alpha virt. eigenvalues --    0.34794   0.36472   0.39697   0.41318   0.43546

 Mulliken charges:
               1
     1  C    0.013035
     2  O   -0.465147
     3  H    0.050410
     4  H    0.027025
     5  H    0.136068
     6  H    0.238610
 Sum of Mulliken charges =   0.00000

 Dipole moment (field-independent basis, Debye):
    X=             -0.9851    Y=              1.6728    Z=              0.0925  Tot=              1.9435
 Quadrupole moment (field-independent basis, Debye-Ang):
   XX=            -12.8737   YY=            -11.2631   ZZ=            -14.3376
   XY=              2.4759   XZ=              0.1012   YZ=             -0.0970

 Normal termination of Gaussian 09 at Wed Aug 26 23:51:30 2020.
