 Gaussian 09, Revision D.01,
 Gaussian 09:  ES64L-G09RevD.01 24-Apr-2013

 --------------------
 #p B2PLYPD3/Def2QZVP
 --------------------

 --------
 methanol
 --------
 Symbolic Z-matrix:
 Charge =  0 Multiplicity = 1

                         Standard orientation:
 ---------------------------------------------------------------------
 Center     Atomic      Atomic             Coordinates (Angstroms)
 Number     Number       Type             X           Y           Z
 ---------------------------------------------------------------------
      1          6           0        0.657576   -0.031730    0.008505
      2          8           0       -0.756274    0.135348   -0.008431
      3          1           0        1.054063   -0.589254   -0.832125
      4          1           0        1.048226   -0.457555    0.856594
      5          1           0        1.113682    0.996164   -0.051378
      6          1           0       -1.111232   -0.841759    0.043321
 ---------------------------------------------------------------------

 SCF Done:  E(RB2PLYPD3) =  -115.540550690     A.U. after   10 cycles
 E2(B2PLYPD3) =    -0.1489965414D+00 E(B2PLYPD3) =    -0.11568954723159D+03

 The electronic state is 1-A.
 Alpha  occ. eigenvalues --  -19.73675 -10.65091  -1.14949  -0.78515  -0.57874
 Alpha  occ. eigenvalues --   -0.52076  -0.49017  -0.41020  -0.35659
 Alpha virt. eigenvalues --    0.04328   0.07874   0.12252   0.12604   0.14974
 Alpha virt. eigenvalues --    0.17543   0.18349   0.28956   0.31513   0.33665
 Alpha virt. eigenvalues --    0.34229   0.37581   0.39819   0.41747   0.44577

 Mulliken charges:
               1
     1  C    0.072730
     2  O   -0.468989
     3  H    0.045486
     4  H    0.052165
     5  H    0.056628
     6  H    0.241980
 Sum of Mulliken charges =   0.00000

 Dipole moment (field-independent basis, Debye):
    X=              0.9497    Y=             -1.6439    Z=              0.1360  Tot=              1.9034
 Quadrupole moment (field-independent basis, Debye-Ang):
   XX=            -13.1367   YY=            -12.0772   ZZ=            -13.9075
   XY=              2.1739   XZ=             -0.0510   YZ=             -0.0904

 Normal termination of Gaussian 09 at Wed Aug 26 14:03:15 2020.
