 Gaussian 09, Revision D.01,
 Gaussian 09:  ES64L-G09RevD.01 24-Apr-2013

 --------------------
 #p B2PLYPD3/Def2QZVP
 --------------------

 --------
 methanol
 --------
 Symbolic Z-matrix:
 Charge =  0 Multiplicity = 1

                         Standard orientation:
 ---------------------------------------------------------------------
 Center     Atomic      Atomic             Coordinates (Angstroms)
 Number     Number       Type             X           Y           Z
 ---------------------------------------------------------------------
      1          6           0       -0.672783    0.015191    0.002985
      2          8           0        0.750490   -0.137741   -0.005505
      3          1           0       -1.075117    0.539793   -0.837532
      4          1           0       -0.991436    0.532139    0.853461
      5          1           0       -1.044903   -0.943845    0.009532
      6          1           0        1.144231    0.882694    0.000672
 ---------------------------------------------------------------------

 SCF Done:  E(RB2PLYPD3) =  -115.533017536     A.U. after   11 cycles
 E2(B2PLYPD3) =    -0.1496217060D+00 E(B2PLYPD3) =    -0.11568263924153D+03

 The electronic state is 1-A.
 Alpha  occ. eigenvalues --  -19.73556 -10.64050  -1.13614  -0.78910  -0.57268
 Alpha  occ. eigenvalues --   -0.51777  -0.49384  -0.41486  -0.35165
 Alpha virt. eigenvalues --    0.03856   0.07906   0.12522   0.12648   0.14996
 Alpha virt. eigenvalues --    0.17253   0.18134   0.28909   0.30539   0.33303
 Alpha virt. eigenvalues --    0.33887   0.39071   0.40006   0.41577   0.44175

 Mulliken charges:
               1
     1  C    0.081626
     2  O   -0.488889
     3  H    0.043817
     4  H    0.045560
     5  H    0.070814
     6  H    0.247072
 Sum of Mulliken charges =   0.00000

 Dipole moment (field-independent basis, Debye):
    X=             -0.9862    Y=              1.6132    Z=              0.0358  Tot=              1.8910
 Quadrupole moment (field-independent basis, Debye-Ang):
   XX=            -13.0984   YY=            -11.8355   ZZ=            -13.8992
   XY=              2.3012   XZ=              0.0504   YZ=              0.0185

 Normal termination of Gaussian 09 at Wed Aug 26 10:13:38 2020.
