 Gaussian 09, Revision D.01,
 Gaussian 09:  ES64L-G09RevD.01 24-Apr-2013

 --------------------
 #p B2PLYPD3/Def2QZVP
 --------------------

 --------
 methanol
 --------
 Symbolic Z-matrix:
 Charge =  0 Multiplicity = 1

                         Standard orientation:
 ---------------------------------------------------------------------
 Center     Atomic      Atomic             Coordinates (Angstroms)
 Number     Number       Type             X           Y           Z
 ---------------------------------------------------------------------
      1          6           0       -0.714363    0.014710   -0.014002
      2          8           0        0.750698   -0.198143   -0.003877
      3          1           0       -1.065498    0.468783   -0.755865
      4          1           0       -0.931995    0.575312    0.774028
      5          1           0       -0.986787   -0.762089    0.108025
      6          1           0        1.264872    1.214884   -0.011158
 ---------------------------------------------------------------------

 SCF Done:  E(RB2PLYPD3) =  -115.345160528     A.U. after   12 cycles
 E2(B2PLYPD3) =    -0.1587243046D+00 E(B2PLYPD3) =    -0.11550388483272D+03

 The electronic state is 1-A.
 Alpha  occ. eigenvalues --  -19.75449 -10.60071  -1.09669  -0.82575  -0.58212
 Alpha  occ. eigenvalues --   -0.52968  -0.47027  -0.39406  -0.35281
 Alpha virt. eigenvalues --   -0.03022   0.07421   0.12651   0.13030   0.14162
 Alpha virt. eigenvalues --    0.17109   0.18151   0.21479   0.29049   0.31935
 Alpha virt. eigenvalues --    0.33850   0.37672   0.41127   0.43260   0.45701

 Mulliken charges:
               1
     1  C    0.025503
     2  O   -0.494640
     3  H    0.055503
     4  H    0.046129
     5  H    0.153374
     6  H    0.214132
 Sum of Mulliken charges =   0.00000

 Dipole moment (field-independent basis, Debye):
    X=             -1.3501    Y=              1.7210    Z=              0.0065  Tot=              2.1873
 Quadrupole moment (field-independent basis, Debye-Ang):
   XX=            -12.9613   YY=            -11.0717   ZZ=            -13.8979
   XY=              2.4371   XZ=              0.0819   YZ=             -0.0991

 Normal termination of Gaussian 09 at Wed Aug 26 19:02:18 2020.
