 Gaussian 09, Revision D.01,
 Gaussian 09:  ES64L-G09RevD.01 24-Apr-2013

 --------------------
 #p B2PLYPD3/Def2QZVP
 --------------------

 --------
 methanol
 --------
 Symbolic Z-matrix:
 Charge =  0 Multiplicity = 1

                         Standard orientation:
 ---------------------------------------------------------------------
 Center     Atomic      Atomic             Coordinates (Angstroms)
 Number     Number       Type             X           Y           Z
 ---------------------------------------------------------------------
      1          6           0       -0.659796   -0.027958    0.003970
      2          8           0        0.742870    0.110048   -0.007995
      3          1           0       -0.972971   -0.499089    0.926056
      4          1           0       -1.018559   -0.596785   -0.878973
      5          1           0       -1.092967    1.039463   -0.034927
      6          1           0        1.100308   -0.656227    0.027984
 ---------------------------------------------------------------------

 SCF Done:  E(RB2PLYPD3) =  -115.536127678     A.U. after   10 cycles
 E2(B2PLYPD3) =    -0.1454030780D+00 E(B2PLYPD3) =    -0.11568153075594D+03

 The electronic state is 1-A.
 Alpha  occ. eigenvalues --  -19.71357 -10.66475  -1.19312  -0.79321  -0.60377
 Alpha  occ. eigenvalues --   -0.52449  -0.49680  -0.40878  -0.35713
 Alpha virt. eigenvalues --    0.05317   0.08786   0.12107   0.12246   0.14736
 Alpha virt. eigenvalues --    0.17222   0.17883   0.28995   0.33161   0.33583
 Alpha virt. eigenvalues --    0.37226   0.38265   0.40123   0.40961   0.43538

 Mulliken charges:
               1
     1  C    0.065518
     2  O   -0.394514
     3  H    0.052616
     4  H    0.049174
     5  H    0.066211
     6  H    0.160995
 Sum of Mulliken charges =   0.00000

 Dipole moment (field-independent basis, Debye):
    X=             -0.8636    Y=             -1.4394    Z=              0.0945  Tot=              1.6812
 Quadrupole moment (field-independent basis, Debye-Ang):
   XX=            -13.1766   YY=            -12.3623   ZZ=            -13.6367
   XY=             -2.0805   XZ=              0.1030   YZ=             -0.0489

 Normal termination of Gaussian 09 at Thu Aug 27 00:05:01 2020.
