 Gaussian 09, Revision D.01,
 Gaussian 09:  ES64L-G09RevD.01 24-Apr-2013

 --------------------
 #p B2PLYPD3/Def2QZVP
 --------------------

 --------
 methanol
 --------
 Symbolic Z-matrix:
 Charge =  0 Multiplicity = 1

                         Standard orientation:
 ---------------------------------------------------------------------
 Center     Atomic      Atomic             Coordinates (Angstroms)
 Number     Number       Type             X           Y           Z
 ---------------------------------------------------------------------
      1          6           0       -0.671752   -0.016968    0.012872
      2          8           0        0.755962    0.116780   -0.015331
      3          1           0       -1.008761   -0.451031    0.922698
      4          1           0       -1.081312   -0.622095   -0.868066
      5          1           0       -1.069320    0.984484   -0.066585
      6          1           0        1.142216   -0.743793    0.057367
 ---------------------------------------------------------------------

 SCF Done:  E(RB2PLYPD3) =  -115.550680335     A.U. after   10 cycles
 E2(B2PLYPD3) =    -0.1473038394D+00 E(B2PLYPD3) =    -0.11569798417446D+03

 The electronic state is 1-A.
 Alpha  occ. eigenvalues --  -19.72477 -10.65930  -1.16007  -0.78831  -0.58654
 Alpha  occ. eigenvalues --   -0.51427  -0.49704  -0.41258  -0.35482
 Alpha virt. eigenvalues --    0.05041   0.08190   0.12258   0.12432   0.14797
 Alpha virt. eigenvalues --    0.17191   0.18172   0.29044   0.32930   0.33323
 Alpha virt. eigenvalues --    0.35532   0.38380   0.39782   0.40699   0.43941

 Mulliken charges:
               1
     1  C    0.068821
     2  O   -0.457949
     3  H    0.054638
     4  H    0.043207
     5  H    0.072997
     6  H    0.218286
 Sum of Mulliken charges =   0.00000

 Dipole moment (field-independent basis, Debye):
    X=             -0.9194    Y=             -1.4610    Z=              0.2011  Tot=              1.7379
 Quadrupole moment (field-independent basis, Debye-Ang):
   XX=            -13.0163   YY=            -12.2654   ZZ=            -13.7682
   XY=             -2.2443   XZ=              0.1479   YZ=             -0.1459

 Normal termination of Gaussian 09 at Wed Aug 26 22:53:16 2020.
