 Gaussian 09, Revision D.01,
 Gaussian 09:  ES64L-G09RevD.01 24-Apr-2013

 --------------------
 #p B2PLYPD3/Def2QZVP
 --------------------

 --------
 methanol
 --------
 Symbolic Z-matrix:
 Charge =  0 Multiplicity = 1

                         Standard orientation:
 ---------------------------------------------------------------------
 Center     Atomic      Atomic             Coordinates (Angstroms)
 Number     Number       Type             X           Y           Z
 ---------------------------------------------------------------------
      1          6           0        0.678263    0.017240    0.000471
      2          8           0       -0.747860   -0.142617   -0.013942
      3          1           0        0.945183    0.420045    0.918363
      4          1           0        1.001690    0.627462   -0.816092
      5          1           0        1.078037   -0.895161   -0.058788
      6          1           0       -1.111610    0.885152    0.065224
 ---------------------------------------------------------------------

 SCF Done:  E(RB2PLYPD3) =  -115.528801384     A.U. after   11 cycles
 E2(B2PLYPD3) =    -0.1494798866D+00 E(B2PLYPD3) =    -0.11567828127089D+03

 The electronic state is 1-A.
 Alpha  occ. eigenvalues --  -19.73249 -10.63623  -1.13484  -0.79180  -0.56722
 Alpha  occ. eigenvalues --   -0.52704  -0.49782  -0.41268  -0.35113
 Alpha virt. eigenvalues --    0.03872   0.08055   0.12361   0.12777   0.14581
 Alpha virt. eigenvalues --    0.17467   0.18081   0.28956   0.30413   0.33182
 Alpha virt. eigenvalues --    0.33416   0.39265   0.41454   0.41873   0.43725

 Mulliken charges:
               1
     1  C    0.086267
     2  O   -0.494195
     3  H    0.047177
     4  H    0.044800
     5  H    0.069533
     6  H    0.246418
 Sum of Mulliken charges =   0.00000

 Dipole moment (field-independent basis, Debye):
    X=              1.0674    Y=              1.5877    Z=              0.1542  Tot=              1.9194
 Quadrupole moment (field-independent basis, Debye-Ang):
   XX=            -13.2808   YY=            -11.8604   ZZ=            -13.6901
   XY=             -2.3792   XZ=             -0.1890   YZ=              0.0758

 Normal termination of Gaussian 09 at Wed Aug 26 14:45:14 2020.
