 Gaussian 09, Revision D.01,
 Gaussian 09:  ES64L-G09RevD.01 24-Apr-2013

 --------------------
 #p B2PLYPD3/Def2QZVP
 --------------------

 --------
 methanol
 --------
 Symbolic Z-matrix:
 Charge =  0 Multiplicity = 1

                         Standard orientation:
 ---------------------------------------------------------------------
 Center     Atomic      Atomic             Coordinates (Angstroms)
 Number     Number       Type             X           Y           Z
 ---------------------------------------------------------------------
      1          6           0        0.672545    0.036854    0.003638
      2          8           0       -0.745663   -0.158676   -0.002500
      3          1           0        1.021355    0.508536    0.814876
      4          1           0        1.026484    0.574865   -0.793839
      5          1           0        1.132669   -0.943570   -0.031720
      6          1           0       -1.250474    0.908457    0.008858
 ---------------------------------------------------------------------

 SCF Done:  E(RB2PLYPD3) =  -115.510251867     A.U. after   11 cycles
 E2(B2PLYPD3) =    -0.1510920581D+00 E(B2PLYPD3) =    -0.11566134392507D+03

 The electronic state is 1-A.
 Alpha  occ. eigenvalues --  -19.74092 -10.63585  -1.12452  -0.79142  -0.56109
 Alpha  occ. eigenvalues --   -0.52321  -0.48895  -0.40445  -0.35245
 Alpha virt. eigenvalues --    0.02749   0.07544   0.12453   0.12962   0.14993
 Alpha virt. eigenvalues --    0.17466   0.18216   0.26994   0.29592   0.33725
 Alpha virt. eigenvalues --    0.33745   0.38545   0.39615   0.42725   0.44149

 Mulliken charges:
               1
     1  C    0.090927
     2  O   -0.499881
     3  H    0.048376
     4  H    0.045281
     5  H    0.062127
     6  H    0.253169
 Sum of Mulliken charges =   0.00000

 Dipole moment (field-independent basis, Debye):
    X=              0.8902    Y=              1.7235    Z=              0.0355  Tot=              1.9401
 Quadrupole moment (field-independent basis, Debye-Ang):
   XX=            -12.6034   YY=            -11.9220   ZZ=            -13.9971
   XY=             -2.4553   XZ=             -0.0089   YZ=              0.0271

 Normal termination of Gaussian 09 at Wed Aug 26 11:56:23 2020.
