 Gaussian 09, Revision D.01,
 Gaussian 09:  ES64L-G09RevD.01 24-Apr-2013

 --------------------
 #p B2PLYPD3/Def2QZVP
 --------------------

 --------
 methanol
 --------
 Symbolic Z-matrix:
 Charge =  0 Multiplicity = 1

                         Standard orientation:
 ---------------------------------------------------------------------
 Center     Atomic      Atomic             Coordinates (Angstroms)
 Number     Number       Type             X           Y           Z
 ---------------------------------------------------------------------
      1          6           0       -0.652078    0.013899   -0.013862
      2          8           0        0.747944   -0.138739    0.002240
      3          1           0       -1.030928    0.536480   -0.847760
      4          1           0       -1.135410    0.506773    0.857096
      5          1           0       -1.040306   -0.933884    0.014687
      6          1           0        1.135559    0.917150    0.041228
 ---------------------------------------------------------------------

 SCF Done:  E(RB2PLYPD3) =  -115.525017584     A.U. after   11 cycles
 E2(B2PLYPD3) =    -0.1503552917D+00 E(B2PLYPD3) =    -0.11567537287531D+03

 The electronic state is 1-A.
 Alpha  occ. eigenvalues --  -19.74284 -10.64366  -1.14283  -0.78440  -0.57252
 Alpha  occ. eigenvalues --   -0.51478  -0.49615  -0.41140  -0.35100
 Alpha virt. eigenvalues --    0.03378   0.07681   0.12566   0.12657   0.15161
 Alpha virt. eigenvalues --    0.17304   0.18490   0.28142   0.29801   0.33466
 Alpha virt. eigenvalues --    0.34745   0.38053   0.39886   0.41357   0.43819

 Mulliken charges:
               1
     1  C    0.071618
     2  O   -0.473311
     3  H    0.045915
     4  H    0.034966
     5  H    0.067579
     6  H    0.253233
 Sum of Mulliken charges =   0.00000

 Dipole moment (field-independent basis, Debye):
    X=             -0.8852    Y=              1.5980    Z=              0.0131  Tot=              1.8268
 Quadrupole moment (field-independent basis, Debye-Ang):
   XX=            -13.1024   YY=            -11.8883   ZZ=            -14.0370
   XY=              2.3194   XZ=              0.0563   YZ=             -0.0385

 Normal termination of Gaussian 09 at Wed Aug 26 15:16:12 2020.
