 Gaussian 09, Revision D.01,
 Gaussian 09:  ES64L-G09RevD.01 24-Apr-2013

 --------------------
 #p B2PLYPD3/Def2QZVP
 --------------------

 --------
 methanol
 --------
 Symbolic Z-matrix:
 Charge =  0 Multiplicity = 1

                         Standard orientation:
 ---------------------------------------------------------------------
 Center     Atomic      Atomic             Coordinates (Angstroms)
 Number     Number       Type             X           Y           Z
 ---------------------------------------------------------------------
      1          6           0        0.661749   -0.016787    0.007505
      2          8           0       -0.742469    0.109378   -0.006116
      3          1           0        0.965498   -0.654206   -0.885340
      4          1           0        1.054629   -0.452371    0.929902
      5          1           0        1.076861    0.997810   -0.107907
      6          1           0       -1.127730   -0.665537    0.067247
 ---------------------------------------------------------------------

 SCF Done:  E(RB2PLYPD3) =  -115.543005523     A.U. after   10 cycles
 E2(B2PLYPD3) =    -0.1457023174D+00 E(B2PLYPD3) =    -0.11568870784070D+03

 The electronic state is 1-A.
 Alpha  occ. eigenvalues --  -19.71572 -10.66382  -1.18525  -0.79306  -0.59995
 Alpha  occ. eigenvalues --   -0.51801  -0.50318  -0.40938  -0.35392
 Alpha virt. eigenvalues --    0.05289   0.08640   0.12186   0.12373   0.14739
 Alpha virt. eigenvalues --    0.17178   0.17951   0.29057   0.32853   0.33876
 Alpha virt. eigenvalues --    0.37062   0.39095   0.39620   0.40676   0.43383

 Mulliken charges:
               1
     1  C    0.065463
     2  O   -0.412062
     3  H    0.042234
     4  H    0.050943
     5  H    0.073796
     6  H    0.179627
 Sum of Mulliken charges =   0.00000

 Dipole moment (field-independent basis, Debye):
    X=              0.8276    Y=             -1.3854    Z=              0.1709  Tot=              1.6228
 Quadrupole moment (field-independent basis, Debye-Ang):
   XX=            -13.0469   YY=            -12.3834   ZZ=            -13.6903
   XY=              2.1970   XZ=             -0.0679   YZ=             -0.1386

 Normal termination of Gaussian 09 at Wed Aug 26 20:20:21 2020.
