 Gaussian 09, Revision D.01,
 Gaussian 09:  ES64L-G09RevD.01 24-Apr-2013

 --------------------
 #p B2PLYPD3/Def2QZVP
 --------------------

 --------
 methanol
 --------
 Symbolic Z-matrix:
 Charge =  0 Multiplicity = 1

                         Standard orientation:
 ---------------------------------------------------------------------
 Center     Atomic      Atomic             Coordinates (Angstroms)
 Number     Number       Type             X           Y           Z
 ---------------------------------------------------------------------
      1          6           0       -0.662770   -0.006127    0.005927
      2          8           0        0.754680   -0.082618   -0.026610
      3          1           0       -1.020348    0.921743   -0.689766
      4          1           0       -1.008592    0.159036    1.067363
      5          1           0       -1.044998   -0.953999   -0.369205
      6          1           0        1.013115    0.570927    0.168928
 ---------------------------------------------------------------------

 SCF Done:  E(RB2PLYPD3) =  -115.457213677     A.U. after   10 cycles
 E2(B2PLYPD3) =    -0.1442447998D+00 E(B2PLYPD3) =    -0.11560145847691D+03

 The electronic state is 1-A.
 Alpha  occ. eigenvalues --  -19.70250 -10.67772  -1.23491  -0.80437  -0.61041
 Alpha  occ. eigenvalues --   -0.51323  -0.50997  -0.42059  -0.35715
 Alpha virt. eigenvalues --    0.05319   0.09174   0.11581   0.12252   0.14538
 Alpha virt. eigenvalues --    0.17056   0.17636   0.28588   0.32417   0.32717
 Alpha virt. eigenvalues --    0.36070   0.39074   0.39925   0.40775   0.43187

 Mulliken charges:
               1
     1  C    0.057430
     2  O   -0.278179
     3  H    0.033355
     4  H    0.051713
     5  H    0.085624
     6  H    0.050057
 Sum of Mulliken charges =   0.00000

 Dipole moment (field-independent basis, Debye):
    X=             -1.0203    Y=              1.1363    Z=              0.4171  Tot=              1.5831
 Quadrupole moment (field-independent basis, Debye-Ang):
   XX=            -13.5383   YY=            -12.3934   ZZ=            -13.4943
   XY=              1.9274   XZ=              0.5027   YZ=              0.3558

 Normal termination of Gaussian 09 at Wed Aug 26 11:28:42 2020.
