 Gaussian 09, Revision D.01,
 Gaussian 09:  ES64L-G09RevD.01 24-Apr-2013

 --------------------
 #p B2PLYPD3/Def2QZVP
 --------------------

 --------
 methanol
 --------
 Symbolic Z-matrix:
 Charge =  0 Multiplicity = 1

                         Standard orientation:
 ---------------------------------------------------------------------
 Center     Atomic      Atomic             Coordinates (Angstroms)
 Number     Number       Type             X           Y           Z
 ---------------------------------------------------------------------
      1          6           0       -0.655932    0.016761   -0.004708
      2          8           0        0.741605   -0.142345    0.001185
      3          1           0       -1.027138    0.517464   -0.860834
      4          1           0       -1.004270    0.543333    0.872627
      5          1           0       -1.098450   -0.902367    0.018512
      6          1           0        1.132607    0.879763   -0.011535
 ---------------------------------------------------------------------

 SCF Done:  E(RB2PLYPD3) =  -115.533173720     A.U. after   11 cycles
 E2(B2PLYPD3) =    -0.1492821177D+00 E(B2PLYPD3) =    -0.11568245583763D+03

 The electronic state is 1-A.
 Alpha  occ. eigenvalues --  -19.73663 -10.64020  -1.14512  -0.78714  -0.57181
 Alpha  occ. eigenvalues --   -0.52040  -0.50368  -0.40968  -0.35078
 Alpha virt. eigenvalues --    0.03772   0.07926   0.12522   0.12801   0.14860
 Alpha virt. eigenvalues --    0.17658   0.18252   0.28866   0.30231   0.33312
 Alpha virt. eigenvalues --    0.34524   0.39162   0.40859   0.41586   0.43678

 Mulliken charges:
               1
     1  C    0.078496
     2  O   -0.479158
     3  H    0.042756
     4  H    0.039805
     5  H    0.066750
     6  H    0.251351
 Sum of Mulliken charges =   0.00000

 Dipole moment (field-independent basis, Debye):
    X=             -0.9046    Y=              1.5900    Z=             -0.0366  Tot=              1.8297
 Quadrupole moment (field-independent basis, Debye-Ang):
   XX=            -13.0858   YY=            -11.9797   ZZ=            -13.8496
   XY=              2.4136   XZ=              0.0123   YZ=             -0.0428

 Normal termination of Gaussian 09 at Thu Aug 27 00:09:01 2020.
