 Gaussian 09, Revision D.01,
 Gaussian 09:  ES64L-G09RevD.01 24-Apr-2013

 --------------------
 #p B2PLYPD3/Def2QZVP
 --------------------

 --------
 methanol
 --------
 Symbolic Z-matrix:
 Charge =  0 Multiplicity = 1

                         Standard orientation:
 ---------------------------------------------------------------------
 Center     Atomic      Atomic             Coordinates (Angstroms)
 Number     Number       Type             X           Y           Z
 ---------------------------------------------------------------------
      1          6           0        0.663634   -0.007220    0.011425
      2          8           0       -0.732958   -0.164838   -0.030196
      3          1           0        1.085620    0.292301    0.862862
      4          1           0        0.982755    0.820874   -0.751245
      5          1           0        1.061400   -0.758368   -0.149127
      6          1           0       -1.247915    1.007213    0.210526
 ---------------------------------------------------------------------

 SCF Done:  E(RB2PLYPD3) =  -115.429509130     A.U. after   11 cycles
 E2(B2PLYPD3) =    -0.1533751036D+00 E(B2PLYPD3) =    -0.11558288423335D+03

 The electronic state is 1-A.
 Alpha  occ. eigenvalues --  -19.74854 -10.62456  -1.12643  -0.80739  -0.56109
 Alpha  occ. eigenvalues --   -0.51880  -0.49996  -0.40293  -0.34322
 Alpha virt. eigenvalues --    0.00319   0.07518   0.12485   0.13103   0.14898
 Alpha virt. eigenvalues --    0.17585   0.18544   0.23850   0.29597   0.32576
 Alpha virt. eigenvalues --    0.34721   0.36829   0.40582   0.42181   0.44198

 Mulliken charges:
               1
     1  C    0.048935
     2  O   -0.484430
     3  H    0.042436
     4  H    0.024852
     5  H    0.109887
     6  H    0.258320
 Sum of Mulliken charges =   0.00000

 Dipole moment (field-independent basis, Debye):
    X=              0.8218    Y=              1.5406    Z=              0.4878  Tot=              1.8129
 Quadrupole moment (field-independent basis, Debye-Ang):
   XX=            -12.7157   YY=            -11.7176   ZZ=            -14.0276
   XY=             -2.7922   XZ=             -0.2295   YZ=              0.4033

 Normal termination of Gaussian 09 at Wed Aug 26 23:46:38 2020.
