 Gaussian 09, Revision D.01,
 Gaussian 09:  ES64L-G09RevD.01 24-Apr-2013

 --------------------
 #p B2PLYPD3/Def2QZVP
 --------------------

 --------
 methanol
 --------
 Symbolic Z-matrix:
 Charge =  0 Multiplicity = 1

                         Standard orientation:
 ---------------------------------------------------------------------
 Center     Atomic      Atomic             Coordinates (Angstroms)
 Number     Number       Type             X           Y           Z
 ---------------------------------------------------------------------
      1          6           0        0.668237   -0.021331   -0.002660
      2          8           0       -0.754598    0.126331    0.001694
      3          1           0        1.020802   -0.554358   -0.883864
      4          1           0        1.093402   -0.491724    0.900227
      5          1           0        1.076645    0.956120   -0.034552
      6          1           0       -1.163489   -0.792703    0.020600
 ---------------------------------------------------------------------

 SCF Done:  E(RB2PLYPD3) =  -115.548960028     A.U. after   10 cycles
 E2(B2PLYPD3) =    -0.1482580951D+00 E(B2PLYPD3) =    -0.11569721812305D+03

 The electronic state is 1-A.
 Alpha  occ. eigenvalues --  -19.73084 -10.65397  -1.14957  -0.78645  -0.57828
 Alpha  occ. eigenvalues --   -0.51506  -0.49736  -0.41032  -0.35434
 Alpha virt. eigenvalues --    0.04705   0.07940   0.12381   0.12587   0.14819
 Alpha virt. eigenvalues --    0.17252   0.18402   0.28994   0.32953   0.33505
 Alpha virt. eigenvalues --    0.33842   0.38600   0.40036   0.40828   0.43829

 Mulliken charges:
               1
     1  C    0.067984
     2  O   -0.472893
     3  H    0.049239
     4  H    0.048144
     5  H    0.070364
     6  H    0.237161
 Sum of Mulliken charges =   0.00000

 Dipole moment (field-independent basis, Debye):
    X=              0.8953    Y=             -1.5121    Z=              0.0137  Tot=              1.7574
 Quadrupole moment (field-independent basis, Debye-Ang):
   XX=            -12.9029   YY=            -12.2398   ZZ=            -13.8215
   XY=              2.3370   XZ=             -0.0061   YZ=             -0.0087

 Normal termination of Gaussian 09 at Wed Aug 26 14:37:14 2020.
