 Gaussian 09, Revision D.01,
 Gaussian 09:  ES64L-G09RevD.01 24-Apr-2013

 --------------------
 #p B2PLYPD3/Def2QZVP
 --------------------

 --------
 methanol
 --------
 Symbolic Z-matrix:
 Charge =  0 Multiplicity = 1

                         Standard orientation:
 ---------------------------------------------------------------------
 Center     Atomic      Atomic             Coordinates (Angstroms)
 Number     Number       Type             X           Y           Z
 ---------------------------------------------------------------------
      1          6           0       -0.670798   -0.009737    0.005589
      2          8           0        0.745416    0.099431   -0.009196
      3          1           0       -1.017094   -0.475124    0.939365
      4          1           0       -1.103409   -0.597111   -0.871789
      5          1           0       -0.942190    1.040998   -0.049254
      6          1           0        1.124153   -0.705788    0.021714
 ---------------------------------------------------------------------

 SCF Done:  E(RB2PLYPD3) =  -115.545346892     A.U. after   10 cycles
 E2(B2PLYPD3) =    -0.1463635691D+00 E(B2PLYPD3) =    -0.11569171046125D+03

 The electronic state is 1-A.
 Alpha  occ. eigenvalues --  -19.71794 -10.66292  -1.17665  -0.79069  -0.59750
 Alpha  occ. eigenvalues --   -0.51311  -0.49551  -0.41437  -0.35417
 Alpha virt. eigenvalues --    0.05225   0.08526   0.12144   0.12283   0.15039
 Alpha virt. eigenvalues --    0.16655   0.18057   0.29077   0.33091   0.33622
 Alpha virt. eigenvalues --    0.37362   0.38279   0.39870   0.40124   0.43037

 Mulliken charges:
               1
     1  C    0.059084
     2  O   -0.424612
     3  H    0.052080
     4  H    0.045596
     5  H    0.077534
     6  H    0.190318
 Sum of Mulliken charges =   0.00000

 Dipole moment (field-independent basis, Debye):
    X=             -0.8438    Y=             -1.4092    Z=              0.0949  Tot=              1.6452
 Quadrupole moment (field-independent basis, Debye-Ang):
   XX=            -13.1933   YY=            -12.1815   ZZ=            -13.7585
   XY=             -2.0140   XZ=              0.1010   YZ=             -0.0669

 Normal termination of Gaussian 09 at Wed Aug 26 14:22:43 2020.
