 Gaussian 09, Revision D.01,
 Gaussian 09:  ES64L-G09RevD.01 24-Apr-2013

 --------------------
 #p B2PLYPD3/Def2QZVP
 --------------------

 --------
 methanol
 --------
 Symbolic Z-matrix:
 Charge =  0 Multiplicity = 1

                         Standard orientation:
 ---------------------------------------------------------------------
 Center     Atomic      Atomic             Coordinates (Angstroms)
 Number     Number       Type             X           Y           Z
 ---------------------------------------------------------------------
      1          6           0        0.661615   -0.025473    0.008043
      2          8           0       -0.756652    0.115170   -0.004542
      3          1           0        1.052025   -0.570492   -0.894263
      4          1           0        0.962828   -0.541671    0.918330
      5          1           0        1.189890    0.997476   -0.018683
      6          1           0       -1.121217   -0.653837   -0.017303
 ---------------------------------------------------------------------

 SCF Done:  E(RB2PLYPD3) =  -115.536107023     A.U. after   10 cycles
 E2(B2PLYPD3) =    -0.1458047612D+00 E(B2PLYPD3) =    -0.11568191178383D+03

 The electronic state is 1-A.
 Alpha  occ. eigenvalues --  -19.71646 -10.66914  -1.18774  -0.79201  -0.60063
 Alpha  occ. eigenvalues --   -0.52019  -0.49746  -0.40714  -0.35811
 Alpha virt. eigenvalues --    0.05324   0.08494   0.12166   0.12310   0.14497
 Alpha virt. eigenvalues --    0.17664   0.17958   0.28994   0.32648   0.33334
 Alpha virt. eigenvalues --    0.36200   0.38553   0.39414   0.40688   0.43826

 Mulliken charges:
               1
     1  C    0.066501
     2  O   -0.403054
     3  H    0.046833
     4  H    0.054195
     5  H    0.067958
     6  H    0.167567
 Sum of Mulliken charges =   0.00000

 Dipole moment (field-independent basis, Debye):
    X=              0.9196    Y=             -1.4335    Z=              0.0058  Tot=              1.7031
 Quadrupole moment (field-independent basis, Debye-Ang):
   XX=            -12.9471   YY=            -12.5168   ZZ=            -13.7082
   XY=              2.2117   XZ=             -0.0256   YZ=             -0.0255

 Normal termination of Gaussian 09 at Wed Aug 26 15:26:40 2020.
