 Gaussian 09, Revision D.01,
 Gaussian 09:  ES64L-G09RevD.01 24-Apr-2013

 --------------------
 #p B2PLYPD3/Def2QZVP
 --------------------

 --------
 methanol
 --------
 Symbolic Z-matrix:
 Charge =  0 Multiplicity = 1

                         Standard orientation:
 ---------------------------------------------------------------------
 Center     Atomic      Atomic             Coordinates (Angstroms)
 Number     Number       Type             X           Y           Z
 ---------------------------------------------------------------------
      1          6           0       -0.678098    0.035129   -0.006106
      2          8           0        0.737689   -0.160830   -0.004757
      3          1           0       -1.057309    0.505388   -0.794381
      4          1           0       -1.004486    0.494252    0.824088
      5          1           0       -0.980165   -0.927614    0.028902
      6          1           0        1.209035    1.003834    0.016078
 ---------------------------------------------------------------------

 SCF Done:  E(RB2PLYPD3) =  -115.483472568     A.U. after   11 cycles
 E2(B2PLYPD3) =    -0.1526836247D+00 E(B2PLYPD3) =    -0.11563615619232D+03

 The electronic state is 1-A.
 Alpha  occ. eigenvalues --  -19.74429 -10.62305  -1.12134  -0.79561  -0.56397
 Alpha  occ. eigenvalues --   -0.53147  -0.48219  -0.40461  -0.35325
 Alpha virt. eigenvalues --    0.01630   0.07715   0.12484   0.12908   0.15074
 Alpha virt. eigenvalues --    0.16863   0.18425   0.25177   0.29424   0.33690
 Alpha virt. eigenvalues --    0.34198   0.38984   0.39220   0.43455   0.45014

 Mulliken charges:
               1
     1  C    0.091361
     2  O   -0.492219
     3  H    0.047505
     4  H    0.044920
     5  H    0.066497
     6  H    0.241936
 Sum of Mulliken charges =   0.00000

 Dipole moment (field-independent basis, Debye):
    X=             -1.0239    Y=              1.6890    Z=              0.0387  Tot=              1.9755
 Quadrupole moment (field-independent basis, Debye-Ang):
   XX=            -13.0136   YY=            -11.6139   ZZ=            -13.8608
   XY=              2.2915   XZ=              0.0745   YZ=             -0.0165

 Normal termination of Gaussian 09 at Wed Aug 26 15:41:39 2020.
