 Gaussian 09, Revision D.01,
 Gaussian 09:  ES64L-G09RevD.01 24-Apr-2013

 --------------------
 #p B2PLYPD3/Def2QZVP
 --------------------

 --------
 methanol
 --------
 Symbolic Z-matrix:
 Charge =  0 Multiplicity = 1

                         Standard orientation:
 ---------------------------------------------------------------------
 Center     Atomic      Atomic             Coordinates (Angstroms)
 Number     Number       Type             X           Y           Z
 ---------------------------------------------------------------------
      1          6           0        0.680628    0.031845    0.026160
      2          8           0       -0.729460   -0.148209   -0.023615
      3          1           0        0.994456    0.287629    0.951903
      4          1           0        1.016662    0.724482   -0.801363
      5          1           0        1.075049   -0.847089   -0.221959
      6          1           0       -1.334255    0.829580    0.103379
 ---------------------------------------------------------------------

 SCF Done:  E(RB2PLYPD3) =  -115.511302677     A.U. after   11 cycles
 E2(B2PLYPD3) =    -0.1503810955D+00 E(B2PLYPD3) =    -0.11566168377233D+03

 The electronic state is 1-A.
 Alpha  occ. eigenvalues --  -19.73338 -10.63853  -1.12601  -0.78902  -0.55822
 Alpha  occ. eigenvalues --   -0.52534  -0.50092  -0.39279  -0.34914
 Alpha virt. eigenvalues --    0.03157   0.07646   0.12416   0.13044   0.14599
 Alpha virt. eigenvalues --    0.17005   0.18625   0.27793   0.29324   0.33442
 Alpha virt. eigenvalues --    0.33965   0.38026   0.40994   0.42207   0.43988

 Mulliken charges:
               1
     1  C    0.078715
     2  O   -0.509071
     3  H    0.059236
     4  H    0.041082
     5  H    0.071240
     6  H    0.258798
 Sum of Mulliken charges =   0.00000

 Dipole moment (field-independent basis, Debye):
    X=              0.7040    Y=              1.4912    Z=              0.2659  Tot=              1.6704
 Quadrupole moment (field-independent basis, Debye-Ang):
   XX=            -12.2682   YY=            -12.4258   ZZ=            -13.6554
   XY=             -2.7165   XZ=             -0.2868   YZ=              0.2158

 Normal termination of Gaussian 09 at Wed Aug 26 21:43:42 2020.
