 Gaussian 09, Revision D.01,
 Gaussian 09:  ES64L-G09RevD.01 24-Apr-2013

 --------------------
 #p B2PLYPD3/Def2QZVP
 --------------------

 --------
 methanol
 --------
 Symbolic Z-matrix:
 Charge =  0 Multiplicity = 1

                         Standard orientation:
 ---------------------------------------------------------------------
 Center     Atomic      Atomic             Coordinates (Angstroms)
 Number     Number       Type             X           Y           Z
 ---------------------------------------------------------------------
      1          6           0        0.667883    0.020952   -0.004554
      2          8           0       -0.733812   -0.144973    0.001175
      3          1           0        0.990351    0.526656    0.876962
      4          1           0        0.975306    0.557209   -0.848559
      5          1           0        1.084589   -0.906465   -0.012406
      6          1           0       -1.187047    0.856672    0.001933
 ---------------------------------------------------------------------

 SCF Done:  E(RB2PLYPD3) =  -115.531756149     A.U. after   11 cycles
 E2(B2PLYPD3) =    -0.1491315858D+00 E(B2PLYPD3) =    -0.11568088773506D+03

 The electronic state is 1-A.
 Alpha  occ. eigenvalues --  -19.73235 -10.63695  -1.13970  -0.78824  -0.57084
 Alpha  occ. eigenvalues --   -0.52400  -0.50288  -0.40693  -0.34898
 Alpha virt. eigenvalues --    0.03786   0.07992   0.12572   0.12782   0.14843
 Alpha virt. eigenvalues --    0.17415   0.18056   0.29019   0.30309   0.33256
 Alpha virt. eigenvalues --    0.34232   0.39367   0.40926   0.41993   0.43904

 Mulliken charges:
               1
     1  C    0.083509
     2  O   -0.491166
     3  H    0.042947
     4  H    0.044283
     5  H    0.070064
     6  H    0.250362
 Sum of Mulliken charges =   0.00000

 Dipole moment (field-independent basis, Debye):
    X=              0.8613    Y=              1.5949    Z=             -0.0163  Tot=              1.8127
 Quadrupole moment (field-independent basis, Debye-Ang):
   XX=            -12.9148   YY=            -11.9894   ZZ=            -13.7921
   XY=             -2.4865   XZ=             -0.0142   YZ=             -0.0226

 Normal termination of Gaussian 09 at Thu Aug 27 00:12:12 2020.
