 Gaussian 09, Revision D.01,
 Gaussian 09:  ES64L-G09RevD.01 24-Apr-2013

 --------------------
 #p B2PLYPD3/Def2QZVP
 --------------------

 --------
 methanol
 --------
 Symbolic Z-matrix:
 Charge =  0 Multiplicity = 1

                         Standard orientation:
 ---------------------------------------------------------------------
 Center     Atomic      Atomic             Coordinates (Angstroms)
 Number     Number       Type             X           Y           Z
 ---------------------------------------------------------------------
      1          6           0        0.616289   -0.006697   -0.010481
      2          8           0       -0.730882   -0.149492    0.008288
      3          1           0        1.039320    0.566401    0.876806
      4          1           0        1.109516    0.478330   -0.830445
      5          1           0        1.061107   -0.832208    0.020989
      6          1           0       -1.060624    1.023596   -0.070769
 ---------------------------------------------------------------------

 SCF Done:  E(RB2PLYPD3) =  -115.482171959     A.U. after   11 cycles
 E2(B2PLYPD3) =    -0.1516800592D+00 E(B2PLYPD3) =    -0.11563385201776D+03

 The electronic state is 1-A.
 Alpha  occ. eigenvalues --  -19.75167 -10.63388  -1.15742  -0.78855  -0.57036
 Alpha  occ. eigenvalues --   -0.52164  -0.50996  -0.40585  -0.34364
 Alpha virt. eigenvalues --    0.01532   0.07590   0.12622   0.12957   0.15192
 Alpha virt. eigenvalues --    0.18039   0.18506   0.25347   0.29430   0.32945
 Alpha virt. eigenvalues --    0.35955   0.38395   0.40120   0.41918   0.43631

 Mulliken charges:
               1
     1  C    0.069291
     2  O   -0.450872
     3  H    0.019866
     4  H    0.029203
     5  H    0.069370
     6  H    0.263143
 Sum of Mulliken charges =   0.00000

 Dipole moment (field-independent basis, Debye):
    X=              0.8123    Y=              1.5770    Z=             -0.1951  Tot=              1.7846
 Quadrupole moment (field-independent basis, Debye-Ang):
   XX=            -13.4101   YY=            -11.6511   ZZ=            -14.1575
   XY=             -2.4211   XZ=             -0.0121   YZ=             -0.1655

 Normal termination of Gaussian 09 at Wed Aug 26 20:43:22 2020.
