 Gaussian 09, Revision D.01,
 Gaussian 09:  ES64L-G09RevD.01 24-Apr-2013

 --------------------
 #p B2PLYPD3/Def2QZVP
 --------------------

 --------
 methanol
 --------
 Symbolic Z-matrix:
 Charge =  0 Multiplicity = 1

                         Standard orientation:
 ---------------------------------------------------------------------
 Center     Atomic      Atomic             Coordinates (Angstroms)
 Number     Number       Type             X           Y           Z
 ---------------------------------------------------------------------
      1          6           0        0.674026    0.032310   -0.005080
      2          8           0       -0.746616   -0.158765   -0.002003
      3          1           0        1.019936    0.466489    0.853446
      4          1           0        0.959350    0.612292   -0.786888
      5          1           0        1.158935   -0.905764   -0.055413
      6          1           0       -1.209451    0.903242    0.035353
 ---------------------------------------------------------------------

 SCF Done:  E(RB2PLYPD3) =  -115.516000959     A.U. after   11 cycles
 E2(B2PLYPD3) =    -0.1505807132D+00 E(B2PLYPD3) =    -0.11566658167229D+03

 The electronic state is 1-A.
 Alpha  occ. eigenvalues --  -19.73826 -10.63430  -1.12621  -0.79208  -0.56021
 Alpha  occ. eigenvalues --   -0.52722  -0.49320  -0.40595  -0.35177
 Alpha virt. eigenvalues --    0.03048   0.07675   0.12606   0.12825   0.14771
 Alpha virt. eigenvalues --    0.17676   0.18158   0.27594   0.29652   0.33283
 Alpha virt. eigenvalues --    0.33610   0.39627   0.39948   0.42705   0.43633

 Mulliken charges:
               1
     1  C    0.094351
     2  O   -0.501879
     3  H    0.045770
     4  H    0.045310
     5  H    0.063547
     6  H    0.252901
 Sum of Mulliken charges =   0.00000

 Dipole moment (field-independent basis, Debye):
    X=              0.9575    Y=              1.6996    Z=              0.0587  Tot=              1.9517
 Quadrupole moment (field-independent basis, Debye-Ang):
   XX=            -12.7669   YY=            -11.9210   ZZ=            -13.8904
   XY=             -2.5040   XZ=             -0.0348   YZ=              0.0054

 Normal termination of Gaussian 09 at Wed Aug 26 14:56:09 2020.
