 Gaussian 09, Revision D.01,
 Gaussian 09:  ES64L-G09RevD.01 24-Apr-2013

 --------------------
 #p B2PLYPD3/Def2QZVP
 --------------------

 --------
 methanol
 --------
 Symbolic Z-matrix:
 Charge =  0 Multiplicity = 1

                         Standard orientation:
 ---------------------------------------------------------------------
 Center     Atomic      Atomic             Coordinates (Angstroms)
 Number     Number       Type             X           Y           Z
 ---------------------------------------------------------------------
      1          6           0        0.661054   -0.011689    0.008688
      2          8           0       -0.745952    0.098882   -0.017322
      3          1           0        1.023516   -0.753109   -0.821942
      4          1           0        1.010706   -0.345144    1.017127
      5          1           0        1.094189    0.982035   -0.201292
      6          1           0       -1.127119   -0.604709    0.092556
 ---------------------------------------------------------------------

 SCF Done:  E(RB2PLYPD3) =  -115.519465030     A.U. after   10 cycles
 E2(B2PLYPD3) =    -0.1449657864D+00 E(B2PLYPD3) =    -0.11566443081673D+03

 The electronic state is 1-A.
 Alpha  occ. eigenvalues --  -19.70984 -10.67225  -1.20232  -0.79958  -0.60497
 Alpha  occ. eigenvalues --   -0.51514  -0.50726  -0.40715  -0.35560
 Alpha virt. eigenvalues --    0.05392   0.08809   0.11958   0.12408   0.14540
 Alpha virt. eigenvalues --    0.17185   0.17913   0.28894   0.32883   0.33370
 Alpha virt. eigenvalues --    0.36902   0.39226   0.39817   0.40109   0.43114

 Mulliken charges:
               1
     1  C    0.061846
     2  O   -0.361559
     3  H    0.039875
     4  H    0.051618
     5  H    0.078544
     6  H    0.129676
 Sum of Mulliken charges =   0.00000

 Dipole moment (field-independent basis, Debye):
    X=              0.8289    Y=             -1.2696    Z=              0.2455  Tot=              1.5360
 Quadrupole moment (field-independent basis, Debye-Ang):
   XX=            -13.0016   YY=            -12.5493   ZZ=            -13.6220
   XY=              2.1634   XZ=             -0.2978   YZ=             -0.1798

 Normal termination of Gaussian 09 at Thu Aug 27 00:12:59 2020.
