 Gaussian 09, Revision D.01,
 Gaussian 09:  ES64L-G09RevD.01 24-Apr-2013

 --------------------
 #p B2PLYPD3/Def2QZVP
 --------------------

 --------
 methanol
 --------
 Symbolic Z-matrix:
 Charge =  0 Multiplicity = 1

                         Standard orientation:
 ---------------------------------------------------------------------
 Center     Atomic      Atomic             Coordinates (Angstroms)
 Number     Number       Type             X           Y           Z
 ---------------------------------------------------------------------
      1          6           0        0.672424    0.022414    0.002308
      2          8           0       -0.736939   -0.147586    0.003655
      3          1           0        1.037140    0.511700    0.868008
      4          1           0        0.986814    0.554014   -0.858357
      5          1           0        1.069085   -0.896062   -0.046042
      6          1           0       -1.232071    0.876552   -0.006697
 ---------------------------------------------------------------------

 SCF Done:  E(RB2PLYPD3) =  -115.522724786     A.U. after   11 cycles
 E2(B2PLYPD3) =    -0.1499947849D+00 E(B2PLYPD3) =    -0.11567271957043D+03

 The electronic state is 1-A.
 Alpha  occ. eigenvalues --  -19.73548 -10.63638  -1.13194  -0.78904  -0.56498
 Alpha  occ. eigenvalues --   -0.52091  -0.50121  -0.40486  -0.34949
 Alpha virt. eigenvalues --    0.03356   0.07803   0.12624   0.12827   0.14862
 Alpha virt. eigenvalues --    0.17254   0.18273   0.28323   0.29701   0.33405
 Alpha virt. eigenvalues --    0.34094   0.39023   0.40827   0.41926   0.43684

 Mulliken charges:
               1
     1  C    0.081642
     2  O   -0.497523
     3  H    0.047279
     4  H    0.043869
     5  H    0.070996
     6  H    0.253737
 Sum of Mulliken charges =   0.00000

 Dipole moment (field-independent basis, Debye):
    X=              0.8434    Y=              1.5941    Z=             -0.0285  Tot=              1.8037
 Quadrupole moment (field-independent basis, Debye-Ang):
   XX=            -12.7198   YY=            -12.0208   ZZ=            -13.8309
   XY=             -2.5396   XZ=              0.0451   YZ=              0.0125

 Normal termination of Gaussian 09 at Wed Aug 26 19:46:48 2020.
