 Gaussian 09, Revision D.01,
 Gaussian 09:  ES64L-G09RevD.01 24-Apr-2013

 --------------------
 #p B2PLYPD3/Def2QZVP
 --------------------

 --------
 methanol
 --------
 Symbolic Z-matrix:
 Charge =  0 Multiplicity = 1

                         Standard orientation:
 ---------------------------------------------------------------------
 Center     Atomic      Atomic             Coordinates (Angstroms)
 Number     Number       Type             X           Y           Z
 ---------------------------------------------------------------------
      1          6           0       -0.682568    0.001483    0.003875
      2          8           0        0.764459   -0.069261   -0.031537
      3          1           0       -1.076040    0.984103   -0.576747
      4          1           0       -1.050384   -0.027041    1.097199
      5          1           0       -0.985195   -0.919642   -0.509810
      6          1           0        1.091354    0.507768    0.218400
 ---------------------------------------------------------------------

 SCF Done:  E(RB2PLYPD3) =  -115.430909737     A.U. after   11 cycles
 E2(B2PLYPD3) =    -0.1444078252D+00 E(B2PLYPD3) =    -0.11557531756177D+03

 The electronic state is 1-A.
 Alpha  occ. eigenvalues --  -19.69711 -10.68422  -1.22988  -0.80973  -0.60603
 Alpha  occ. eigenvalues --   -0.50767  -0.50283  -0.41438  -0.36045
 Alpha virt. eigenvalues --    0.05358   0.08996   0.11525   0.12201   0.14353
 Alpha virt. eigenvalues --    0.16629   0.17934   0.28716   0.31488   0.32841
 Alpha virt. eigenvalues --    0.35611   0.38486   0.39814   0.40771   0.42355

 Mulliken charges:
               1
     1  C    0.051780
     2  O   -0.270193
     3  H    0.046111
     4  H    0.057814
     5  H    0.089785
     6  H    0.024702
 Sum of Mulliken charges =   0.00000

 Dipole moment (field-independent basis, Debye):
    X=             -1.0248    Y=              1.0633    Z=              0.4985  Tot=              1.5586
 Quadrupole moment (field-independent basis, Debye-Ang):
   XX=            -13.2188   YY=            -12.5792   ZZ=            -13.3707
   XY=              1.7748   XZ=              0.7515   YZ=              0.3624

 Normal termination of Gaussian 09 at Wed Aug 26 12:20:21 2020.
