 Gaussian 09, Revision D.01,
 Gaussian 09:  ES64L-G09RevD.01 24-Apr-2013

 --------------------
 #p B2PLYPD3/Def2QZVP
 --------------------

 --------
 methanol
 --------
 Symbolic Z-matrix:
 Charge =  0 Multiplicity = 1

                         Standard orientation:
 ---------------------------------------------------------------------
 Center     Atomic      Atomic             Coordinates (Angstroms)
 Number     Number       Type             X           Y           Z
 ---------------------------------------------------------------------
      1          6           0       -0.674576   -0.011506    0.004282
      2          8           0        0.755082    0.098387   -0.009640
      3          1           0       -1.020508   -0.494613    0.953513
      4          1           0       -1.014902   -0.605189   -0.924437
      5          1           0       -1.053097    1.013766   -0.040000
      6          1           0        1.095308   -0.632023    0.062349
 ---------------------------------------------------------------------

 SCF Done:  E(RB2PLYPD3) =  -115.520964929     A.U. after   10 cycles
 E2(B2PLYPD3) =    -0.1452112104D+00 E(B2PLYPD3) =    -0.11566617613902D+03

 The electronic state is 1-A.
 Alpha  occ. eigenvalues --  -19.70876 -10.67070  -1.19678  -0.79768  -0.60012
 Alpha  occ. eigenvalues --   -0.51453  -0.50256  -0.41402  -0.35687
 Alpha virt. eigenvalues --    0.05382   0.08832   0.11918   0.12303   0.14510
 Alpha virt. eigenvalues --    0.17045   0.17861   0.28939   0.32387   0.33129
 Alpha virt. eigenvalues --    0.37216   0.39266   0.39753   0.40164   0.43119

 Mulliken charges:
               1
     1  C    0.063751
     2  O   -0.370967
     3  H    0.051433
     4  H    0.048334
     5  H    0.079706
     6  H    0.127743
 Sum of Mulliken charges =   0.00000

 Dipole moment (field-independent basis, Debye):
    X=             -0.9712    Y=             -1.3157    Z=              0.1682  Tot=              1.6439
 Quadrupole moment (field-independent basis, Debye-Ang):
   XX=            -13.2179   YY=            -12.3741   ZZ=            -13.5804
   XY=             -2.1005   XZ=              0.1359   YZ=             -0.1067

 Normal termination of Gaussian 09 at Thu Aug 27 00:15:03 2020.
