 Gaussian 09, Revision D.01,
 Gaussian 09:  ES64L-G09RevD.01 24-Apr-2013

 --------------------
 #p B2PLYPD3/Def2QZVP
 --------------------

 --------
 methanol
 --------
 Symbolic Z-matrix:
 Charge =  0 Multiplicity = 1

                         Standard orientation:
 ---------------------------------------------------------------------
 Center     Atomic      Atomic             Coordinates (Angstroms)
 Number     Number       Type             X           Y           Z
 ---------------------------------------------------------------------
      1          6           0       -0.686314    0.028013    0.000989
      2          8           0        0.749998   -0.154960   -0.001173
      3          1           0       -1.068032    0.484124   -0.821015
      4          1           0       -0.935668    0.570942    0.826590
      5          1           0       -1.066229   -0.921334    0.039848
      6          1           0        1.187832    0.937871   -0.041976
 ---------------------------------------------------------------------

 SCF Done:  E(RB2PLYPD3) =  -115.508820041     A.U. after   11 cycles
 E2(B2PLYPD3) =    -0.1512438459D+00 E(B2PLYPD3) =    -0.11566006388702D+03

 The electronic state is 1-A.
 Alpha  occ. eigenvalues --  -19.73862 -10.63120  -1.12023  -0.79412  -0.56148
 Alpha  occ. eigenvalues --   -0.52852  -0.48566  -0.40999  -0.35195
 Alpha virt. eigenvalues --    0.02858   0.07752   0.12526   0.12740   0.14797
 Alpha virt. eigenvalues --    0.17251   0.18138   0.27198   0.29579   0.32707
 Alpha virt. eigenvalues --    0.33909   0.39394   0.39762   0.42780   0.44294

 Mulliken charges:
               1
     1  C    0.093439
     2  O   -0.504359
     3  H    0.047016
     4  H    0.048059
     5  H    0.067718
     6  H    0.248126
 Sum of Mulliken charges =   0.00000

 Dipole moment (field-independent basis, Debye):
    X=             -1.0563    Y=              1.6791    Z=             -0.0612  Tot=              1.9846
 Quadrupole moment (field-independent basis, Debye-Ang):
   XX=            -12.9910   YY=            -11.7400   ZZ=            -13.8472
   XY=              2.3995   XZ=              0.0348   YZ=             -0.0409

 Normal termination of Gaussian 09 at Wed Aug 26 12:21:51 2020.
