 Gaussian 09, Revision D.01,
 Gaussian 09:  ES64L-G09RevD.01 24-Apr-2013

 --------------------
 #p B2PLYPD3/Def2QZVP
 --------------------

 --------
 methanol
 --------
 Symbolic Z-matrix:
 Charge =  0 Multiplicity = 1

                         Standard orientation:
 ---------------------------------------------------------------------
 Center     Atomic      Atomic             Coordinates (Angstroms)
 Number     Number       Type             X           Y           Z
 ---------------------------------------------------------------------
      1          6           0       -0.681209   -0.031681   -0.039685
      2          8           0        0.741603    0.144402    0.019402
      3          1           0       -0.935629   -0.676556    0.833211
      4          1           0       -0.982580   -0.453673   -0.751430
      5          1           0       -1.089908    1.001979    0.105383
      6          1           0        1.162546   -0.836881   -0.104271
 ---------------------------------------------------------------------

 SCF Done:  E(RB2PLYPD3) =  -115.496509748     A.U. after   11 cycles
 E2(B2PLYPD3) =    -0.1493136644D+00 E(B2PLYPD3) =    -0.11564582341201D+03

 The electronic state is 1-A.
 Alpha  occ. eigenvalues --  -19.73135 -10.63791  -1.13699  -0.80093  -0.58701
 Alpha  occ. eigenvalues --   -0.52271  -0.48421  -0.41426  -0.34926
 Alpha virt. eigenvalues --    0.03997   0.08044   0.12013   0.12667   0.15023
 Alpha virt. eigenvalues --    0.17272   0.17892   0.29192   0.31012   0.32468
 Alpha virt. eigenvalues --    0.34198   0.37584   0.38560   0.41910   0.45177

 Mulliken charges:
               1
     1  C    0.055205
     2  O   -0.486521
     3  H    0.041231
     4  H    0.078746
     5  H    0.069491
     6  H    0.241850
 Sum of Mulliken charges =   0.00000

 Dipole moment (field-independent basis, Debye):
    X=             -0.9387    Y=             -1.6521    Z=             -0.3462  Tot=              1.9314
 Quadrupole moment (field-independent basis, Debye-Ang):
   XX=            -13.0984   YY=            -11.8374   ZZ=            -13.8412
   XY=             -2.2877   XZ=             -0.0306   YZ=              0.3295

 Normal termination of Gaussian 09 at Wed Aug 26 22:34:21 2020.
