 Gaussian 09, Revision D.01,
 Gaussian 09:  ES64L-G09RevD.01 24-Apr-2013

 --------------------
 #p B2PLYPD3/Def2QZVP
 --------------------

 --------
 methanol
 --------
 Symbolic Z-matrix:
 Charge =  0 Multiplicity = 1

                         Standard orientation:
 ---------------------------------------------------------------------
 Center     Atomic      Atomic             Coordinates (Angstroms)
 Number     Number       Type             X           Y           Z
 ---------------------------------------------------------------------
      1          6           0       -0.678781   -0.016894    0.000891
      2          8           0        0.752882    0.103885   -0.008530
      3          1           0       -1.037307   -0.424995    0.980447
      4          1           0       -0.996168   -0.669900   -0.871122
      5          1           0       -1.071660    0.999085   -0.115819
      6          1           0        1.154761   -0.633907    0.069390
 ---------------------------------------------------------------------

 SCF Done:  E(RB2PLYPD3) =  -115.535253495     A.U. after   10 cycles
 E2(B2PLYPD3) =    -0.1456532160D+00 E(B2PLYPD3) =    -0.11568090671056D+03

 The electronic state is 1-A.
 Alpha  occ. eigenvalues --  -19.71088 -10.66907  -1.18193  -0.79610  -0.59539
 Alpha  occ. eigenvalues --   -0.51507  -0.50153  -0.40800  -0.35574
 Alpha virt. eigenvalues --    0.05378   0.08630   0.12033   0.12369   0.14494
 Alpha virt. eigenvalues --    0.17018   0.17944   0.29029   0.32408   0.33190
 Alpha virt. eigenvalues --    0.37273   0.39389   0.39553   0.40078   0.43041

 Mulliken charges:
               1
     1  C    0.067373
     2  O   -0.409322
     3  H    0.052740
     4  H    0.050141
     5  H    0.079125
     6  H    0.159943
 Sum of Mulliken charges =   0.00000

 Dipole moment (field-independent basis, Debye):
    X=             -0.9059    Y=             -1.3400    Z=              0.1523  Tot=              1.6246
 Quadrupole moment (field-independent basis, Debye-Ang):
   XX=            -12.9486   YY=            -12.4517   ZZ=            -13.6177
   XY=             -2.1986   XZ=              0.1748   YZ=             -0.0933

 Normal termination of Gaussian 09 at Wed Aug 26 10:05:30 2020.
