 Gaussian 09, Revision D.01,
 Gaussian 09:  ES64L-G09RevD.01 24-Apr-2013

 --------------------
 #p B2PLYPD3/Def2QZVP
 --------------------

 --------
 methanol
 --------
 Symbolic Z-matrix:
 Charge =  0 Multiplicity = 1

                         Standard orientation:
 ---------------------------------------------------------------------
 Center     Atomic      Atomic             Coordinates (Angstroms)
 Number     Number       Type             X           Y           Z
 ---------------------------------------------------------------------
      1          6           0        0.685024    0.065974   -0.027281
      2          8           0       -0.738963   -0.203514    0.006324
      3          1           0        0.965817    0.490473    0.793019
      4          1           0        0.962652    0.484560   -0.684907
      5          1           0        1.126563   -0.878981    0.020663
      6          1           0       -1.253474    1.136218   -0.015681
 ---------------------------------------------------------------------

 SCF Done:  E(RB2PLYPD3) =  -115.372360816     A.U. after   12 cycles
 E2(B2PLYPD3) =    -0.1565737598D+00 E(B2PLYPD3) =    -0.11552893457537D+03

 The electronic state is 1-A.
 Alpha  occ. eigenvalues --  -19.75396 -10.60615  -1.10722  -0.82223  -0.57026
 Alpha  occ. eigenvalues --   -0.53407  -0.47726  -0.39196  -0.35717
 Alpha virt. eigenvalues --   -0.01768   0.07434   0.12347   0.13095   0.14637
 Alpha virt. eigenvalues --    0.17501   0.18423   0.21883   0.29350   0.33046
 Alpha virt. eigenvalues --    0.33852   0.38098   0.39826   0.43173   0.46772

 Mulliken charges:
               1
     1  C    0.033688
     2  O   -0.485159
     3  H    0.053274
     4  H    0.123827
     5  H    0.052985
     6  H    0.221385
 Sum of Mulliken charges =   0.00000

 Dipole moment (field-independent basis, Debye):
    X=              1.2081    Y=              1.8018    Z=             -0.0576  Tot=              2.1701
 Quadrupole moment (field-independent basis, Debye-Ang):
   XX=            -12.9141   YY=            -11.3962   ZZ=            -13.8342
   XY=             -2.3908   XZ=             -0.0051   YZ=             -0.1284

 Normal termination of Gaussian 09 at Wed Aug 26 23:54:17 2020.
