 Gaussian 09, Revision D.01,
 Gaussian 09:  ES64L-G09RevD.01 24-Apr-2013

 --------------------
 #p B2PLYPD3/Def2QZVP
 --------------------

 --------
 methanol
 --------
 Symbolic Z-matrix:
 Charge =  0 Multiplicity = 1

                         Standard orientation:
 ---------------------------------------------------------------------
 Center     Atomic      Atomic             Coordinates (Angstroms)
 Number     Number       Type             X           Y           Z
 ---------------------------------------------------------------------
      1          6           0        0.670073   -0.011098    0.030540
      2          8           0       -0.749944   -0.137416   -0.039215
      3          1           0        1.097499    0.271348    0.866097
      4          1           0        1.065157    0.801917   -0.799686
      5          1           0        1.002359   -0.832582   -0.174031
      6          1           0       -1.185902    0.925238    0.238098
 ---------------------------------------------------------------------

 SCF Done:  E(RB2PLYPD3) =  -115.471870577     A.U. after   11 cycles
 E2(B2PLYPD3) =    -0.1516221535D+00 E(B2PLYPD3) =    -0.11562349273022D+03

 The electronic state is 1-A.
 Alpha  occ. eigenvalues --  -19.74507 -10.63622  -1.12988  -0.80265  -0.57296
 Alpha  occ. eigenvalues --   -0.50844  -0.49713  -0.41501  -0.34591
 Alpha virt. eigenvalues --    0.02552   0.07517   0.12219   0.12909   0.14989
 Alpha virt. eigenvalues --    0.17232   0.18564   0.26764   0.29503   0.32120
 Alpha virt. eigenvalues --    0.34410   0.36251   0.40244   0.40819   0.45190

 Mulliken charges:
               1
     1  C    0.066102
     2  O   -0.482644
     3  H    0.050458
     4  H    0.019633
     5  H    0.089058
     6  H    0.257392
 Sum of Mulliken charges =   0.00000

 Dipole moment (field-independent basis, Debye):
    X=              0.8743    Y=              1.4243    Z=              0.6341  Tot=              1.7874
 Quadrupole moment (field-independent basis, Debye-Ang):
   XX=            -12.9699   YY=            -11.9358   ZZ=            -13.9061
   XY=             -2.5542   XZ=             -0.2618   YZ=              0.5367

 Normal termination of Gaussian 09 at Wed Aug 26 23:50:51 2020.
