 Gaussian 09, Revision D.01,
 Gaussian 09:  ES64L-G09RevD.01 24-Apr-2013

 --------------------
 #p B2PLYPD3/Def2QZVP
 --------------------

 --------
 methanol
 --------
 Symbolic Z-matrix:
 Charge =  0 Multiplicity = 1

                         Standard orientation:
 ---------------------------------------------------------------------
 Center     Atomic      Atomic             Coordinates (Angstroms)
 Number     Number       Type             X           Y           Z
 ---------------------------------------------------------------------
      1          6           0        0.668731   -0.014233   -0.001084
      2          8           0       -0.756443    0.102253    0.002917
      3          1           0        1.039529   -0.565430   -0.915221
      4          1           0        1.030554   -0.570717    0.925674
      5          1           0        1.114897    1.023653   -0.005229
      6          1           0       -1.145823   -0.620136   -0.022059
 ---------------------------------------------------------------------

 SCF Done:  E(RB2PLYPD3) =  -115.525557746     A.U. after   10 cycles
 E2(B2PLYPD3) =    -0.1454509536D+00 E(B2PLYPD3) =    -0.11567100869979D+03

 The electronic state is 1-A.
 Alpha  occ. eigenvalues --  -19.71180 -10.67463  -1.19279  -0.79577  -0.60294
 Alpha  occ. eigenvalues --   -0.51091  -0.50091  -0.40881  -0.35646
 Alpha virt. eigenvalues --    0.05367   0.08625   0.12090   0.12200   0.14635
 Alpha virt. eigenvalues --    0.17213   0.17858   0.29016   0.32663   0.33129
 Alpha virt. eigenvalues --    0.37036   0.38974   0.39415   0.39569   0.42655

 Mulliken charges:
               1
     1  C    0.064686
     2  O   -0.381663
     3  H    0.048854
     4  H    0.048751
     5  H    0.077401
     6  H    0.141971
 Sum of Mulliken charges =   0.00000

 Dipole moment (field-independent basis, Debye):
    X=              0.8849    Y=             -1.3446    Z=             -0.0599  Tot=              1.6108
 Quadrupole moment (field-independent basis, Debye-Ang):
   XX=            -12.8996   YY=            -12.4769   ZZ=            -13.7511
   XY=              2.1626   XZ=              0.0387   YZ=              0.0322

 Normal termination of Gaussian 09 at Wed Aug 26 23:15:05 2020.
