 Gaussian 09, Revision D.01,
 Gaussian 09:  ES64L-G09RevD.01 24-Apr-2013

 --------------------
 #p B2PLYPD3/Def2QZVP
 --------------------

 --------
 methanol
 --------
 Symbolic Z-matrix:
 Charge =  0 Multiplicity = 1

                         Standard orientation:
 ---------------------------------------------------------------------
 Center     Atomic      Atomic             Coordinates (Angstroms)
 Number     Number       Type             X           Y           Z
 ---------------------------------------------------------------------
      1          6           0        0.658002   -0.014459    0.020793
      2          8           0       -0.737788    0.084804   -0.014315
      3          1           0        1.011056   -0.770644   -0.841226
      4          1           0        0.985631   -0.387871    0.988905
      5          1           0        1.083897    1.066654   -0.212024
      6          1           0       -1.126289   -0.499819    0.054110
 ---------------------------------------------------------------------

 SCF Done:  E(RB2PLYPD3) =  -115.425075364     A.U. after   11 cycles
 E2(B2PLYPD3) =    -0.1437298891D+00 E(B2PLYPD3) =    -0.11556880525333D+03

 The electronic state is 1-A.
 Alpha  occ. eigenvalues --  -19.69602 -10.68264  -1.24037  -0.81776  -0.61933
 Alpha  occ. eigenvalues --   -0.51916  -0.50290  -0.40173  -0.35735
 Alpha virt. eigenvalues --    0.05334   0.09292   0.11718   0.12036   0.14611
 Alpha virt. eigenvalues --    0.16880   0.17562   0.28818   0.32532   0.33479
 Alpha virt. eigenvalues --    0.36247   0.37598   0.40444   0.40907   0.42496

 Mulliken charges:
               1
     1  C    0.056752
     2  O   -0.248907
     3  H    0.035008
     4  H    0.059911
     5  H    0.077342
     6  H    0.019895
 Sum of Mulliken charges =   0.00000

 Dipole moment (field-independent basis, Debye):
    X=              0.7642    Y=             -1.1904    Z=              0.2462  Tot=              1.4358
 Quadrupole moment (field-independent basis, Debye-Ang):
   XX=            -13.0018   YY=            -12.5946   ZZ=            -13.5628
   XY=              1.9624   XZ=             -0.1346   YZ=             -0.2069

 Normal termination of Gaussian 09 at Wed Aug 26 17:29:26 2020.
