 Gaussian 09, Revision D.01,
 Gaussian 09:  ES64L-G09RevD.01 24-Apr-2013

 --------------------
 #p B2PLYPD3/Def2QZVP
 --------------------

 --------
 methanol
 --------
 Symbolic Z-matrix:
 Charge =  0 Multiplicity = 1

                         Standard orientation:
 ---------------------------------------------------------------------
 Center     Atomic      Atomic             Coordinates (Angstroms)
 Number     Number       Type             X           Y           Z
 ---------------------------------------------------------------------
      1          6           0       -0.678180    0.003948   -0.006514
      2          8           0        0.753636   -0.132041   -0.006638
      3          1           0       -1.069107    0.541684   -0.856440
      4          1           0       -1.023085    0.550472    0.866564
      5          1           0       -1.016455   -0.934282    0.050715
      6          1           0        1.148639    0.874770    0.031351
 ---------------------------------------------------------------------

 SCF Done:  E(RB2PLYPD3) =  -115.533016348     A.U. after   11 cycles
 E2(B2PLYPD3) =    -0.1495853014D+00 E(B2PLYPD3) =    -0.11568260164915D+03

 The electronic state is 1-A.
 Alpha  occ. eigenvalues --  -19.73451 -10.64396  -1.13521  -0.78896  -0.57334
 Alpha  occ. eigenvalues --   -0.51145  -0.49676  -0.41644  -0.35028
 Alpha virt. eigenvalues --    0.03967   0.07895   0.12501   0.12594   0.14953
 Alpha virt. eigenvalues --    0.17121   0.18102   0.28982   0.30925   0.33227
 Alpha virt. eigenvalues --    0.33606   0.38560   0.40509   0.40826   0.43833

 Mulliken charges:
               1
     1  C    0.078669
     2  O   -0.490234
     3  H    0.047632
     4  H    0.040345
     5  H    0.076871
     6  H    0.246718
 Sum of Mulliken charges =   0.00000

 Dipole moment (field-independent basis, Debye):
    X=             -0.9857    Y=              1.5715    Z=              0.0711  Tot=              1.8564
 Quadrupole moment (field-independent basis, Debye-Ang):
   XX=            -13.1159   YY=            -11.8311   ZZ=            -13.9256
   XY=              2.3131   XZ=              0.1023   YZ=             -0.0104

 Normal termination of Gaussian 09 at Wed Aug 26 11:03:05 2020.
