 Gaussian 09, Revision D.01,
 Gaussian 09:  ES64L-G09RevD.01 24-Apr-2013

 --------------------
 #p B2PLYPD3/Def2QZVP
 --------------------

 --------
 methanol
 --------
 Symbolic Z-matrix:
 Charge =  0 Multiplicity = 1

                         Standard orientation:
 ---------------------------------------------------------------------
 Center     Atomic      Atomic             Coordinates (Angstroms)
 Number     Number       Type             X           Y           Z
 ---------------------------------------------------------------------
      1          6           0        0.669661   -0.009560   -0.001503
      2          8           0       -0.753569    0.103583   -0.011245
      3          1           0        1.050459   -0.678925   -0.846207
      4          1           0        1.038145   -0.411263    0.987303
      5          1           0        1.050506    0.992583   -0.112593
      6          1           0       -1.128521   -0.673703    0.070476
 ---------------------------------------------------------------------

 SCF Done:  E(RB2PLYPD3) =  -115.541782820     A.U. after   10 cycles
 E2(B2PLYPD3) =    -0.1460241305D+00 E(B2PLYPD3) =    -0.11568780695001D+03

 The electronic state is 1-A.
 Alpha  occ. eigenvalues --  -19.71662 -10.66735  -1.18081  -0.79282  -0.59572
 Alpha  occ. eigenvalues --   -0.51093  -0.50341  -0.41271  -0.35479
 Alpha virt. eigenvalues --    0.05295   0.08525   0.12060   0.12415   0.14716
 Alpha virt. eigenvalues --    0.17057   0.18036   0.29012   0.32985   0.33153
 Alpha virt. eigenvalues --    0.36892   0.39072   0.39544   0.40130   0.43161

 Mulliken charges:
               1
     1  C    0.064876
     2  O   -0.416074
     3  H    0.045966
     4  H    0.047946
     5  H    0.078938
     6  H    0.178349
 Sum of Mulliken charges =   0.00000

 Dipole moment (field-independent basis, Debye):
    X=              0.8927    Y=             -1.3555    Z=              0.1548  Tot=              1.6304
 Quadrupole moment (field-independent basis, Debye-Ang):
   XX=            -13.0598   YY=            -12.3484   ZZ=            -13.7314
   XY=              2.1719   XZ=             -0.2220   YZ=             -0.0947

 Normal termination of Gaussian 09 at Thu Aug 27 00:07:27 2020.
