 Gaussian 09, Revision D.01,
 Gaussian 09:  ES64L-G09RevD.01 24-Apr-2013

 --------------------
 #p B2PLYPD3/Def2QZVP
 --------------------

 --------
 methanol
 --------
 Symbolic Z-matrix:
 Charge =  0 Multiplicity = 1

                         Standard orientation:
 ---------------------------------------------------------------------
 Center     Atomic      Atomic             Coordinates (Angstroms)
 Number     Number       Type             X           Y           Z
 ---------------------------------------------------------------------
      1          6           0       -0.621957    0.062573   -0.021202
      2          8           0        0.714975   -0.213220    0.007869
      3          1           0       -0.998614    0.464179   -0.698823
      4          1           0       -0.985961    0.503912    0.779895
      5          1           0       -1.205683   -0.821458    0.013633
      6          1           0        1.202202    1.183689   -0.030446
 ---------------------------------------------------------------------

 SCF Done:  E(RB2PLYPD3) =  -115.384791454     A.U. after   11 cycles
 E2(B2PLYPD3) =    -0.1566391821D+00 E(B2PLYPD3) =    -0.11554143063637D+03

 The electronic state is 1-A.
 Alpha  occ. eigenvalues --  -19.76101 -10.60756  -1.13843  -0.81474  -0.55536
 Alpha  occ. eigenvalues --   -0.53535  -0.50440  -0.37802  -0.35596
 Alpha virt. eigenvalues --   -0.03362   0.07270   0.12837   0.13113   0.14727
 Alpha virt. eigenvalues --    0.18345   0.18783   0.21190   0.29428   0.33909
 Alpha virt. eigenvalues --    0.35949   0.38322   0.40229   0.42819   0.46033

 Mulliken charges:
               1
     1  C    0.086923
     2  O   -0.449464
     3  H    0.065799
     4  H    0.038617
     5  H    0.032997
     6  H    0.225128
 Sum of Mulliken charges =   0.00000

 Dipole moment (field-independent basis, Debye):
    X=             -1.0086    Y=              1.8494    Z=             -0.1086  Tot=              2.1094
 Quadrupole moment (field-independent basis, Debye-Ang):
   XX=            -12.9954   YY=            -11.5101   ZZ=            -13.9784
   XY=              2.3571   XZ=              0.0243   YZ=             -0.1150

 Normal termination of Gaussian 09 at Wed Aug 26 23:34:15 2020.
