 Gaussian 09, Revision D.01,
 Gaussian 09:  ES64L-G09RevD.01 24-Apr-2013

 --------------------
 #p B2PLYPD3/Def2QZVP
 --------------------

 --------
 methanol
 --------
 Symbolic Z-matrix:
 Charge =  0 Multiplicity = 1

                         Standard orientation:
 ---------------------------------------------------------------------
 Center     Atomic      Atomic             Coordinates (Angstroms)
 Number     Number       Type             X           Y           Z
 ---------------------------------------------------------------------
      1          6           0       -0.681971   -0.017319    0.022918
      2          8           0        0.743255   -0.085826   -0.050585
      3          1           0       -1.107881    0.870487   -0.764432
      4          1           0       -1.017119    0.198091    1.031976
      5          1           0       -0.934622   -0.906769   -0.279319
      6          1           0        1.205404    0.628712    0.278944
 ---------------------------------------------------------------------

 SCF Done:  E(RB2PLYPD3) =  -115.526449268     A.U. after   11 cycles
 E2(B2PLYPD3) =    -0.1468117383D+00 E(B2PLYPD3) =    -0.11567326100620D+03

 The electronic state is 1-A.
 Alpha  occ. eigenvalues --  -19.71772 -10.66307  -1.16518  -0.80083  -0.58999
 Alpha  occ. eigenvalues --   -0.51865  -0.49844  -0.41064  -0.34734
 Alpha virt. eigenvalues --    0.05110   0.08245   0.11697   0.12737   0.14709
 Alpha virt. eigenvalues --    0.16636   0.18124   0.28980   0.31840   0.33146
 Alpha virt. eigenvalues --    0.35491   0.38434   0.39128   0.40799   0.44773

 Mulliken charges:
               1
     1  C    0.064778
     2  O   -0.447864
     3  H    0.029360
     4  H    0.055177
     5  H    0.091815
     6  H    0.206735
 Sum of Mulliken charges =   0.00000

 Dipole moment (field-independent basis, Debye):
    X=             -0.7259    Y=              1.0895    Z=              0.7465  Tot=              1.5070
 Quadrupole moment (field-independent basis, Debye-Ang):
   XX=            -12.8982   YY=            -12.6031   ZZ=            -13.4982
   XY=              2.1702   XZ=              0.7485   YZ=              0.5517

 Normal termination of Gaussian 09 at Wed Aug 26 22:12:29 2020.
