 Gaussian 09, Revision D.01,
 Gaussian 09:  ES64L-G09RevD.01 24-Apr-2013

 --------------------
 #p B2PLYPD3/Def2QZVP
 --------------------

 --------
 methanol
 --------
 Symbolic Z-matrix:
 Charge =  0 Multiplicity = 1

                         Standard orientation:
 ---------------------------------------------------------------------
 Center     Atomic      Atomic             Coordinates (Angstroms)
 Number     Number       Type             X           Y           Z
 ---------------------------------------------------------------------
      1          6           0       -0.679770   -0.036656    0.003329
      2          8           0        0.746296    0.144242   -0.003467
      3          1           0       -0.995896   -0.489640    0.861454
      4          1           0       -1.004106   -0.563470   -0.835027
      5          1           0       -1.095789    0.959855   -0.033140
      6          1           0        1.204050   -0.840746    0.014473
 ---------------------------------------------------------------------

 SCF Done:  E(RB2PLYPD3) =  -115.534161648     A.U. after   11 cycles
 E2(B2PLYPD3) =    -0.1493503360D+00 E(B2PLYPD3) =    -0.11568351198369D+03

 The electronic state is 1-A.
 Alpha  occ. eigenvalues --  -19.73216 -10.64092  -1.13262  -0.78954  -0.56805
 Alpha  occ. eigenvalues --   -0.52887  -0.48926  -0.40665  -0.35350
 Alpha virt. eigenvalues --    0.04042   0.07869   0.12472   0.12642   0.14835
 Alpha virt. eigenvalues --    0.17256   0.18170   0.29023   0.30775   0.33301
 Alpha virt. eigenvalues --    0.33600   0.38888   0.39885   0.42648   0.44245

 Mulliken charges:
               1
     1  C    0.084068
     2  O   -0.498513
     3  H    0.052543
     4  H    0.050172
     5  H    0.065433
     6  H    0.246297
 Sum of Mulliken charges =   0.00000

 Dipole moment (field-independent basis, Debye):
    X=             -0.9323    Y=             -1.6398    Z=              0.0449  Tot=              1.8868
 Quadrupole moment (field-independent basis, Debye-Ang):
   XX=            -12.8339   YY=            -12.0565   ZZ=            -13.7701
   XY=             -2.3823   XZ=              0.0314   YZ=             -0.0280

 Normal termination of Gaussian 09 at Wed Aug 26 16:29:15 2020.
