 Gaussian 09, Revision D.01,
 Gaussian 09:  ES64L-G09RevD.01 24-Apr-2013

 --------------------
 #p B2PLYPD3/Def2QZVP
 --------------------

 --------
 methanol
 --------
 Symbolic Z-matrix:
 Charge =  0 Multiplicity = 1

                         Standard orientation:
 ---------------------------------------------------------------------
 Center     Atomic      Atomic             Coordinates (Angstroms)
 Number     Number       Type             X           Y           Z
 ---------------------------------------------------------------------
      1          6           0        0.657253    0.033000    0.000316
      2          8           0       -0.726490   -0.161545    0.002603
      3          1           0        0.948030    0.509042    0.850351
      4          1           0        1.005189    0.503111   -0.812214
      5          1           0        1.054023   -0.895497   -0.020590
      6          1           0       -1.138841    0.977711   -0.040265
 ---------------------------------------------------------------------

 SCF Done:  E(RB2PLYPD3) =  -115.497267573     A.U. after   11 cycles
 E2(B2PLYPD3) =    -0.1511680351D+00 E(B2PLYPD3) =    -0.11564843560828D+03

 The electronic state is 1-A.
 Alpha  occ. eigenvalues --  -19.74084 -10.62250  -1.13628  -0.79140  -0.56522
 Alpha  occ. eigenvalues --   -0.53810  -0.49381  -0.40408  -0.35110
 Alpha virt. eigenvalues --    0.02194   0.07912   0.12694   0.12751   0.14907
 Alpha virt. eigenvalues --    0.17448   0.18280   0.26112   0.29470   0.33342
 Alpha virt. eigenvalues --    0.35243   0.39385   0.40292   0.43510   0.44525

 Mulliken charges:
               1
     1  C    0.094119
     2  O   -0.484430
     3  H    0.043353
     4  H    0.039602
     5  H    0.059631
     6  H    0.247725
 Sum of Mulliken charges =   0.00000

 Dipole moment (field-independent basis, Debye):
    X=              0.9736    Y=              1.6829    Z=             -0.0824  Tot=              1.9459
 Quadrupole moment (field-independent basis, Debye-Ang):
   XX=            -13.2340   YY=            -11.6917   ZZ=            -13.7436
   XY=             -2.3578   XZ=             -0.0037   YZ=             -0.0444

 Normal termination of Gaussian 09 at Wed Aug 26 16:02:58 2020.
