 Gaussian 09, Revision D.01,
 Gaussian 09:  ES64L-G09RevD.01 24-Apr-2013

 --------------------
 #p B2PLYPD3/Def2QZVP
 --------------------

 --------
 methanol
 --------
 Symbolic Z-matrix:
 Charge =  0 Multiplicity = 1

                         Standard orientation:
 ---------------------------------------------------------------------
 Center     Atomic      Atomic             Coordinates (Angstroms)
 Number     Number       Type             X           Y           Z
 ---------------------------------------------------------------------
      1          6           0        0.661552   -0.028631   -0.018581
      2          8           0       -0.750730    0.090950    0.007721
      3          1           0        0.848015   -0.779256   -0.830997
      4          1           0        1.096452   -0.340693    1.087840
      5          1           0        1.192827    1.009435   -0.259828
      6          1           0       -1.100770   -0.445301    0.052704
 ---------------------------------------------------------------------

 SCF Done:  E(RB2PLYPD3) =  -115.312397448     A.U. after   11 cycles
 E2(B2PLYPD3) =    -0.1437016001D+00 E(B2PLYPD3) =    -0.11545609904819D+03

 The electronic state is 1-A.
 Alpha  occ. eigenvalues --  -19.69020 -10.69368  -1.26700  -0.82234  -0.61799
 Alpha  occ. eigenvalues --   -0.52271  -0.50113  -0.40060  -0.35990
 Alpha virt. eigenvalues --    0.05209   0.09229   0.11539   0.11959   0.13885
 Alpha virt. eigenvalues --    0.17209   0.17644   0.28299   0.32045   0.32413
 Alpha virt. eigenvalues --    0.35269   0.36272   0.39423   0.40783   0.43682

 Mulliken charges:
               1
     1  C    0.055542
     2  O   -0.203935
     3  H    0.058151
     4  H    0.042853
     5  H    0.079239
     6  H   -0.031850
 Sum of Mulliken charges =   0.00000

 Dipole moment (field-independent basis, Debye):
    X=              0.9063    Y=             -1.1470    Z=             -0.0298  Tot=              1.4621
 Quadrupole moment (field-independent basis, Debye-Ang):
   XX=            -13.0033   YY=            -12.7761   ZZ=            -13.4680
   XY=              2.0852   XZ=             -0.1273   YZ=              0.0511

 Normal termination of Gaussian 09 at Wed Aug 26 21:42:41 2020.
