 Gaussian 09, Revision D.01,
 Gaussian 09:  ES64L-G09RevD.01 24-Apr-2013

 --------------------
 #p B2PLYPD3/Def2QZVP
 --------------------

 --------
 methanol
 --------
 Symbolic Z-matrix:
 Charge =  0 Multiplicity = 1

                         Standard orientation:
 ---------------------------------------------------------------------
 Center     Atomic      Atomic             Coordinates (Angstroms)
 Number     Number       Type             X           Y           Z
 ---------------------------------------------------------------------
      1          6           0       -0.666714   -0.024622    0.008379
      2          8           0        0.752660    0.115149   -0.009786
      3          1           0       -1.002755   -0.516171    0.898957
      4          1           0       -1.046938   -0.591817   -0.883853
      5          1           0       -1.124357    1.016399   -0.023556
      6          1           0        1.153056   -0.681871    0.036471
 ---------------------------------------------------------------------

 SCF Done:  E(RB2PLYPD3) =  -115.546658877     A.U. after   10 cycles
 E2(B2PLYPD3) =    -0.1463432206D+00 E(B2PLYPD3) =    -0.11569300209730D+03

 The electronic state is 1-A.
 Alpha  occ. eigenvalues --  -19.71932 -10.66478  -1.17398  -0.79025  -0.59631
 Alpha  occ. eigenvalues --   -0.51697  -0.49586  -0.40840  -0.35610
 Alpha virt. eigenvalues --    0.05239   0.08374   0.12226   0.12329   0.14773
 Alpha virt. eigenvalues --    0.17317   0.17993   0.29106   0.33100   0.33286
 Alpha virt. eigenvalues --    0.36489   0.38266   0.39551   0.40770   0.43441

 Mulliken charges:
               1
     1  C    0.068975
     2  O   -0.434093
     3  H    0.053875
     4  H    0.047400
     5  H    0.069210
     6  H    0.194633
 Sum of Mulliken charges =   0.00000

 Dipole moment (field-independent basis, Debye):
    X=             -0.8687    Y=             -1.4629    Z=              0.1344  Tot=              1.7067
 Quadrupole moment (field-independent basis, Debye-Ang):
   XX=            -12.8938   YY=            -12.3942   ZZ=            -13.7681
   XY=             -2.2024   XZ=              0.0946   YZ=             -0.0905

 Normal termination of Gaussian 09 at Wed Aug 26 23:10:14 2020.
