 Gaussian 09, Revision D.01,
 Gaussian 09:  ES64L-G09RevD.01 24-Apr-2013

 --------------------
 #p B2PLYPD3/Def2QZVP
 --------------------

 --------
 methanol
 --------
 Symbolic Z-matrix:
 Charge =  0 Multiplicity = 1

                         Standard orientation:
 ---------------------------------------------------------------------
 Center     Atomic      Atomic             Coordinates (Angstroms)
 Number     Number       Type             X           Y           Z
 ---------------------------------------------------------------------
      1          6           0       -0.685691   -0.018933    0.000260
      2          8           0        0.751524    0.083593   -0.015332
      3          1           0       -1.025852   -0.374850    1.008427
      4          1           0       -0.986869   -0.770461   -0.822039
      5          1           0       -1.059603    1.082589   -0.176003
      6          1           0        1.174274   -0.492425    0.110714
 ---------------------------------------------------------------------

 SCF Done:  E(RB2PLYPD3) =  -115.449046700     A.U. after   11 cycles
 E2(B2PLYPD3) =    -0.1443646336D+00 E(B2PLYPD3) =    -0.11559341133345D+03

 The electronic state is 1-A.
 Alpha  occ. eigenvalues --  -19.69335 -10.68470  -1.21712  -0.81150  -0.60841
 Alpha  occ. eigenvalues --   -0.51464  -0.49599  -0.40090  -0.35805
 Alpha virt. eigenvalues --    0.05350   0.09108   0.11727   0.11951   0.14422
 Alpha virt. eigenvalues --    0.16650   0.17565   0.29008   0.31655   0.33001
 Alpha virt. eigenvalues --    0.36599   0.38289   0.39510   0.40320   0.42091

 Mulliken charges:
               1
     1  C    0.062797
     2  O   -0.292409
     3  H    0.056880
     4  H    0.055292
     5  H    0.082999
     6  H    0.034441
 Sum of Mulliken charges =   0.00000

 Dipole moment (field-independent basis, Debye):
    X=             -0.8955    Y=             -1.2030    Z=              0.2962  Tot=              1.5287
 Quadrupole moment (field-independent basis, Debye-Ang):
   XX=            -12.8577   YY=            -12.5273   ZZ=            -13.5597
   XY=             -1.9381   XZ=              0.3214   YZ=             -0.1289

 Normal termination of Gaussian 09 at Wed Aug 26 16:10:43 2020.
