 Gaussian 09, Revision D.01,
 Gaussian 09:  ES64L-G09RevD.01 24-Apr-2013

 --------------------
 #p B2PLYPD3/Def2QZVP
 --------------------

 --------
 methanol
 --------
 Symbolic Z-matrix:
 Charge =  0 Multiplicity = 1

                         Standard orientation:
 ---------------------------------------------------------------------
 Center     Atomic      Atomic             Coordinates (Angstroms)
 Number     Number       Type             X           Y           Z
 ---------------------------------------------------------------------
      1          6           0       -0.657884    0.012563    0.004538
      2          8           0        0.739136   -0.137923   -0.013461
      3          1           0       -1.029326    0.649623   -0.826280
      4          1           0       -1.008823    0.456526    0.894504
      5          1           0       -1.107631   -0.912117   -0.058994
      6          1           0        1.179995    0.833969    0.071229
 ---------------------------------------------------------------------

 SCF Done:  E(RB2PLYPD3) =  -115.538174004     A.U. after   11 cycles
 E2(B2PLYPD3) =    -0.1487931066D+00 E(B2PLYPD3) =    -0.11568696711083D+03

 The electronic state is 1-A.
 Alpha  occ. eigenvalues --  -19.73408 -10.64473  -1.14695  -0.78613  -0.57574
 Alpha  occ. eigenvalues --   -0.51503  -0.50663  -0.40817  -0.34888
 Alpha virt. eigenvalues --    0.04029   0.07904   0.12544   0.12770   0.14948
 Alpha virt. eigenvalues --    0.17548   0.18147   0.29149   0.30934   0.33222
 Alpha virt. eigenvalues --    0.34442   0.39088   0.40672   0.41070   0.43835

 Mulliken charges:
               1
     1  C    0.078090
     2  O   -0.479895
     3  H    0.036595
     4  H    0.043104
     5  H    0.071180
     6  H    0.250926
 Sum of Mulliken charges =   0.00000

 Dipole moment (field-independent basis, Debye):
    X=             -0.8054    Y=              1.5534    Z=              0.1947  Tot=              1.7605
 Quadrupole moment (field-independent basis, Debye-Ang):
   XX=            -12.8558   YY=            -12.0837   ZZ=            -13.9221
   XY=              2.4730   XZ=              0.1436   YZ=              0.1262

 Normal termination of Gaussian 09 at Wed Aug 26 23:15:11 2020.
