 Gaussian 09, Revision D.01,
 Gaussian 09:  ES64L-G09RevD.01 24-Apr-2013

 --------------------
 #p B2PLYPD3/Def2QZVP
 --------------------

 --------
 methanol
 --------
 Symbolic Z-matrix:
 Charge =  0 Multiplicity = 1

                         Standard orientation:
 ---------------------------------------------------------------------
 Center     Atomic      Atomic             Coordinates (Angstroms)
 Number     Number       Type             X           Y           Z
 ---------------------------------------------------------------------
      1          6           0        0.656071   -0.022441    0.004172
      2          8           0       -0.743276    0.111821   -0.001224
      3          1           0        1.002235   -0.603800   -0.896885
      4          1           0        1.063027   -0.483516    0.928011
      5          1           0        1.098003    0.999355   -0.073192
      6          1           0       -1.153479   -0.671964    0.026830
 ---------------------------------------------------------------------

 SCF Done:  E(RB2PLYPD3) =  -115.546307428     A.U. after   10 cycles
 E2(B2PLYPD3) =    -0.1460295607D+00 E(B2PLYPD3) =    -0.11569233698838D+03

 The electronic state is 1-A.
 Alpha  occ. eigenvalues --  -19.71929 -10.66539  -1.18229  -0.79051  -0.59928
 Alpha  occ. eigenvalues --   -0.51695  -0.50204  -0.40527  -0.35493
 Alpha virt. eigenvalues --    0.05268   0.08443   0.12244   0.12402   0.14760
 Alpha virt. eigenvalues --    0.17236   0.18158   0.28993   0.33147   0.34004
 Alpha virt. eigenvalues --    0.36583   0.38888   0.39578   0.40429   0.43221

 Mulliken charges:
               1
     1  C    0.062481
     2  O   -0.419891
     3  H    0.044815
     4  H    0.050178
     5  H    0.070395
     6  H    0.192022
 Sum of Mulliken charges =   0.00000

 Dipole moment (field-independent basis, Debye):
    X=              0.7671    Y=             -1.4060    Z=              0.0615  Tot=              1.6028
 Quadrupole moment (field-independent basis, Debye-Ang):
   XX=            -12.8841   YY=            -12.4886   ZZ=            -13.7435
   XY=              2.2266   XZ=             -0.0143   YZ=             -0.0585

 Normal termination of Gaussian 09 at Wed Aug 26 10:13:03 2020.
