 Gaussian 09, Revision D.01,
 Gaussian 09:  ES64L-G09RevD.01 24-Apr-2013

 --------------------
 #p B2PLYPD3/Def2QZVP
 --------------------

 --------
 methanol
 --------
 Symbolic Z-matrix:
 Charge =  0 Multiplicity = 1

                         Standard orientation:
 ---------------------------------------------------------------------
 Center     Atomic      Atomic             Coordinates (Angstroms)
 Number     Number       Type             X           Y           Z
 ---------------------------------------------------------------------
      1          6           0        0.700524    0.010674    0.001369
      2          8           0       -0.756390   -0.164259    0.002869
      3          1           0        0.941656    0.591385    0.819393
      4          1           0        1.128911    0.420900   -0.808334
      5          1           0        0.944282   -0.849505    0.048923
      6          1           0       -1.166871    1.087253   -0.091152
 ---------------------------------------------------------------------

 SCF Done:  E(RB2PLYPD3) =  -115.440257336     A.U. after   11 cycles
 E2(B2PLYPD3) =    -0.1548282874D+00 E(B2PLYPD3) =    -0.11559508562300D+03

 The electronic state is 1-A.
 Alpha  occ. eigenvalues --  -19.74761 -10.61817  -1.10702  -0.80650  -0.56933
 Alpha  occ. eigenvalues --   -0.52541  -0.47284  -0.40992  -0.35173
 Alpha virt. eigenvalues --    0.00504   0.07571   0.12670   0.12686   0.14540
 Alpha virt. eigenvalues --    0.16861   0.18357   0.23878   0.29163   0.32044
 Alpha virt. eigenvalues --    0.34001   0.38067   0.40385   0.42904   0.44429

 Mulliken charges:
               1
     1  C    0.065980
     2  O   -0.501657
     3  H    0.049988
     4  H    0.046908
     5  H    0.102173
     6  H    0.236608
 Sum of Mulliken charges =   0.00000

 Dipole moment (field-independent basis, Debye):
    X=              1.2522    Y=              1.6602    Z=             -0.1374  Tot=              2.0841
 Quadrupole moment (field-independent basis, Debye-Ang):
   XX=            -13.2569   YY=            -11.3216   ZZ=            -13.8758
   XY=             -2.3011   XZ=             -0.0228   YZ=             -0.1025

 Normal termination of Gaussian 09 at Wed Aug 26 23:57:00 2020.
