 Gaussian 09, Revision D.01,
 Gaussian 09:  ES64L-G09RevD.01 24-Apr-2013

 --------------------
 #p B2PLYPD3/Def2QZVP
 --------------------

 --------
 methanol
 --------
 Symbolic Z-matrix:
 Charge =  0 Multiplicity = 1

                         Standard orientation:
 ---------------------------------------------------------------------
 Center     Atomic      Atomic             Coordinates (Angstroms)
 Number     Number       Type             X           Y           Z
 ---------------------------------------------------------------------
      1          6           0        0.663208    0.010178   -0.002104
      2          8           0       -0.740366   -0.128603   -0.001390
      3          1           0        1.015823    0.509733    0.896592
      4          1           0        0.974972    0.584074   -0.870215
      5          1           0        1.064354   -0.932778   -0.029936
      6          1           0       -1.111467    0.806727    0.027297
 ---------------------------------------------------------------------

 SCF Done:  E(RB2PLYPD3) =  -115.547470322     A.U. after   10 cycles
 E2(B2PLYPD3) =    -0.1477068880D+00 E(B2PLYPD3) =    -0.11569517720960D+03

 The electronic state is 1-A.
 Alpha  occ. eigenvalues --  -19.72762 -10.64605  -1.15608  -0.78814  -0.58222
 Alpha  occ. eigenvalues --   -0.51991  -0.50539  -0.41364  -0.35021
 Alpha virt. eigenvalues --    0.04600   0.08286   0.12376   0.12670   0.14847
 Alpha virt. eigenvalues --    0.17410   0.17958   0.29200   0.33004   0.33173
 Alpha virt. eigenvalues --    0.34316   0.39243   0.40814   0.41262   0.44103

 Mulliken charges:
               1
     1  C    0.076093
     2  O   -0.469211
     3  H    0.041731
     4  H    0.042164
     5  H    0.073284
     6  H    0.235938
 Sum of Mulliken charges =   0.00000

 Dipole moment (field-independent basis, Debye):
    X=              0.9107    Y=              1.5176    Z=              0.0451  Tot=              1.7704
 Quadrupole moment (field-independent basis, Debye-Ang):
   XX=            -13.2081   YY=            -12.0191   ZZ=            -13.7726
   XY=             -2.3300   XZ=             -0.0330   YZ=              0.0288

 Normal termination of Gaussian 09 at Wed Aug 26 10:09:57 2020.
