 Gaussian 09, Revision D.01,
 Gaussian 09:  ES64L-G09RevD.01 24-Apr-2013

 --------------------
 #p B2PLYPD3/Def2QZVP
 --------------------

 --------
 methanol
 --------
 Symbolic Z-matrix:
 Charge =  0 Multiplicity = 1

                         Standard orientation:
 ---------------------------------------------------------------------
 Center     Atomic      Atomic             Coordinates (Angstroms)
 Number     Number       Type             X           Y           Z
 ---------------------------------------------------------------------
      1          6           0        0.642353    0.019391   -0.008954
      2          8           0       -0.748001    0.047221   -0.007637
      3          1           0        1.085466   -0.841297   -0.803199
      4          1           0        1.044335   -0.335413    1.123571
      5          1           0        1.011680    1.068484   -0.257335
      6          1           0       -1.011590   -0.385885    0.051786
 ---------------------------------------------------------------------

 SCF Done:  E(RB2PLYPD3) =  -114.832678372     A.U. after   11 cycles
 E2(B2PLYPD3) =    -0.1429670606D+00 E(B2PLYPD3) =    -0.11497564543263D+03

 The electronic state is 1-A.
 Alpha  occ. eigenvalues --  -19.69251 -10.70497  -1.34472  -0.85306  -0.62614
 Alpha  occ. eigenvalues --   -0.52243  -0.50833  -0.41416  -0.35752
 Alpha virt. eigenvalues --    0.04997   0.09732   0.11062   0.11714   0.14456
 Alpha virt. eigenvalues --    0.16674   0.17355   0.27756   0.31597   0.33101
 Alpha virt. eigenvalues --    0.34708   0.36370   0.38184   0.41453   0.42814

 Mulliken charges:
               1
     1  C    0.049073
     2  O   -0.031015
     3  H    0.034439
     4  H    0.035017
     5  H    0.098995
     6  H   -0.186509
 Sum of Mulliken charges =   0.00000

 Dipole moment (field-independent basis, Debye):
    X=              0.8933    Y=             -0.8886    Z=              0.0876  Tot=              1.2630
 Quadrupole moment (field-independent basis, Debye-Ang):
   XX=            -13.3584   YY=            -12.4030   ZZ=            -13.5856
   XY=              1.7017   XZ=             -0.3239   YZ=             -0.1745

 Normal termination of Gaussian 09 at Wed Aug 26 20:14:04 2020.
