 Gaussian 09, Revision D.01,
 Gaussian 09:  ES64L-G09RevD.01 24-Apr-2013

 --------------------
 #p B2PLYPD3/Def2QZVP
 --------------------

 --------
 methanol
 --------
 Symbolic Z-matrix:
 Charge =  0 Multiplicity = 1

                         Standard orientation:
 ---------------------------------------------------------------------
 Center     Atomic      Atomic             Coordinates (Angstroms)
 Number     Number       Type             X           Y           Z
 ---------------------------------------------------------------------
      1          6           0       -0.665869    0.019041   -0.002331
      2          8           0        0.760971   -0.133424   -0.002337
      3          1           0       -1.083030    0.549226   -0.829264
      4          1           0       -1.099880    0.503790    0.843924
      5          1           0       -1.052642   -0.979857   -0.006565
      6          1           0        1.142999    0.879987    0.024583
 ---------------------------------------------------------------------

 SCF Done:  E(RB2PLYPD3) =  -115.535751496     A.U. after   11 cycles
 E2(B2PLYPD3) =    -0.1499231078D+00 E(B2PLYPD3) =    -0.11568567460392D+03

 The electronic state is 1-A.
 Alpha  occ. eigenvalues --  -19.73990 -10.64822  -1.13854  -0.78623  -0.57400
 Alpha  occ. eigenvalues --   -0.51086  -0.49012  -0.41513  -0.35420
 Alpha virt. eigenvalues --    0.03949   0.07696   0.12318   0.12728   0.15156
 Alpha virt. eigenvalues --    0.17241   0.18369   0.28748   0.30698   0.33571
 Alpha virt. eigenvalues --    0.33852   0.38361   0.39448   0.41110   0.44115

 Mulliken charges:
               1
     1  C    0.072863
     2  O   -0.478608
     3  H    0.046639
     4  H    0.045634
     5  H    0.065884
     6  H    0.247588
 Sum of Mulliken charges =   0.00000

 Dipole moment (field-independent basis, Debye):
    X=             -0.9657    Y=              1.6259    Z=              0.0473  Tot=              1.8916
 Quadrupole moment (field-independent basis, Debye-Ang):
   XX=            -13.0168   YY=            -11.9210   ZZ=            -14.0446
   XY=              2.2130   XZ=              0.0360   YZ=              0.0161

 Normal termination of Gaussian 09 at Wed Aug 26 13:41:46 2020.
