 Gaussian 09, Revision D.01,
 Gaussian 09:  ES64L-G09RevD.01 24-Apr-2013

 --------------------
 #p B2PLYPD3/Def2QZVP
 --------------------

 --------
 methanol
 --------
 Symbolic Z-matrix:
 Charge =  0 Multiplicity = 1

                         Standard orientation:
 ---------------------------------------------------------------------
 Center     Atomic      Atomic             Coordinates (Angstroms)
 Number     Number       Type             X           Y           Z
 ---------------------------------------------------------------------
      1          6           0       -0.635695   -0.018288    0.025355
      2          8           0        0.745590    0.079688   -0.043470
      3          1           0       -0.854056   -0.265043    1.093113
      4          1           0       -1.128751   -0.839908   -0.757543
      5          1           0       -1.215850    1.026709   -0.256704
      6          1           0        1.048106   -0.449528    0.116767
 ---------------------------------------------------------------------

 SCF Done:  E(RB2PLYPD3) =  -115.283899883     A.U. after   11 cycles
 E2(B2PLYPD3) =    -0.1435338627D+00 E(B2PLYPD3) =    -0.11542743374541D+03

 The electronic state is 1-A.
 Alpha  occ. eigenvalues --  -19.69597 -10.69387  -1.28790  -0.82357  -0.62640
 Alpha  occ. eigenvalues --   -0.52522  -0.50572  -0.40003  -0.36154
 Alpha virt. eigenvalues --    0.05169   0.09229   0.11452   0.11969   0.14127
 Alpha virt. eigenvalues --    0.17478   0.17735   0.28007   0.31998   0.33873
 Alpha virt. eigenvalues --    0.34164   0.36025   0.39525   0.41300   0.43868

 Mulliken charges:
               1
     1  C    0.045971
     2  O   -0.174967
     3  H    0.056881
     4  H    0.034957
     5  H    0.070025
     6  H   -0.032868
 Sum of Mulliken charges =   0.00000

 Dipole moment (field-independent basis, Debye):
    X=             -0.8270    Y=             -1.0686    Z=              0.4587  Tot=              1.4270
 Quadrupole moment (field-independent basis, Debye-Ang):
   XX=            -13.1400   YY=            -12.9052   ZZ=            -13.4483
   XY=             -1.8716   XZ=              0.6737   YZ=             -0.2359

 Normal termination of Gaussian 09 at Wed Aug 26 21:52:29 2020.
