 Gaussian 09, Revision D.01,
 Gaussian 09:  ES64L-G09RevD.01 24-Apr-2013

 --------------------
 #p B2PLYPD3/Def2QZVP
 --------------------

 --------
 methanol
 --------
 Symbolic Z-matrix:
 Charge =  0 Multiplicity = 1

                         Standard orientation:
 ---------------------------------------------------------------------
 Center     Atomic      Atomic             Coordinates (Angstroms)
 Number     Number       Type             X           Y           Z
 ---------------------------------------------------------------------
      1          6           0       -0.678482   -0.014729   -0.001496
      2          8           0        0.754319    0.105135   -0.005633
      3          1           0       -1.019858   -0.482313    0.958382
      4          1           0       -1.010769   -0.634082   -0.879648
      5          1           0       -1.082410    1.006020   -0.064783
      6          1           0        1.149376   -0.642328    0.040089
 ---------------------------------------------------------------------

 SCF Done:  E(RB2PLYPD3) =  -115.536755103     A.U. after   10 cycles
 E2(B2PLYPD3) =    -0.1456886218D+00 E(B2PLYPD3) =    -0.11568244372467D+03

 The electronic state is 1-A.
 Alpha  occ. eigenvalues --  -19.71151 -10.66859  -1.18121  -0.79551  -0.59598
 Alpha  occ. eigenvalues --   -0.51402  -0.50158  -0.40960  -0.35543
 Alpha virt. eigenvalues --    0.05363   0.08622   0.12088   0.12323   0.14573
 Alpha virt. eigenvalues --    0.17079   0.17846   0.29076   0.32428   0.33147
 Alpha virt. eigenvalues --    0.37379   0.39372   0.39569   0.39907   0.43057

 Mulliken charges:
               1
     1  C    0.069420
     2  O   -0.411955
     3  H    0.050631
     4  H    0.050277
     5  H    0.079312
     6  H    0.162315
 Sum of Mulliken charges =   0.00000

 Dipole moment (field-independent basis, Debye):
    X=             -0.9229    Y=             -1.3635    Z=              0.0868  Tot=              1.6487
 Quadrupole moment (field-independent basis, Debye-Ang):
   XX=            -12.9628   YY=            -12.3899   ZZ=            -13.6717
   XY=             -2.1974   XZ=              0.1194   YZ=             -0.0437

 Normal termination of Gaussian 09 at Wed Aug 26 23:59:24 2020.
