 Gaussian 09, Revision D.01,
 Gaussian 09:  ES64L-G09RevD.01 24-Apr-2013

 --------------------
 #p B2PLYPD3/Def2QZVP
 --------------------

 --------
 methanol
 --------
 Symbolic Z-matrix:
 Charge =  0 Multiplicity = 1

                         Standard orientation:
 ---------------------------------------------------------------------
 Center     Atomic      Atomic             Coordinates (Angstroms)
 Number     Number       Type             X           Y           Z
 ---------------------------------------------------------------------
      1          6           0       -0.692792   -0.014934    0.006125
      2          8           0        0.778010    0.053094   -0.013744
      3          1           0       -1.036580   -0.469141    0.964990
      4          1           0       -1.148037   -0.640302   -0.875015
      5          1           0       -0.912967    1.241059   -0.063824
      6          1           0        1.030253   -0.466763    0.047049
 ---------------------------------------------------------------------

 SCF Done:  E(RB2PLYPD3) =  -115.141464589     A.U. after   11 cycles
 E2(B2PLYPD3) =    -0.1440907385D+00 E(B2PLYPD3) =    -0.11528555532780D+03

 The electronic state is 1-A.
 Alpha  occ. eigenvalues --  -19.68480 -10.69857  -1.29116  -0.81670  -0.62423
 Alpha  occ. eigenvalues --   -0.51122  -0.47805  -0.41649  -0.37028
 Alpha virt. eigenvalues --    0.04900   0.09004   0.10877   0.11805   0.14773
 Alpha virt. eigenvalues --    0.16325   0.17546   0.28283   0.29613   0.33206
 Alpha virt. eigenvalues --    0.33882   0.36881   0.39219   0.41241   0.41787

 Mulliken charges:
               1
     1  C    0.039175
     2  O   -0.150401
     3  H    0.068949
     4  H    0.063491
     5  H    0.077995
     6  H   -0.099210
 Sum of Mulliken charges =   0.00000

 Dipole moment (field-independent basis, Debye):
    X=             -1.1937    Y=             -1.2302    Z=              0.1983  Tot=              1.7255
 Quadrupole moment (field-independent basis, Debye-Ang):
   XX=            -13.4388   YY=            -12.1829   ZZ=            -13.5136
   XY=             -1.3483   XZ=              0.2009   YZ=             -0.1006

 Normal termination of Gaussian 09 at Wed Aug 26 22:58:38 2020.
