 Gaussian 09, Revision D.01,
 Gaussian 09:  ES64L-G09RevD.01 24-Apr-2013

 --------------------
 #p B2PLYPD3/Def2QZVP
 --------------------

 --------
 methanol
 --------
 Symbolic Z-matrix:
 Charge =  0 Multiplicity = 1

                         Standard orientation:
 ---------------------------------------------------------------------
 Center     Atomic      Atomic             Coordinates (Angstroms)
 Number     Number       Type             X           Y           Z
 ---------------------------------------------------------------------
      1          6           0        0.665627    0.034730    0.007111
      2          8           0       -0.743654   -0.146456   -0.011658
      3          1           0        1.071167    0.398030    0.868028
      4          1           0        0.996972    0.670876   -0.797367
      5          1           0        1.137080   -0.937320   -0.107958
      6          1           0       -1.249751    0.831682    0.087897
 ---------------------------------------------------------------------

 SCF Done:  E(RB2PLYPD3) =  -115.530264227     A.U. after   11 cycles
 E2(B2PLYPD3) =    -0.1496592685D+00 E(B2PLYPD3) =    -0.11567992349581D+03

 The electronic state is 1-A.
 Alpha  occ. eigenvalues --  -19.73656 -10.64421  -1.13567  -0.78722  -0.56919
 Alpha  occ. eigenvalues --   -0.52106  -0.49360  -0.40228  -0.35240
 Alpha virt. eigenvalues --    0.03743   0.07620   0.12554   0.12780   0.14950
 Alpha virt. eigenvalues --    0.17391   0.18429   0.28809   0.30021   0.33349
 Alpha virt. eigenvalues --    0.34197   0.38827   0.39419   0.42024   0.44300

 Mulliken charges:
               1
     1  C    0.078944
     2  O   -0.491497
     3  H    0.051280
     4  H    0.044348
     5  H    0.063196
     6  H    0.253729
 Sum of Mulliken charges =   0.00000

 Dipole moment (field-independent basis, Debye):
    X=              0.7892    Y=              1.6212    Z=              0.2156  Tot=              1.8160
 Quadrupole moment (field-independent basis, Debye-Ang):
   XX=            -12.5029   YY=            -12.2141   ZZ=            -13.9297
   XY=             -2.4845   XZ=             -0.1118   YZ=              0.1147

 Normal termination of Gaussian 09 at Wed Aug 26 15:35:48 2020.
