 Gaussian 09, Revision D.01,
 Gaussian 09:  ES64L-G09RevD.01 24-Apr-2013

 --------------------
 #p B2PLYPD3/Def2QZVP
 --------------------

 --------
 methanol
 --------
 Symbolic Z-matrix:
 Charge =  0 Multiplicity = 1

                         Standard orientation:
 ---------------------------------------------------------------------
 Center     Atomic      Atomic             Coordinates (Angstroms)
 Number     Number       Type             X           Y           Z
 ---------------------------------------------------------------------
      1          6           0       -0.669805    0.017179    0.015361
      2          8           0        0.745455   -0.141668   -0.014536
      3          1           0       -1.031073    0.623296   -0.828700
      4          1           0       -0.968069    0.478771    0.848840
      5          1           0       -1.098626   -0.933930   -0.049347
      6          1           0        1.152964    0.862130    0.053335
 ---------------------------------------------------------------------

 SCF Done:  E(RB2PLYPD3) =  -115.531791741     A.U. after   11 cycles
 E2(B2PLYPD3) =    -0.1492320034D+00 E(B2PLYPD3) =    -0.11568102374431D+03

 The electronic state is 1-A.
 Alpha  occ. eigenvalues --  -19.73384 -10.64005  -1.13891  -0.78978  -0.57429
 Alpha  occ. eigenvalues --   -0.51989  -0.49742  -0.41230  -0.35052
 Alpha virt. eigenvalues --    0.03917   0.07946   0.12550   0.12632   0.14933
 Alpha virt. eigenvalues --    0.17513   0.17970   0.29107   0.30603   0.33297
 Alpha virt. eigenvalues --    0.33808   0.39167   0.40076   0.41579   0.44564

 Mulliken charges:
               1
     1  C    0.086683
     2  O   -0.489462
     3  H    0.037843
     4  H    0.047708
     5  H    0.069496
     6  H    0.247732
 Sum of Mulliken charges =   0.00000

 Dipole moment (field-independent basis, Debye):
    X=             -0.9465    Y=              1.6140    Z=              0.1951  Tot=              1.8813
 Quadrupole moment (field-independent basis, Debye-Ang):
   XX=            -13.0401   YY=            -11.9033   ZZ=            -13.8711
   XY=              2.3821   XZ=              0.0934   YZ=              0.1572

 Normal termination of Gaussian 09 at Wed Aug 26 23:03:51 2020.
