 Gaussian 09, Revision D.01,
 Gaussian 09:  ES64L-G09RevD.01 24-Apr-2013

 --------------------
 #p B2PLYPD3/Def2QZVP
 --------------------

 --------
 methanol
 --------
 Symbolic Z-matrix:
 Charge =  0 Multiplicity = 1

                         Standard orientation:
 ---------------------------------------------------------------------
 Center     Atomic      Atomic             Coordinates (Angstroms)
 Number     Number       Type             X           Y           Z
 ---------------------------------------------------------------------
      1          6           0       -0.674213    0.018122   -0.005953
      2          8           0        0.750548   -0.142642   -0.000280
      3          1           0       -1.044898    0.519045   -0.848497
      4          1           0       -0.985737    0.536453    0.881693
      5          1           0       -1.079976   -0.908601    0.020327
      6          1           0        1.151503    0.885513   -0.015563
 ---------------------------------------------------------------------

 SCF Done:  E(RB2PLYPD3) =  -115.530086202     A.U. after   11 cycles
 E2(B2PLYPD3) =    -0.1497530159D+00 E(B2PLYPD3) =    -0.11567983921764D+03

 The electronic state is 1-A.
 Alpha  occ. eigenvalues --  -19.73559 -10.63955  -1.13365  -0.79017  -0.56684
 Alpha  occ. eigenvalues --   -0.52041  -0.49750  -0.41176  -0.35169
 Alpha virt. eigenvalues --    0.03758   0.07876   0.12494   0.12736   0.14752
 Alpha virt. eigenvalues --    0.17441   0.18224   0.28795   0.30226   0.33141
 Alpha virt. eigenvalues --    0.33771   0.39066   0.40709   0.41703   0.43776

 Mulliken charges:
               1
     1  C    0.082419
     2  O   -0.492681
     3  H    0.047058
     4  H    0.044372
     5  H    0.069399
     6  H    0.249432
 Sum of Mulliken charges =   0.00000

 Dipole moment (field-independent basis, Debye):
    X=             -0.9957    Y=              1.5990    Z=             -0.0395  Tot=              1.8841
 Quadrupole moment (field-independent basis, Debye-Ang):
   XX=            -13.0555   YY=            -11.9300   ZZ=            -13.8115
   XY=              2.4104   XZ=              0.0411   YZ=             -0.0544

 Normal termination of Gaussian 09 at Wed Aug 26 23:54:56 2020.
