 Gaussian 09, Revision D.01,
 Gaussian 09:  ES64L-G09RevD.01 24-Apr-2013

 --------------------
 #p B2PLYPD3/Def2QZVP
 --------------------

 --------
 methanol
 --------
 Symbolic Z-matrix:
 Charge =  0 Multiplicity = 1

                         Standard orientation:
 ---------------------------------------------------------------------
 Center     Atomic      Atomic             Coordinates (Angstroms)
 Number     Number       Type             X           Y           Z
 ---------------------------------------------------------------------
      1          6           0        0.661269    0.044723    0.000204
      2          8           0       -0.744450   -0.167239   -0.006366
      3          1           0        0.999786    0.433176    0.851850
      4          1           0        0.994821    0.590923   -0.783082
      5          1           0        1.191720   -0.895335   -0.056153
      6          1           0       -1.198342    0.940810    0.037088
 ---------------------------------------------------------------------

 SCF Done:  E(RB2PLYPD3) =  -115.503049306     A.U. after   11 cycles
 E2(B2PLYPD3) =    -0.1513325643D+00 E(B2PLYPD3) =    -0.11565438187040D+03

 The electronic state is 1-A.
 Alpha  occ. eigenvalues --  -19.74327 -10.63196  -1.12817  -0.79271  -0.55416
 Alpha  occ. eigenvalues --   -0.53417  -0.49240  -0.40028  -0.35462
 Alpha virt. eigenvalues --    0.02412   0.07549   0.12661   0.12843   0.14695
 Alpha virt. eigenvalues --    0.17924   0.18459   0.26269   0.29458   0.33649
 Alpha virt. eigenvalues --    0.33940   0.38940   0.40295   0.43155   0.43371

 Mulliken charges:
               1
     1  C    0.093500
     2  O   -0.493977
     3  H    0.048212
     4  H    0.045680
     5  H    0.052418
     6  H    0.254167
 Sum of Mulliken charges =   0.00000

 Dipole moment (field-independent basis, Debye):
    X=              0.9470    Y=              1.7438    Z=              0.0861  Tot=              1.9862
 Quadrupole moment (field-independent basis, Debye-Ang):
   XX=            -12.8001   YY=            -11.9790   ZZ=            -13.8569
   XY=             -2.4780   XZ=             -0.0673   YZ=              0.0175

 Normal termination of Gaussian 09 at Wed Aug 26 14:59:49 2020.
