 Gaussian 09, Revision D.01,
 Gaussian 09:  ES64L-G09RevD.01 24-Apr-2013

 --------------------
 #p B2PLYPD3/Def2QZVP
 --------------------

 --------
 methanol
 --------
 Symbolic Z-matrix:
 Charge =  0 Multiplicity = 1

                         Standard orientation:
 ---------------------------------------------------------------------
 Center     Atomic      Atomic             Coordinates (Angstroms)
 Number     Number       Type             X           Y           Z
 ---------------------------------------------------------------------
      1          6           0        0.663726    0.023084   -0.008288
      2          8           0       -0.747716   -0.143351    0.001448
      3          1           0        1.019021    0.535772    0.878115
      4          1           0        1.047618    0.521886   -0.845833
      5          1           0        1.106026   -0.921338    0.017480
      6          1           0       -1.173291    0.871987   -0.011615
 ---------------------------------------------------------------------

 SCF Done:  E(RB2PLYPD3) =  -115.533229483     A.U. after   11 cycles
 E2(B2PLYPD3) =    -0.1496574535D+00 E(B2PLYPD3) =    -0.11568288693689D+03

 The electronic state is 1-A.
 Alpha  occ. eigenvalues --  -19.73740 -10.64321  -1.13841  -0.78674  -0.56870
 Alpha  occ. eigenvalues --   -0.51838  -0.49837  -0.40840  -0.35208
 Alpha virt. eigenvalues --    0.03760   0.07775   0.12560   0.12713   0.14853
 Alpha virt. eigenvalues --    0.17513   0.18350   0.28777   0.30174   0.33420
 Alpha virt. eigenvalues --    0.34065   0.39065   0.40190   0.41563   0.43781

 Mulliken charges:
               1
     1  C    0.077905
     2  O   -0.486019
     3  H    0.042855
     4  H    0.047415
     5  H    0.066132
     6  H    0.251711
 Sum of Mulliken charges =   0.00000

 Dipole moment (field-independent basis, Debye):
    X=              0.8993    Y=              1.6063    Z=             -0.0474  Tot=              1.8415
 Quadrupole moment (field-independent basis, Debye-Ang):
   XX=            -12.9050   YY=            -12.0494   ZZ=            -13.8854
   XY=             -2.4309   XZ=             -0.0294   YZ=             -0.0608

 Normal termination of Gaussian 09 at Thu Aug 27 00:11:18 2020.
