 Gaussian 09, Revision D.01,
 Gaussian 09:  ES64L-G09RevD.01 24-Apr-2013

 --------------------
 #p B2PLYPD3/Def2QZVP
 --------------------

 --------
 methanol
 --------
 Symbolic Z-matrix:
 Charge =  0 Multiplicity = 1

                         Standard orientation:
 ---------------------------------------------------------------------
 Center     Atomic      Atomic             Coordinates (Angstroms)
 Number     Number       Type             X           Y           Z
 ---------------------------------------------------------------------
      1          6           0        0.658586   -0.021015    0.007415
      2          8           0       -0.743199    0.115343   -0.006610
      3          1           0        0.985728   -0.645325   -0.878651
      4          1           0        1.065547   -0.425415    0.938339
      5          1           0        1.083429    0.976083   -0.117283
      6          1           0       -1.140629   -0.702001    0.065983
 ---------------------------------------------------------------------

 SCF Done:  E(RB2PLYPD3) =  -115.550113747     A.U. after   10 cycles
 E2(B2PLYPD3) =    -0.1464031392D+00 E(B2PLYPD3) =    -0.11569651688616D+03

 The electronic state is 1-A.
 Alpha  occ. eigenvalues --  -19.72138 -10.66088  -1.17540  -0.78927  -0.59425
 Alpha  occ. eigenvalues --   -0.51834  -0.50261  -0.40739  -0.35424
 Alpha virt. eigenvalues --    0.05176   0.08404   0.12221   0.12513   0.14728
 Alpha virt. eigenvalues --    0.17249   0.18208   0.29004   0.33072   0.34004
 Alpha virt. eigenvalues --    0.36148   0.38908   0.39727   0.40855   0.43601

 Mulliken charges:
               1
     1  C    0.063904
     2  O   -0.434563
     3  H    0.042885
     4  H    0.051349
     5  H    0.070792
     6  H    0.205633
 Sum of Mulliken charges =   0.00000

 Dipole moment (field-independent basis, Debye):
    X=              0.8075    Y=             -1.4174    Z=              0.1571  Tot=              1.6388
 Quadrupole moment (field-independent basis, Debye-Ang):
   XX=            -12.9781   YY=            -12.4181   ZZ=            -13.7063
   XY=              2.2604   XZ=             -0.0858   YZ=             -0.1252

 Normal termination of Gaussian 09 at Wed Aug 26 23:58:05 2020.
