 Gaussian 09, Revision D.01,
 Gaussian 09:  ES64L-G09RevD.01 24-Apr-2013

 --------------------
 #p B2PLYPD3/Def2QZVP
 --------------------

 --------
 methanol
 --------
 Symbolic Z-matrix:
 Charge =  0 Multiplicity = 1

                         Standard orientation:
 ---------------------------------------------------------------------
 Center     Atomic      Atomic             Coordinates (Angstroms)
 Number     Number       Type             X           Y           Z
 ---------------------------------------------------------------------
      1          6           0       -0.653821   -0.019344    0.007156
      2          8           0        0.745688    0.101004   -0.008570
      3          1           0       -1.024132   -0.494236    0.933233
      4          1           0       -0.999710   -0.617672   -0.910377
      5          1           0       -1.102751    1.032256   -0.055716
      6          1           0        1.084015   -0.612318    0.058481
 ---------------------------------------------------------------------

 SCF Done:  E(RB2PLYPD3) =  -115.511679159     A.U. after   10 cycles
 E2(B2PLYPD3) =    -0.1447334689D+00 E(B2PLYPD3) =    -0.11565641262768D+03

 The electronic state is 1-A.
 Alpha  occ. eigenvalues --  -19.70982 -10.67176  -1.21264  -0.79836  -0.61083
 Alpha  occ. eigenvalues --   -0.51917  -0.50268  -0.41010  -0.35742
 Alpha virt. eigenvalues --    0.05380   0.08933   0.12069   0.12166   0.14667
 Alpha virt. eigenvalues --    0.17268   0.17866   0.28835   0.32916   0.33738
 Alpha virt. eigenvalues --    0.37125   0.38568   0.40068   0.40275   0.43137

 Mulliken charges:
               1
     1  C    0.059701
     2  O   -0.338805
     3  H    0.050848
     4  H    0.044282
     5  H    0.070896
     6  H    0.113077
 Sum of Mulliken charges =   0.00000

 Dipole moment (field-independent basis, Debye):
    X=             -0.8614    Y=             -1.3376    Z=              0.1720  Tot=              1.6003
 Quadrupole moment (field-independent basis, Debye-Ang):
   XX=            -13.1691   YY=            -12.4648   ZZ=            -13.6366
   XY=             -2.0594   XZ=              0.0975   YZ=             -0.1177

 Normal termination of Gaussian 09 at Thu Aug 27 00:02:12 2020.
