 Gaussian 09, Revision D.01,
 Gaussian 09:  ES64L-G09RevD.01 24-Apr-2013

 --------------------
 #p B2PLYPD3/Def2QZVP
 --------------------

 --------
 methanol
 --------
 Symbolic Z-matrix:
 Charge =  0 Multiplicity = 1

                         Standard orientation:
 ---------------------------------------------------------------------
 Center     Atomic      Atomic             Coordinates (Angstroms)
 Number     Number       Type             X           Y           Z
 ---------------------------------------------------------------------
      1          6           0        0.675087   -0.005358    0.000441
      2          8           0       -0.758804    0.066236   -0.004398
      3          1           0        0.879620   -0.944830   -0.712264
      4          1           0        1.122468   -0.114499    1.059754
      5          1           0        0.947205    1.015315   -0.471182
      6          1           0       -0.929381   -0.453729    0.156229
 ---------------------------------------------------------------------

 SCF Done:  E(RB2PLYPD3) =  -115.114881237     A.U. after   11 cycles
 E2(B2PLYPD3) =    -0.1432929649D+00 E(B2PLYPD3) =    -0.11525817420160D+03

 The electronic state is 1-A.
 Alpha  occ. eigenvalues --  -19.68435 -10.68959  -1.31130  -0.81758  -0.61955
 Alpha  occ. eigenvalues --   -0.52093  -0.49741  -0.42741  -0.36508
 Alpha virt. eigenvalues --    0.05169   0.09376   0.11308   0.11811   0.14282
 Alpha virt. eigenvalues --    0.16619   0.17439   0.27843   0.30747   0.33028
 Alpha virt. eigenvalues --    0.35516   0.37728   0.37891   0.41992   0.43509

 Mulliken charges:
               1
     1  C    0.045711
     2  O   -0.132235
     3  H    0.048047
     4  H    0.059017
     5  H    0.083891
     6  H   -0.104430
 Sum of Mulliken charges =   0.00000

 Dipole moment (field-independent basis, Debye):
    X=              1.2059    Y=             -1.0593    Z=              0.3458  Tot=              1.6419
 Quadrupole moment (field-independent basis, Debye-Ang):
   XX=            -13.8727   YY=            -12.2878   ZZ=            -13.1900
   XY=              1.6232   XZ=             -0.2103   YZ=             -0.3066

 Normal termination of Gaussian 09 at Wed Aug 26 22:56:04 2020.
