 Gaussian 09, Revision D.01,
 Gaussian 09:  ES64L-G09RevD.01 24-Apr-2013

 --------------------
 #p B2PLYPD3/Def2QZVP
 --------------------

 --------
 methanol
 --------
 Symbolic Z-matrix:
 Charge =  0 Multiplicity = 1

                         Standard orientation:
 ---------------------------------------------------------------------
 Center     Atomic      Atomic             Coordinates (Angstroms)
 Number     Number       Type             X           Y           Z
 ---------------------------------------------------------------------
      1          6           0        0.671205   -0.007510   -0.002678
      2          8           0       -0.756438    0.112232    0.000827
      3          1           0        1.040278   -0.554848   -0.908031
      4          1           0        1.032232   -0.561743    0.916973
      5          1           0        1.096260    0.967700    0.006449
      6          1           0       -1.144493   -0.703902   -0.005939
 ---------------------------------------------------------------------

 SCF Done:  E(RB2PLYPD3) =  -115.548468292     A.U. after   10 cycles
 E2(B2PLYPD3) =    -0.1465525119D+00 E(B2PLYPD3) =    -0.11569502080361D+03

 The electronic state is 1-A.
 Alpha  occ. eigenvalues --  -19.72037 -10.66385  -1.16948  -0.79126  -0.59060
 Alpha  occ. eigenvalues --   -0.50973  -0.50571  -0.41218  -0.35364
 Alpha virt. eigenvalues --    0.05196   0.08339   0.12162   0.12520   0.14690
 Alpha virt. eigenvalues --    0.17330   0.17977   0.29108   0.32824   0.33176
 Alpha virt. eigenvalues --    0.36173   0.38998   0.39711   0.40308   0.43622

 Mulliken charges:
               1
     1  C    0.070094
     2  O   -0.441628
     3  H    0.046540
     4  H    0.044262
     5  H    0.079200
     6  H    0.201532
 Sum of Mulliken charges =   0.00000

 Dipole moment (field-independent basis, Debye):
    X=              0.9108    Y=             -1.4027    Z=             -0.0235  Tot=              1.6726
 Quadrupole moment (field-independent basis, Debye-Ang):
   XX=            -12.9501   YY=            -12.3233   ZZ=            -13.7956
   XY=              2.2928   XZ=             -0.0047   YZ=              0.0252

 Normal termination of Gaussian 09 at Wed Aug 26 10:02:06 2020.
