 Gaussian 09, Revision D.01,
 Gaussian 09:  ES64L-G09RevD.01 24-Apr-2013

 --------------------
 #p B2PLYPD3/Def2QZVP
 --------------------

 --------
 methanol
 --------
 Symbolic Z-matrix:
 Charge =  0 Multiplicity = 1

                         Standard orientation:
 ---------------------------------------------------------------------
 Center     Atomic      Atomic             Coordinates (Angstroms)
 Number     Number       Type             X           Y           Z
 ---------------------------------------------------------------------
      1          6           0        0.668200    0.031908   -0.010627
      2          8           0       -0.743203   -0.146803    0.003983
      3          1           0        1.018545    0.528155    0.864241
      4          1           0        1.006760    0.534197   -0.822475
      5          1           0        1.102365   -0.946573    0.001003
      6          1           0       -1.191245    0.867203   -0.010872
 ---------------------------------------------------------------------

 SCF Done:  E(RB2PLYPD3) =  -115.530111005     A.U. after   11 cycles
 E2(B2PLYPD3) =    -0.1496636282D+00 E(B2PLYPD3) =    -0.11567977463339D+03

 The electronic state is 1-A.
 Alpha  occ. eigenvalues --  -19.73586 -10.64006  -1.13591  -0.78789  -0.56960
 Alpha  occ. eigenvalues --   -0.52420  -0.49304  -0.40717  -0.35232
 Alpha virt. eigenvalues --    0.03712   0.07814   0.12535   0.12699   0.14925
 Alpha virt. eigenvalues --    0.17394   0.18238   0.28779   0.30088   0.33508
 Alpha virt. eigenvalues --    0.33992   0.39055   0.39774   0.42197   0.44368

 Mulliken charges:
               1
     1  C    0.082997
     2  O   -0.491210
     3  H    0.045185
     4  H    0.048976
     5  H    0.064173
     6  H    0.249879
 Sum of Mulliken charges =   0.00000

 Dipole moment (field-independent basis, Debye):
    X=              0.8946    Y=              1.6493    Z=             -0.0616  Tot=              1.8773
 Quadrupole moment (field-independent basis, Debye-Ang):
   XX=            -12.8718   YY=            -12.0071   ZZ=            -13.8567
   XY=             -2.3957   XZ=             -0.0082   YZ=             -0.0718

 Normal termination of Gaussian 09 at Thu Aug 27 00:02:43 2020.
