 Gaussian 09, Revision D.01,
 Gaussian 09:  ES64L-G09RevD.01 24-Apr-2013

 --------------------
 #p B2PLYPD3/Def2QZVP
 --------------------

 --------
 methanol
 --------
 Symbolic Z-matrix:
 Charge =  0 Multiplicity = 1

                         Standard orientation:
 ---------------------------------------------------------------------
 Center     Atomic      Atomic             Coordinates (Angstroms)
 Number     Number       Type             X           Y           Z
 ---------------------------------------------------------------------
      1          6           0        0.662685    0.030243    0.002939
      2          8           0       -0.735458   -0.148099   -0.007314
      3          1           0        0.999600    0.448346    0.856021
      4          1           0        0.978970    0.611975   -0.805689
      5          1           0        1.081342   -0.942184   -0.059339
      6          1           0       -1.152356    0.885197    0.049888
 ---------------------------------------------------------------------

 SCF Done:  E(RB2PLYPD3) =  -115.526693328     A.U. after   11 cycles
 E2(B2PLYPD3) =    -0.1495300233D+00 E(B2PLYPD3) =    -0.11567622335091D+03

 The electronic state is 1-A.
 Alpha  occ. eigenvalues --  -19.73535 -10.63451  -1.14035  -0.78858  -0.57215
 Alpha  occ. eigenvalues --   -0.52996  -0.49382  -0.40826  -0.35162
 Alpha virt. eigenvalues --    0.03582   0.07976   0.12527   0.12732   0.14998
 Alpha virt. eigenvalues --    0.17395   0.18128   0.28682   0.29943   0.33408
 Alpha virt. eigenvalues --    0.34575   0.39247   0.39850   0.42797   0.44503

 Mulliken charges:
               1
     1  C    0.087098
     2  O   -0.486553
     3  H    0.045435
     4  H    0.042451
     5  H    0.063233
     6  H    0.248337
 Sum of Mulliken charges =   0.00000

 Dipole moment (field-independent basis, Debye):
    X=              0.9172    Y=              1.6605    Z=              0.1236  Tot=              1.9010
 Quadrupole moment (field-independent basis, Debye-Ang):
   XX=            -13.0819   YY=            -11.8723   ZZ=            -13.8126
   XY=             -2.3364   XZ=             -0.0623   YZ=              0.0684

 Normal termination of Gaussian 09 at Wed Aug 26 10:43:03 2020.
