 Gaussian 09, Revision D.01,
 Gaussian 09:  ES64L-G09RevD.01 24-Apr-2013

 --------------------
 #p B2PLYPD3/Def2QZVP
 --------------------

 --------
 methanol
 --------
 Symbolic Z-matrix:
 Charge =  0 Multiplicity = 1

                         Standard orientation:
 ---------------------------------------------------------------------
 Center     Atomic      Atomic             Coordinates (Angstroms)
 Number     Number       Type             X           Y           Z
 ---------------------------------------------------------------------
      1          6           0        0.666439    0.040756    0.013419
      2          8           0       -0.736069   -0.170067   -0.004112
      3          1           0        1.017538    0.466910    0.796632
      4          1           0        1.056217    0.592251   -0.762312
      5          1           0        1.094011   -0.924353   -0.079268
      6          1           0       -1.277845    0.981192   -0.002673
 ---------------------------------------------------------------------

 SCF Done:  E(RB2PLYPD3) =  -115.479840513     A.U. after   11 cycles
 E2(B2PLYPD3) =    -0.1527449026D+00 E(B2PLYPD3) =    -0.11563258541535D+03

 The electronic state is 1-A.
 Alpha  occ. eigenvalues --  -19.74680 -10.62684  -1.12263  -0.79574  -0.55865
 Alpha  occ. eigenvalues --   -0.52533  -0.48856  -0.39975  -0.35236
 Alpha virt. eigenvalues --    0.01202   0.07487   0.12461   0.13130   0.15140
 Alpha virt. eigenvalues --    0.17306   0.18372   0.24590   0.29554   0.33824
 Alpha virt. eigenvalues --    0.34519   0.38391   0.39160   0.43102   0.44894

 Mulliken charges:
               1
     1  C    0.093449
     2  O   -0.492157
     3  H    0.049838
     4  H    0.039957
     5  H    0.059936
     6  H    0.248978
 Sum of Mulliken charges =   0.00000

 Dipole moment (field-independent basis, Debye):
    X=              0.8798    Y=              1.7451    Z=              0.0425  Tot=              1.9548
 Quadrupole moment (field-independent basis, Debye-Ang):
   XX=            -12.5737   YY=            -11.7735   ZZ=            -14.0402
   XY=             -2.4586   XZ=              0.0154   YZ=              0.0656

 Normal termination of Gaussian 09 at Wed Aug 26 11:46:41 2020.
