 Gaussian 09, Revision D.01,
 Gaussian 09:  ES64L-G09RevD.01 24-Apr-2013

 --------------------
 #p B2PLYPD3/Def2QZVP
 --------------------

 --------
 methanol
 --------
 Symbolic Z-matrix:
 Charge =  0 Multiplicity = 1

                         Standard orientation:
 ---------------------------------------------------------------------
 Center     Atomic      Atomic             Coordinates (Angstroms)
 Number     Number       Type             X           Y           Z
 ---------------------------------------------------------------------
      1          6           0        0.675198   -0.027662   -0.001928
      2          8           0       -0.756243    0.113372    0.001171
      3          1           0        1.031305   -0.547342   -0.885607
      4          1           0        1.053742   -0.512200    0.904346
      5          1           0        1.053143    1.033083   -0.019869
      6          1           0       -1.139433   -0.714544    0.003331
 ---------------------------------------------------------------------

 SCF Done:  E(RB2PLYPD3) =  -115.549795271     A.U. after   10 cycles
 E2(B2PLYPD3) =    -0.1468288484D+00 E(B2PLYPD3) =    -0.11569662411960D+03

 The electronic state is 1-A.
 Alpha  occ. eigenvalues --  -19.72076 -10.66210  -1.16612  -0.78900  -0.59101
 Alpha  occ. eigenvalues --   -0.51877  -0.49007  -0.41125  -0.35747
 Alpha virt. eigenvalues --    0.05187   0.08352   0.12153   0.12322   0.14820
 Alpha virt. eigenvalues --    0.17028   0.18162   0.29016   0.32718   0.33552
 Alpha virt. eigenvalues --    0.36857   0.37836   0.39859   0.40906   0.43134

 Mulliken charges:
               1
     1  C    0.065648
     2  O   -0.445525
     3  H    0.055023
     4  H    0.054389
     5  H    0.068645
     6  H    0.201820
 Sum of Mulliken charges =   0.00000

 Dipole moment (field-independent basis, Debye):
    X=              0.9322    Y=             -1.4886    Z=             -0.0056  Tot=              1.7564
 Quadrupole moment (field-independent basis, Debye-Ang):
   XX=            -13.0379   YY=            -12.2879   ZZ=            -13.7182
   XY=              2.1211   XZ=              0.0015   YZ=              0.0086

 Normal termination of Gaussian 09 at Thu Aug 27 00:09:26 2020.
