 Gaussian 09, Revision D.01,
 Gaussian 09:  ES64L-G09RevD.01 24-Apr-2013

 --------------------
 #p B2PLYPD3/Def2QZVP
 --------------------

 --------
 methanol
 --------
 Symbolic Z-matrix:
 Charge =  0 Multiplicity = 1

                         Standard orientation:
 ---------------------------------------------------------------------
 Center     Atomic      Atomic             Coordinates (Angstroms)
 Number     Number       Type             X           Y           Z
 ---------------------------------------------------------------------
      1          6           0        0.659417    0.005102   -0.044264
      2          8           0       -0.706471   -0.174928    0.039840
      3          1           0        1.044181    0.651311    0.879470
      4          1           0        0.896921    0.449133   -0.796297
      5          1           0        1.026654   -0.761266    0.009891
      6          1           0       -1.272487    1.029641   -0.146194
 ---------------------------------------------------------------------

 SCF Done:  E(RB2PLYPD3) =  -115.390166338     A.U. after   11 cycles
 E2(B2PLYPD3) =    -0.1535502571D+00 E(B2PLYPD3) =    -0.11554371659506D+03

 The electronic state is 1-A.
 Alpha  occ. eigenvalues --  -19.74630 -10.61203  -1.13500  -0.80866  -0.58648
 Alpha  occ. eigenvalues --   -0.51341  -0.50746  -0.40027  -0.33988
 Alpha virt. eigenvalues --   -0.00404   0.07656   0.12509   0.13159   0.14906
 Alpha virt. eigenvalues --    0.17521   0.18211   0.23186   0.29453   0.32097
 Alpha virt. eigenvalues --    0.35487   0.37587   0.40449   0.42474   0.46978

 Mulliken charges:
               1
     1  C    0.026997
     2  O   -0.477310
     3  H    0.025222
     4  H    0.055093
     5  H    0.120342
     6  H    0.249656
 Sum of Mulliken charges =   0.00000

 Dipole moment (field-independent basis, Debye):
    X=              0.7297    Y=              1.5528    Z=             -0.5382  Tot=              1.7981
 Quadrupole moment (field-independent basis, Debye-Ang):
   XX=            -12.8086   YY=            -11.6679   ZZ=            -13.8391
   XY=             -2.8162   XZ=              0.1101   YZ=             -0.4086

 Normal termination of Gaussian 09 at Wed Aug 26 20:48:56 2020.
