 Gaussian 09, Revision D.01,
 Gaussian 09:  ES64L-G09RevD.01 24-Apr-2013

 --------------------
 #p B2PLYPD3/Def2QZVP
 --------------------

 --------
 methanol
 --------
 Symbolic Z-matrix:
 Charge =  0 Multiplicity = 1

                         Standard orientation:
 ---------------------------------------------------------------------
 Center     Atomic      Atomic             Coordinates (Angstroms)
 Number     Number       Type             X           Y           Z
 ---------------------------------------------------------------------
      1          6           0        0.659338   -0.028165    0.010141
      2          8           0       -0.752907    0.107010   -0.002293
      3          1           0        1.015004   -0.608180   -0.894516
      4          1           0        1.038265   -0.485875    0.923040
      5          1           0        1.128434    1.039408   -0.081819
      6          1           0       -1.114475   -0.632439    0.010790
 ---------------------------------------------------------------------

 SCF Done:  E(RB2PLYPD3) =  -115.525721625     A.U. after   10 cycles
 E2(B2PLYPD3) =    -0.1453926236D+00 E(B2PLYPD3) =    -0.11567111424865D+03

 The electronic state is 1-A.
 Alpha  occ. eigenvalues --  -19.71375 -10.67161  -1.19802  -0.79438  -0.60647
 Alpha  occ. eigenvalues --   -0.51971  -0.49592  -0.40705  -0.35940
 Alpha virt. eigenvalues --    0.05346   0.08682   0.12058   0.12190   0.14660
 Alpha virt. eigenvalues --    0.17313   0.18036   0.28918   0.33110   0.33287
 Alpha virt. eigenvalues --    0.36459   0.38503   0.39589   0.40751   0.43024

 Mulliken charges:
               1
     1  C    0.061431
     2  O   -0.374922
     3  H    0.047355
     4  H    0.057553
     5  H    0.065521
     6  H    0.143062
 Sum of Mulliken charges =   0.00000

 Dipole moment (field-independent basis, Debye):
    X=              0.8783    Y=             -1.4111    Z=              0.0582  Tot=              1.6631
 Quadrupole moment (field-independent basis, Debye-Ang):
   XX=            -13.0176   YY=            -12.5115   ZZ=            -13.6761
   XY=              2.0819   XZ=              0.0144   YZ=             -0.0662

 Normal termination of Gaussian 09 at Thu Aug 27 00:05:45 2020.
