 Gaussian 09, Revision D.01,
 Gaussian 09:  ES64L-G09RevD.01 24-Apr-2013

 --------------------
 #p B2PLYPD3/Def2QZVP
 --------------------

 --------
 methanol
 --------
 Symbolic Z-matrix:
 Charge =  0 Multiplicity = 1

                         Standard orientation:
 ---------------------------------------------------------------------
 Center     Atomic      Atomic             Coordinates (Angstroms)
 Number     Number       Type             X           Y           Z
 ---------------------------------------------------------------------
      1          6           0       -0.672839   -0.013183   -0.004877
      2          8           0        0.745725    0.112187   -0.006646
      3          1           0       -1.000585   -0.491804    0.954511
      4          1           0       -0.976856   -0.636048   -0.878923
      5          1           0       -1.098042    0.975955   -0.048381
      6          1           0        1.146714   -0.666499    0.055224
 ---------------------------------------------------------------------

 SCF Done:  E(RB2PLYPD3) =  -115.545026980     A.U. after   10 cycles
 E2(B2PLYPD3) =    -0.1458852648D+00 E(B2PLYPD3) =    -0.11569091224465D+03

 The electronic state is 1-A.
 Alpha  occ. eigenvalues --  -19.71413 -10.66325  -1.17646  -0.79367  -0.59325
 Alpha  occ. eigenvalues --   -0.51740  -0.50591  -0.40843  -0.35275
 Alpha virt. eigenvalues --    0.05279   0.08596   0.12118   0.12491   0.14565
 Alpha virt. eigenvalues --    0.17224   0.17797   0.29138   0.32902   0.33092
 Alpha virt. eigenvalues --    0.36864   0.39452   0.39911   0.40398   0.43660

 Mulliken charges:
               1
     1  C    0.072254
     2  O   -0.430369
     3  H    0.045048
     4  H    0.048223
     5  H    0.079070
     6  H    0.185773
 Sum of Mulliken charges =   0.00000

 Dipole moment (field-independent basis, Debye):
    X=             -0.8758    Y=             -1.3826    Z=              0.1079  Tot=              1.6402
 Quadrupole moment (field-independent basis, Debye-Ang):
   XX=            -12.9949   YY=            -12.3551   ZZ=            -13.6807
   XY=             -2.2912   XZ=              0.1500   YZ=             -0.0416

 Normal termination of Gaussian 09 at Wed Aug 26 23:37:08 2020.
