 Gaussian 09, Revision D.01,
 Gaussian 09:  ES64L-G09RevD.01 24-Apr-2013

 --------------------
 #p B2PLYPD3/Def2QZVP
 --------------------

 --------
 methanol
 --------
 Symbolic Z-matrix:
 Charge =  0 Multiplicity = 1

                         Standard orientation:
 ---------------------------------------------------------------------
 Center     Atomic      Atomic             Coordinates (Angstroms)
 Number     Number       Type             X           Y           Z
 ---------------------------------------------------------------------
      1          6           0       -0.663402    0.025450   -0.015835
      2          8           0        0.739340   -0.147739    0.010198
      3          1           0       -1.078433    0.446366   -0.822951
      4          1           0       -1.004579    0.607040    0.844814
      5          1           0       -1.054303   -0.928288    0.067343
      6          1           0        1.203004    0.904099   -0.075780
 ---------------------------------------------------------------------

 SCF Done:  E(RB2PLYPD3) =  -115.516851496     A.U. after   11 cycles
 E2(B2PLYPD3) =    -0.1504894763D+00 E(B2PLYPD3) =    -0.11566734097205D+03

 The electronic state is 1-A.
 Alpha  occ. eigenvalues --  -19.74019 -10.63653  -1.13479  -0.78903  -0.56987
 Alpha  occ. eigenvalues --   -0.51906  -0.49485  -0.40756  -0.35057
 Alpha virt. eigenvalues --    0.03103   0.07736   0.12614   0.12739   0.15083
 Alpha virt. eigenvalues --    0.17212   0.18436   0.27752   0.29655   0.33300
 Alpha virt. eigenvalues --    0.34762   0.38766   0.39429   0.41872   0.44974

 Mulliken charges:
               1
     1  C    0.080320
     2  O   -0.485451
     3  H    0.047950
     4  H    0.039123
     5  H    0.065576
     6  H    0.252481
 Sum of Mulliken charges =   0.00000

 Dipole moment (field-independent basis, Debye):
    X=             -0.8561    Y=              1.6250    Z=             -0.2080  Tot=              1.8485
 Quadrupole moment (field-independent basis, Debye-Ang):
   XX=            -12.8410   YY=            -11.9339   ZZ=            -13.9281
   XY=              2.4139   XZ=             -0.0244   YZ=             -0.1707

 Normal termination of Gaussian 09 at Wed Aug 26 13:33:34 2020.
