 Gaussian 09, Revision D.01,
 Gaussian 09:  ES64L-G09RevD.01 24-Apr-2013

 --------------------
 #p B2PLYPD3/Def2QZVP
 --------------------

 --------
 methanol
 --------
 Symbolic Z-matrix:
 Charge =  0 Multiplicity = 1

                         Standard orientation:
 ---------------------------------------------------------------------
 Center     Atomic      Atomic             Coordinates (Angstroms)
 Number     Number       Type             X           Y           Z
 ---------------------------------------------------------------------
      1          6           0        0.672593   -0.014085   -0.005060
      2          8           0       -0.750159    0.098529   -0.000660
      3          1           0        1.023843   -0.575504   -0.927268
      4          1           0        1.019083   -0.528186    0.972050
      5          1           0        1.069996    1.007790   -0.015898
      6          1           0       -1.147209   -0.607825    0.006759
 ---------------------------------------------------------------------

 SCF Done:  E(RB2PLYPD3) =  -115.520306095     A.U. after   10 cycles
 E2(B2PLYPD3) =    -0.1451667090D+00 E(B2PLYPD3) =    -0.11566547280363D+03

 The electronic state is 1-A.
 Alpha  occ. eigenvalues --  -19.70815 -10.67333  -1.19517  -0.79956  -0.60037
 Alpha  occ. eigenvalues --   -0.51340  -0.50504  -0.40691  -0.35584
 Alpha virt. eigenvalues --    0.05405   0.08764   0.11923   0.12376   0.14439
 Alpha virt. eigenvalues --    0.17009   0.17950   0.28941   0.32677   0.33047
 Alpha virt. eigenvalues --    0.37027   0.39424   0.39669   0.39874   0.42876

 Mulliken charges:
               1
     1  C    0.062739
     2  O   -0.373093
     3  H    0.051473
     4  H    0.047192
     5  H    0.081046
     6  H    0.130644
 Sum of Mulliken charges =   0.00000

 Dipole moment (field-independent basis, Debye):
    X=              0.8653    Y=             -1.2889    Z=             -0.0090  Tot=              1.5524
 Quadrupole moment (field-independent basis, Debye-Ang):
   XX=            -12.9614   YY=            -12.5194   ZZ=            -13.6096
   XY=              2.1789   XZ=             -0.0583   YZ=              0.0247

 Normal termination of Gaussian 09 at Wed Aug 26 23:27:53 2020.
