 Gaussian 09, Revision D.01,
 Gaussian 09:  ES64L-G09RevD.01 24-Apr-2013

 --------------------
 #p B2PLYPD3/Def2QZVP
 --------------------

 --------
 methanol
 --------
 Symbolic Z-matrix:
 Charge =  0 Multiplicity = 1

                         Standard orientation:
 ---------------------------------------------------------------------
 Center     Atomic      Atomic             Coordinates (Angstroms)
 Number     Number       Type             X           Y           Z
 ---------------------------------------------------------------------
      1          6           0        0.663042   -0.013289   -0.003306
      2          8           0       -0.751840    0.101544   -0.007469
      3          1           0        1.081845   -0.632406   -0.845217
      4          1           0        1.043612   -0.476846    0.939736
      5          1           0        1.042715    1.044728   -0.052887
      6          1           0       -1.131700   -0.668094    0.037952
 ---------------------------------------------------------------------

 SCF Done:  E(RB2PLYPD3) =  -115.539903585     A.U. after   10 cycles
 E2(B2PLYPD3) =    -0.1459210481D+00 E(B2PLYPD3) =    -0.11568582463330D+03

 The electronic state is 1-A.
 Alpha  occ. eigenvalues --  -19.71738 -10.66873  -1.18588  -0.79200  -0.60304
 Alpha  occ. eigenvalues --   -0.51061  -0.49798  -0.41267  -0.35536
 Alpha virt. eigenvalues --    0.05296   0.08528   0.12068   0.12325   0.15021
 Alpha virt. eigenvalues --    0.16979   0.17998   0.29077   0.33160   0.33472
 Alpha virt. eigenvalues --    0.37453   0.38501   0.39546   0.39839   0.42490

 Mulliken charges:
               1
     1  C    0.062513
     2  O   -0.404549
     3  H    0.047672
     4  H    0.047583
     5  H    0.073784
     6  H    0.172997
 Sum of Mulliken charges =   0.00000

 Dipole moment (field-independent basis, Debye):
    X=              0.8437    Y=             -1.4033    Z=              0.0946  Tot=              1.6401
 Quadrupole moment (field-independent basis, Debye-Ang):
   XX=            -13.0081   YY=            -12.3029   ZZ=            -13.8480
   XY=              2.0602   XZ=             -0.1358   YZ=             -0.0356

 Normal termination of Gaussian 09 at Wed Aug 26 10:30:52 2020.
