 Gaussian 09, Revision D.01,
 Gaussian 09:  ES64L-G09RevD.01 24-Apr-2013

 --------------------
 #p B2PLYPD3/Def2QZVP
 --------------------

 --------
 methanol
 --------
 Symbolic Z-matrix:
 Charge =  0 Multiplicity = 1

                         Standard orientation:
 ---------------------------------------------------------------------
 Center     Atomic      Atomic             Coordinates (Angstroms)
 Number     Number       Type             X           Y           Z
 ---------------------------------------------------------------------
      1          6           0       -0.651697   -0.038869    0.004716
      2          8           0        0.750632    0.139854   -0.017965
      3          1           0       -0.994120   -0.404294    0.882148
      4          1           0       -1.038817   -0.635767   -0.803024
      5          1           0       -1.165552    0.980371   -0.056863
      6          1           0        1.103613   -0.825928    0.093159
 ---------------------------------------------------------------------

 SCF Done:  E(RB2PLYPD3) =  -115.538632620     A.U. after   10 cycles
 E2(B2PLYPD3) =    -0.1486543649D+00 E(B2PLYPD3) =    -0.11568728698459D+03

 The electronic state is 1-A.
 Alpha  occ. eigenvalues --  -19.73540 -10.64918  -1.15399  -0.78581  -0.57916
 Alpha  occ. eigenvalues --   -0.52848  -0.49207  -0.40580  -0.35720
 Alpha virt. eigenvalues --    0.04377   0.07915   0.12307   0.12595   0.14800
 Alpha virt. eigenvalues --    0.17755   0.18410   0.28988   0.31488   0.33582
 Alpha virt. eigenvalues --    0.34466   0.37408   0.40180   0.42107   0.44362

 Mulliken charges:
               1
     1  C    0.074540
     2  O   -0.467017
     3  H    0.051687
     4  H    0.047368
     5  H    0.051767
     6  H    0.241655
 Sum of Mulliken charges =   0.00000

 Dipole moment (field-independent basis, Debye):
    X=             -0.9294    Y=             -1.6543    Z=              0.2554  Tot=              1.9146
 Quadrupole moment (field-independent basis, Debye-Ang):
   XX=            -13.1498   YY=            -12.1688   ZZ=            -13.8139
   XY=             -2.1967   XZ=              0.1842   YZ=             -0.1113

 Normal termination of Gaussian 09 at Wed Aug 26 11:31:11 2020.
