 Gaussian 09, Revision D.01,
 Gaussian 09:  ES64L-G09RevD.01 24-Apr-2013

 --------------------
 #p B2PLYPD3/Def2QZVP
 --------------------

 --------
 methanol
 --------
 Symbolic Z-matrix:
 Charge =  0 Multiplicity = 1

                         Standard orientation:
 ---------------------------------------------------------------------
 Center     Atomic      Atomic             Coordinates (Angstroms)
 Number     Number       Type             X           Y           Z
 ---------------------------------------------------------------------
      1          6           0        0.674680    0.021829   -0.000258
      2          8           0       -0.753063   -0.160619   -0.001315
      3          1           0        1.028664    0.513286    0.840118
      4          1           0        1.090273    0.486565   -0.830178
      5          1           0        1.040321   -0.869128    0.016448
      6          1           0       -1.182831    1.023250   -0.014314
 ---------------------------------------------------------------------

 SCF Done:  E(RB2PLYPD3) =  -115.483459767     A.U. after   11 cycles
 E2(B2PLYPD3) =    -0.1530345007D+00 E(B2PLYPD3) =    -0.11563649426778D+03

 The electronic state is 1-A.
 Alpha  occ. eigenvalues --  -19.74763 -10.62757  -1.11840  -0.79741  -0.55571
 Alpha  occ. eigenvalues --   -0.52036  -0.49019  -0.40781  -0.35315
 Alpha virt. eigenvalues --    0.01465   0.07544   0.12733   0.12776   0.14831
 Alpha virt. eigenvalues --    0.17271   0.18578   0.24906   0.29386   0.33404
 Alpha virt. eigenvalues --    0.33985   0.38605   0.40402   0.42164   0.43755

 Mulliken charges:
               1
     1  C    0.086498
     2  O   -0.494214
     3  H    0.044939
     4  H    0.045139
     5  H    0.068365
     6  H    0.249274
 Sum of Mulliken charges =   0.00000

 Dipole moment (field-independent basis, Debye):
    X=              1.0711    Y=              1.6569    Z=             -0.0117  Tot=              1.9730
 Quadrupole moment (field-independent basis, Debye-Ang):
   XX=            -13.0007   YY=            -11.6579   ZZ=            -13.9195
   XY=             -2.4311   XZ=             -0.0176   YZ=             -0.0153

 Normal termination of Gaussian 09 at Wed Aug 26 12:33:01 2020.
