 Gaussian 09, Revision D.01,
 Gaussian 09:  ES64L-G09RevD.01 24-Apr-2013

 --------------------
 #p B2PLYPD3/Def2QZVP
 --------------------

 --------
 methanol
 --------
 Symbolic Z-matrix:
 Charge =  0 Multiplicity = 1

                         Standard orientation:
 ---------------------------------------------------------------------
 Center     Atomic      Atomic             Coordinates (Angstroms)
 Number     Number       Type             X           Y           Z
 ---------------------------------------------------------------------
      1          6           0       -0.688555   -0.021887    0.006835
      2          8           0        0.781393    0.041182   -0.022950
      3          1           0       -1.157113   -0.042363    1.120531
      4          1           0       -1.013186   -1.026087   -0.641989
      5          1           0       -1.123510    1.069961   -0.527629
      6          1           0        1.173997   -0.199643    0.191676
 ---------------------------------------------------------------------

 SCF Done:  E(RB2PLYPD3) =  -114.787344697     A.U. after   12 cycles
 E2(B2PLYPD3) =    -0.1448019363D+00 E(B2PLYPD3) =    -0.11493214663332D+03

 The electronic state is 1-A.
 Alpha  occ. eigenvalues --  -19.67954 -10.72950  -1.31174  -0.84287  -0.61947
 Alpha  occ. eigenvalues --   -0.50323  -0.48547  -0.38576  -0.36743
 Alpha virt. eigenvalues --    0.04357   0.09493   0.10661   0.11078   0.13533
 Alpha virt. eigenvalues --    0.16623   0.17617   0.28115   0.29394   0.31839
 Alpha virt. eigenvalues --    0.32731   0.34329   0.36175   0.41165   0.42128

 Mulliken charges:
               1
     1  C    0.059039
     2  O   -0.101474
     3  H    0.065652
     4  H    0.073225
     5  H    0.085018
     6  H   -0.181460
 Sum of Mulliken charges =   0.00000

 Dipole moment (field-independent basis, Debye):
    X=             -1.1297    Y=             -0.6725    Z=              0.6262  Tot=              1.4562
 Quadrupole moment (field-independent basis, Debye-Ang):
   XX=            -12.4969   YY=            -12.9721   ZZ=            -13.2660
   XY=             -1.2458   XZ=              0.8100   YZ=             -0.1347

 Normal termination of Gaussian 09 at Wed Aug 26 22:56:51 2020.
