 Gaussian 09, Revision D.01,
 Gaussian 09:  ES64L-G09RevD.01 24-Apr-2013

 --------------------
 #p B2PLYPD3/Def2QZVP
 --------------------

 --------
 methanol
 --------
 Symbolic Z-matrix:
 Charge =  0 Multiplicity = 1

                         Standard orientation:
 ---------------------------------------------------------------------
 Center     Atomic      Atomic             Coordinates (Angstroms)
 Number     Number       Type             X           Y           Z
 ---------------------------------------------------------------------
      1          6           0        0.664151   -0.024944    0.004291
      2          8           0       -0.743132    0.102278   -0.005332
      3          1           0        0.987738   -0.665697   -0.864263
      4          1           0        1.038092   -0.445321    0.946493
      5          1           0        1.077222    1.050822   -0.113656
      6          1           0       -1.142900   -0.608364    0.048338
 ---------------------------------------------------------------------

 SCF Done:  E(RB2PLYPD3) =  -115.523821972     A.U. after   10 cycles
 E2(B2PLYPD3) =    -0.1450764283D+00 E(B2PLYPD3) =    -0.11566889839984D+03

 The electronic state is 1-A.
 Alpha  occ. eigenvalues --  -19.70941 -10.67062  -1.19772  -0.79794  -0.60679
 Alpha  occ. eigenvalues --   -0.51969  -0.49730  -0.40543  -0.35689
 Alpha virt. eigenvalues --    0.05376   0.08810   0.12023   0.12230   0.14753
 Alpha virt. eigenvalues --    0.16999   0.17873   0.29022   0.33016   0.33530
 Alpha virt. eigenvalues --    0.37097   0.38686   0.39839   0.40602   0.42727

 Mulliken charges:
               1
     1  C    0.062629
     2  O   -0.372675
     3  H    0.048190
     4  H    0.054659
     5  H    0.070824
     6  H    0.136374
 Sum of Mulliken charges =   0.00000

 Dipole moment (field-independent basis, Debye):
    X=              0.8064    Y=             -1.3729    Z=              0.1284  Tot=              1.5974
 Quadrupole moment (field-independent basis, Debye-Ang):
   XX=            -12.9693   YY=            -12.4627   ZZ=            -13.6617
   XY=              2.0713   XZ=             -0.0775   YZ=             -0.0790

 Normal termination of Gaussian 09 at Wed Aug 26 09:51:09 2020.
