 Gaussian 09, Revision D.01,
 Gaussian 09:  ES64L-G09RevD.01 24-Apr-2013

 --------------------
 #p B2PLYPD3/Def2QZVP
 --------------------

 --------
 methanol
 --------
 Symbolic Z-matrix:
 Charge =  0 Multiplicity = 1

                         Standard orientation:
 ---------------------------------------------------------------------
 Center     Atomic      Atomic             Coordinates (Angstroms)
 Number     Number       Type             X           Y           Z
 ---------------------------------------------------------------------
      1          6           0       -0.671325    0.011265    0.015192
      2          8           0        0.748560   -0.145080   -0.013181
      3          1           0       -1.055829    0.576357   -0.828577
      4          1           0       -0.951973    0.495702    0.831449
      5          1           0       -1.049338   -0.918753   -0.020633
      6          1           0        1.096607    0.939742    0.032056
 ---------------------------------------------------------------------

 SCF Done:  E(RB2PLYPD3) =  -115.515049863     A.U. after   11 cycles
 E2(B2PLYPD3) =    -0.1504163734D+00 E(B2PLYPD3) =    -0.11566546623625D+03

 The electronic state is 1-A.
 Alpha  occ. eigenvalues --  -19.73810 -10.63255  -1.13292  -0.79265  -0.57268
 Alpha  occ. eigenvalues --   -0.52157  -0.49255  -0.41641  -0.35065
 Alpha virt. eigenvalues --    0.03237   0.07929   0.12557   0.12651   0.14926
 Alpha virt. eigenvalues --    0.17460   0.17989   0.28020   0.29789   0.33245
 Alpha virt. eigenvalues --    0.33875   0.38973   0.40560   0.41762   0.44621

 Mulliken charges:
               1
     1  C    0.091760
     2  O   -0.491366
     3  H    0.037186
     4  H    0.045058
     5  H    0.069243
     6  H    0.248119
 Sum of Mulliken charges =   0.00000

 Dipole moment (field-independent basis, Debye):
    X=             -1.0790    Y=              1.6436    Z=              0.1486  Tot=              1.9717
 Quadrupole moment (field-independent basis, Debye-Ang):
   XX=            -13.3566   YY=            -11.6257   ZZ=            -13.8692
   XY=              2.2736   XZ=              0.0720   YZ=              0.1283

 Normal termination of Gaussian 09 at Wed Aug 26 16:36:14 2020.
