 Gaussian 09, Revision D.01,
 Gaussian 09:  ES64L-G09RevD.01 24-Apr-2013

 --------------------
 #p B2PLYPD3/Def2QZVP
 --------------------

 --------
 methanol
 --------
 Symbolic Z-matrix:
 Charge =  0 Multiplicity = 1

                         Standard orientation:
 ---------------------------------------------------------------------
 Center     Atomic      Atomic             Coordinates (Angstroms)
 Number     Number       Type             X           Y           Z
 ---------------------------------------------------------------------
      1          6           0        0.670129    0.008137    0.004127
      2          8           0       -0.748622   -0.132226   -0.002967
      3          1           0        1.047798    0.504132    0.875640
      4          1           0        1.037123    0.571039   -0.862729
      5          1           0        1.032648   -0.926280   -0.033512
      6          1           0       -1.149366    0.860096    0.019571
 ---------------------------------------------------------------------

 SCF Done:  E(RB2PLYPD3) =  -115.536301247     A.U. after   11 cycles
 E2(B2PLYPD3) =    -0.1491421567D+00 E(B2PLYPD3) =    -0.11568544340372D+03

 The electronic state is 1-A.
 Alpha  occ. eigenvalues --  -19.73408 -10.64356  -1.14093  -0.78876  -0.57451
 Alpha  occ. eigenvalues --   -0.51323  -0.50086  -0.41462  -0.35056
 Alpha virt. eigenvalues --    0.04087   0.07946   0.12510   0.12664   0.14971
 Alpha virt. eigenvalues --    0.17224   0.18181   0.29047   0.31222   0.33384
 Alpha virt. eigenvalues --    0.33854   0.38653   0.40616   0.40981   0.43847

 Mulliken charges:
               1
     1  C    0.076431
     2  O   -0.484244
     3  H    0.045390
     4  H    0.041123
     5  H    0.074588
     6  H    0.246713
 Sum of Mulliken charges =   0.00000

 Dipole moment (field-independent basis, Debye):
    X=              0.9329    Y=              1.5538    Z=              0.0555  Tot=              1.8132
 Quadrupole moment (field-independent basis, Debye-Ang):
   XX=            -13.0632   YY=            -11.9265   ZZ=            -13.8854
   XY=             -2.3496   XZ=             -0.0164   YZ=              0.0560

 Normal termination of Gaussian 09 at Thu Aug 27 00:11:24 2020.
