 Gaussian 09, Revision D.01,
 Gaussian 09:  ES64L-G09RevD.01 24-Apr-2013

 --------------------
 #p B2PLYPD3/Def2QZVP
 --------------------

 --------
 methanol
 --------
 Symbolic Z-matrix:
 Charge =  0 Multiplicity = 1

                         Standard orientation:
 ---------------------------------------------------------------------
 Center     Atomic      Atomic             Coordinates (Angstroms)
 Number     Number       Type             X           Y           Z
 ---------------------------------------------------------------------
      1          6           0        0.705296   -0.007512    0.022080
      2          8           0       -0.767533    0.044610   -0.004636
      3          1           0        0.952250   -1.013992   -0.716759
      4          1           0        1.158381   -0.083612    1.073419
      5          1           0        0.973321    1.066562   -0.565051
      6          1           0       -1.175465   -0.280764    0.112998
 ---------------------------------------------------------------------

 SCF Done:  E(RB2PLYPD3) =  -114.931480164     A.U. after   12 cycles
 E2(B2PLYPD3) =    -0.1445142154D+00 E(B2PLYPD3) =    -0.11507599437993D+03

 The electronic state is 1-A.
 Alpha  occ. eigenvalues --  -19.67171 -10.72145  -1.29348  -0.84100  -0.61511
 Alpha  occ. eigenvalues --   -0.50464  -0.49015  -0.38590  -0.36210
 Alpha virt. eigenvalues --    0.04564   0.09469   0.10625   0.11310   0.13477
 Alpha virt. eigenvalues --    0.16189   0.17626   0.27826   0.29540   0.32297
 Alpha virt. eigenvalues --    0.33909   0.34552   0.37185   0.40926   0.42404

 Mulliken charges:
               1
     1  C    0.049593
     2  O   -0.118766
     3  H    0.055625
     4  H    0.084849
     5  H    0.094535
     6  H   -0.165836
 Sum of Mulliken charges =   0.00000

 Dipole moment (field-independent basis, Debye):
    X=              1.0848    Y=             -0.8081    Z=              0.3991  Tot=              1.4103
 Quadrupole moment (field-independent basis, Debye-Ang):
   XX=            -12.7411   YY=            -12.8574   ZZ=            -13.1480
   XY=              1.5235   XZ=             -0.1674   YZ=             -0.2496

 Normal termination of Gaussian 09 at Wed Aug 26 23:47:47 2020.
