 Gaussian 09, Revision D.01,
 Gaussian 09:  ES64L-G09RevD.01 24-Apr-2013

 --------------------
 #p B2PLYPD3/Def2QZVP
 --------------------

 --------
 methanol
 --------
 Symbolic Z-matrix:
 Charge =  0 Multiplicity = 1

                         Standard orientation:
 ---------------------------------------------------------------------
 Center     Atomic      Atomic             Coordinates (Angstroms)
 Number     Number       Type             X           Y           Z
 ---------------------------------------------------------------------
      1          6           0       -0.645324   -0.040976   -0.015588
      2          8           0        0.739061    0.143833    0.005330
      3          1           0       -1.043383   -0.519577    0.876791
      4          1           0       -1.045069   -0.536518   -0.806099
      5          1           0       -1.148884    0.977523   -0.001804
      6          1           0        1.196786   -0.826231   -0.018000
 ---------------------------------------------------------------------

 SCF Done:  E(RB2PLYPD3) =  -115.534167307     A.U. after   11 cycles
 E2(B2PLYPD3) =    -0.1490736718D+00 E(B2PLYPD3) =    -0.11568324097915D+03

 The electronic state is 1-A.
 Alpha  occ. eigenvalues --  -19.73821 -10.64851  -1.15146  -0.78340  -0.58098
 Alpha  occ. eigenvalues --   -0.52153  -0.49492  -0.40078  -0.35338
 Alpha virt. eigenvalues --    0.04021   0.07673   0.12435   0.12743   0.15047
 Alpha virt. eigenvalues --    0.17554   0.18506   0.28892   0.30739   0.33598
 Alpha virt. eigenvalues --    0.34969   0.37586   0.39856   0.41825   0.44685

 Mulliken charges:
               1
     1  C    0.071160
     2  O   -0.469716
     3  H    0.043346
     4  H    0.051001
     5  H    0.053538
     6  H    0.250671
 Sum of Mulliken charges =   0.00000

 Dipole moment (field-independent basis, Debye):
    X=             -0.7231    Y=             -1.6624    Z=             -0.0971  Tot=              1.8154
 Quadrupole moment (field-independent basis, Debye-Ang):
   XX=            -12.7231   YY=            -12.2639   ZZ=            -13.9622
   XY=             -2.3362   XZ=              0.0233   YZ=              0.1105

 Normal termination of Gaussian 09 at Wed Aug 26 14:47:35 2020.
