 Gaussian 09, Revision D.01,
 Gaussian 09:  ES64L-G09RevD.01 24-Apr-2013

 --------------------
 #p B2PLYPD3/Def2QZVP
 --------------------

 --------
 methanol
 --------
 Symbolic Z-matrix:
 Charge =  0 Multiplicity = 1

                         Standard orientation:
 ---------------------------------------------------------------------
 Center     Atomic      Atomic             Coordinates (Angstroms)
 Number     Number       Type             X           Y           Z
 ---------------------------------------------------------------------
      1          6           0       -0.639700    0.043992    0.006428
      2          8           0        0.712082   -0.206023   -0.002836
      3          1           0       -1.112550    0.494771   -0.728042
      4          1           0       -0.877196    0.564247    0.768847
      5          1           0       -1.167982   -0.796577    0.008545
      6          1           0        1.299273    1.121795   -0.065226
 ---------------------------------------------------------------------

 SCF Done:  E(RB2PLYPD3) =  -115.415827782     A.U. after   11 cycles
 E2(B2PLYPD3) =    -0.1558559760D+00 E(B2PLYPD3) =    -0.11557168375776D+03

 The electronic state is 1-A.
 Alpha  occ. eigenvalues --  -19.75554 -10.60891  -1.13252  -0.80591  -0.55338
 Alpha  occ. eigenvalues --   -0.53521  -0.49900  -0.38562  -0.34917
 Alpha virt. eigenvalues --   -0.02655   0.07403   0.12838   0.13206   0.14896
 Alpha virt. eigenvalues --    0.17916   0.18601   0.21548   0.29719   0.32932
 Alpha virt. eigenvalues --    0.36089   0.38998   0.39840   0.44149   0.44645

 Mulliken charges:
               1
     1  C    0.109624
     2  O   -0.464747
     3  H    0.031105
     4  H    0.039989
     5  H    0.050653
     6  H    0.233376
 Sum of Mulliken charges =   0.00000

 Dipole moment (field-independent basis, Debye):
    X=             -0.8978    Y=              1.7750    Z=             -0.0718  Tot=              1.9905
 Quadrupole moment (field-independent basis, Debye-Ang):
   XX=            -12.5239   YY=            -11.5826   ZZ=            -14.0840
   XY=              2.6391   XZ=              0.0605   YZ=              0.0028

 Normal termination of Gaussian 09 at Wed Aug 26 20:23:51 2020.
