 Gaussian 09, Revision D.01,
 Gaussian 09:  ES64L-G09RevD.01 24-Apr-2013

 --------------------
 #p B2PLYPD3/Def2QZVP
 --------------------

 --------
 methanol
 --------
 Symbolic Z-matrix:
 Charge =  0 Multiplicity = 1

                         Standard orientation:
 ---------------------------------------------------------------------
 Center     Atomic      Atomic             Coordinates (Angstroms)
 Number     Number       Type             X           Y           Z
 ---------------------------------------------------------------------
      1          6           0        0.677531   -0.026414    0.035348
      2          8           0       -0.744750    0.094524   -0.012395
      3          1           0        0.944244   -0.738587   -0.879981
      4          1           0        0.874468   -0.414169    0.983591
      5          1           0        1.140790    1.051967   -0.216411
      6          1           0       -1.066686   -0.496924   -0.000126
 ---------------------------------------------------------------------

 SCF Done:  E(RB2PLYPD3) =  -115.373516478     A.U. after   11 cycles
 E2(B2PLYPD3) =    -0.1436152497D+00 E(B2PLYPD3) =    -0.11551713172775D+03

 The electronic state is 1-A.
 Alpha  occ. eigenvalues --  -19.68744 -10.68025  -1.24913  -0.81698  -0.61356
 Alpha  occ. eigenvalues --   -0.53382  -0.49583  -0.40397  -0.36075
 Alpha virt. eigenvalues --    0.05285   0.09487   0.11506   0.11845   0.14125
 Alpha virt. eigenvalues --    0.16963   0.17336   0.28660   0.31845   0.32519
 Alpha virt. eigenvalues --    0.35202   0.37444   0.40352   0.42459   0.43812

 Mulliken charges:
               1
     1  C    0.067596
     2  O   -0.244792
     3  H    0.038508
     4  H    0.069257
     5  H    0.075337
     6  H   -0.005906
 Sum of Mulliken charges =   0.00000

 Dipole moment (field-independent basis, Debye):
    X=              1.0033    Y=             -1.2391    Z=              0.1295  Tot=              1.5996
 Quadrupole moment (field-independent basis, Debye-Ang):
   XX=            -13.3441   YY=            -12.5306   ZZ=            -13.2758
   XY=              2.0353   XZ=             -0.0553   YZ=             -0.1789

 Normal termination of Gaussian 09 at Wed Aug 26 19:08:42 2020.
