 Gaussian 09, Revision D.01,
 Gaussian 09:  ES64L-G09RevD.01 24-Apr-2013

 --------------------
 #p B2PLYPD3/Def2QZVP
 --------------------

 --------
 methanol
 --------
 Symbolic Z-matrix:
 Charge =  0 Multiplicity = 1

                         Standard orientation:
 ---------------------------------------------------------------------
 Center     Atomic      Atomic             Coordinates (Angstroms)
 Number     Number       Type             X           Y           Z
 ---------------------------------------------------------------------
      1          6           0        0.650195    0.038293   -0.010176
      2          8           0       -0.708440   -0.200430    0.009645
      3          1           0        1.000853    0.488949    0.778709
      4          1           0        0.819344    0.649181   -0.689447
      5          1           0        1.180260   -0.834960   -0.103606
      6          1           0       -1.234105    1.070513   -0.001754
 ---------------------------------------------------------------------

 SCF Done:  E(RB2PLYPD3) =  -115.433568046     A.U. after   12 cycles
 E2(B2PLYPD3) =    -0.1539065451D+00 E(B2PLYPD3) =    -0.11558747459069D+03

 The electronic state is 1-A.
 Alpha  occ. eigenvalues --  -19.74732 -10.60866  -1.13295  -0.79988  -0.56434
 Alpha  occ. eigenvalues --   -0.53603  -0.49724  -0.39465  -0.34546
 Alpha virt. eigenvalues --   -0.01069   0.07658   0.12599   0.13295   0.14894
 Alpha virt. eigenvalues --    0.17628   0.18224   0.22609   0.29750   0.32854
 Alpha virt. eigenvalues --    0.35540   0.39885   0.40082   0.44095   0.44709

 Mulliken charges:
               1
     1  C    0.106608
     2  O   -0.478567
     3  H    0.032950
     4  H    0.043591
     5  H    0.057642
     6  H    0.237775
 Sum of Mulliken charges =   0.00000

 Dipole moment (field-independent basis, Debye):
    X=              0.9217    Y=              1.8309    Z=             -0.0447  Tot=              2.0503
 Quadrupole moment (field-independent basis, Debye-Ang):
   XX=            -12.8768   YY=            -11.3910   ZZ=            -14.0367
   XY=             -2.5814   XZ=              0.1060   YZ=             -0.0532

 Normal termination of Gaussian 09 at Wed Aug 26 21:48:46 2020.
