 Gaussian 09, Revision D.01,
 Gaussian 09:  ES64L-G09RevD.01 24-Apr-2013

 --------------------
 #p B2PLYPD3/Def2QZVP
 --------------------

 --------
 methanol
 --------
 Symbolic Z-matrix:
 Charge =  0 Multiplicity = 1

                         Standard orientation:
 ---------------------------------------------------------------------
 Center     Atomic      Atomic             Coordinates (Angstroms)
 Number     Number       Type             X           Y           Z
 ---------------------------------------------------------------------
      1          6           0        0.660446   -0.023097   -0.009482
      2          8           0       -0.740080    0.091485    0.003765
      3          1           0        0.878355   -0.727773   -0.865924
      4          1           0        1.070930   -0.394382    1.024709
      5          1           0        1.098830    1.037611   -0.192256
      6          1           0       -1.090155   -0.508750    0.060248
 ---------------------------------------------------------------------

 SCF Done:  E(RB2PLYPD3) =  -115.417114345     A.U. after   11 cycles
 E2(B2PLYPD3) =    -0.1436913743D+00 E(B2PLYPD3) =    -0.11556080571900D+03

 The electronic state is 1-A.
 Alpha  occ. eigenvalues --  -19.69488 -10.68190  -1.24504  -0.81461  -0.61420
 Alpha  occ. eigenvalues --   -0.52383  -0.50368  -0.40437  -0.35832
 Alpha virt. eigenvalues --    0.05363   0.09276   0.11842   0.12018   0.14249
 Alpha virt. eigenvalues --    0.16993   0.17640   0.28595   0.32396   0.33312
 Alpha virt. eigenvalues --    0.36655   0.38160   0.39239   0.40727   0.43323

 Mulliken charges:
               1
     1  C    0.054640
     2  O   -0.245582
     3  H    0.051753
     4  H    0.046463
     5  H    0.077502
     6  H    0.015224
 Sum of Mulliken charges =   0.00000

 Dipole moment (field-independent basis, Debye):
    X=              0.8480    Y=             -1.2116    Z=              0.0610  Tot=              1.4802
 Quadrupole moment (field-independent basis, Debye-Ang):
   XX=            -13.1698   YY=            -12.5783   ZZ=            -13.4806
   XY=              2.0365   XZ=             -0.0777   YZ=             -0.0304

 Normal termination of Gaussian 09 at Wed Aug 26 12:31:17 2020.
