 Gaussian 09, Revision D.01,
 Gaussian 09:  ES64L-G09RevD.01 24-Apr-2013

 --------------------
 #p B2PLYPD3/Def2QZVP
 --------------------

 --------
 methanol
 --------
 Symbolic Z-matrix:
 Charge =  0 Multiplicity = 1

                         Standard orientation:
 ---------------------------------------------------------------------
 Center     Atomic      Atomic             Coordinates (Angstroms)
 Number     Number       Type             X           Y           Z
 ---------------------------------------------------------------------
      1          6           0        0.655880   -0.019875    0.000985
      2          8           0       -0.741787    0.109265   -0.020910
      3          1           0        0.950900   -0.777171   -0.784169
      4          1           0        1.064398   -0.234945    0.991725
      5          1           0        1.025830    0.959306   -0.235023
      6          1           0       -1.042113   -0.702058    0.188841
 ---------------------------------------------------------------------

 SCF Done:  E(RB2PLYPD3) =  -115.545210283     A.U. after   11 cycles
 E2(B2PLYPD3) =    -0.1461129841D+00 E(B2PLYPD3) =    -0.11569132326716D+03

 The electronic state is 1-A.
 Alpha  occ. eigenvalues --  -19.71936 -10.65765  -1.18630  -0.78987  -0.59621
 Alpha  occ. eigenvalues --   -0.52629  -0.49996  -0.41440  -0.35532
 Alpha virt. eigenvalues --    0.05194   0.08698   0.12034   0.12504   0.14629
 Alpha virt. eigenvalues --    0.17186   0.18236   0.28874   0.32825   0.33994
 Alpha virt. eigenvalues --    0.36733   0.38464   0.40503   0.41412   0.44090

 Mulliken charges:
               1
     1  C    0.060804
     2  O   -0.414023
     3  H    0.045081
     4  H    0.048835
     5  H    0.069221
     6  H    0.190082
 Sum of Mulliken charges =   0.00000

 Dipole moment (field-independent basis, Debye):
    X=              0.9278    Y=             -1.3602    Z=              0.3854  Tot=              1.6910
 Quadrupole moment (field-independent basis, Debye-Ang):
   XX=            -13.4729   YY=            -12.2782   ZZ=            -13.5452
   XY=              2.0761   XZ=             -0.3630   YZ=             -0.2320

 Normal termination of Gaussian 09 at Wed Aug 26 11:34:52 2020.
