 Gaussian 09, Revision D.01,
 Gaussian 09:  ES64L-G09RevD.01 24-Apr-2013

 --------------------
 #p B2PLYPD3/Def2QZVP
 --------------------

 --------
 methanol
 --------
 Symbolic Z-matrix:
 Charge =  0 Multiplicity = 1

                         Standard orientation:
 ---------------------------------------------------------------------
 Center     Atomic      Atomic             Coordinates (Angstroms)
 Number     Number       Type             X           Y           Z
 ---------------------------------------------------------------------
      1          6           0        0.672061   -0.018447    0.006885
      2          8           0       -0.751036    0.116668   -0.014638
      3          1           0        1.003754   -0.660732   -0.868416
      4          1           0        1.050086   -0.414226    0.936290
      5          1           0        1.073938    0.972308   -0.097988
      6          1           0       -1.151858   -0.720012    0.105908
 ---------------------------------------------------------------------

 SCF Done:  E(RB2PLYPD3) =  -115.551096236     A.U. after   10 cycles
 E2(B2PLYPD3) =    -0.1469797394D+00 E(B2PLYPD3) =    -0.11569807597576D+03

 The electronic state is 1-A.
 Alpha  occ. eigenvalues --  -19.72227 -10.65923  -1.16253  -0.78930  -0.58705
 Alpha  occ. eigenvalues --   -0.51617  -0.49950  -0.41028  -0.35406
 Alpha virt. eigenvalues --    0.05097   0.08287   0.12201   0.12510   0.14696
 Alpha virt. eigenvalues --    0.17174   0.18157   0.29074   0.32798   0.33601
 Alpha virt. eigenvalues --    0.35711   0.38843   0.39701   0.40887   0.43752

 Mulliken charges:
               1
     1  C    0.068654
     2  O   -0.455386
     3  H    0.045879
     4  H    0.052421
     5  H    0.073811
     6  H    0.214620
 Sum of Mulliken charges =   0.00000

 Dipole moment (field-independent basis, Debye):
    X=              0.8903    Y=             -1.4291    Z=              0.2614  Tot=              1.7039
 Quadrupole moment (field-independent basis, Debye-Ang):
   XX=            -12.9773   YY=            -12.3357   ZZ=            -13.7012
   XY=              2.2776   XZ=             -0.1943   YZ=             -0.1667

 Normal termination of Gaussian 09 at Thu Aug 27 00:03:54 2020.
