 Gaussian 09, Revision D.01,
 Gaussian 09:  ES64L-G09RevD.01 24-Apr-2013

 --------------------
 #p B2PLYPD3/Def2QZVP
 --------------------

 --------
 methanol
 --------
 Symbolic Z-matrix:
 Charge =  0 Multiplicity = 1

                         Standard orientation:
 ---------------------------------------------------------------------
 Center     Atomic      Atomic             Coordinates (Angstroms)
 Number     Number       Type             X           Y           Z
 ---------------------------------------------------------------------
      1          6           0       -0.652392   -0.019918   -0.004011
      2          8           0        0.749537    0.081720   -0.004085
      3          1           0       -1.070727   -0.504784    0.968443
      4          1           0       -1.078930   -0.580943   -0.917244
      5          1           0       -1.029593    1.100383   -0.023511
      6          1           0        1.097308   -0.548906    0.029057
 ---------------------------------------------------------------------

 SCF Done:  E(RB2PLYPD3) =  -115.446118305     A.U. after   10 cycles
 E2(B2PLYPD3) =    -0.1442835940D+00 E(B2PLYPD3) =    -0.11559040189884D+03

 The electronic state is 1-A.
 Alpha  occ. eigenvalues --  -19.70385 -10.68448  -1.23841  -0.80830  -0.61792
 Alpha  occ. eigenvalues --   -0.51383  -0.49960  -0.40626  -0.36080
 Alpha virt. eigenvalues --    0.05349   0.09013   0.11779   0.11967   0.14785
 Alpha virt. eigenvalues --    0.16811   0.18051   0.28686   0.33102   0.33391
 Alpha virt. eigenvalues --    0.36243   0.38136   0.39087   0.40573   0.42060

 Mulliken charges:
               1
     1  C    0.043694
     2  O   -0.255390
     3  H    0.048308
     4  H    0.052643
     5  H    0.072055
     6  H    0.038690
 Sum of Mulliken charges =   0.00000

 Dipole moment (field-independent basis, Debye):
    X=             -0.8037    Y=             -1.2539    Z=              0.0571  Tot=              1.4905
 Quadrupole moment (field-independent basis, Debye-Ang):
   XX=            -13.0845   YY=            -12.5750   ZZ=            -13.6572
   XY=             -1.8489   XZ=              0.1109   YZ=             -0.0068

 Normal termination of Gaussian 09 at Wed Aug 26 14:30:35 2020.
