 Gaussian 09, Revision D.01,
 Gaussian 09:  ES64L-G09RevD.01 24-Apr-2013

 --------------------
 #p B2PLYPD3/Def2QZVP
 --------------------

 --------
 methanol
 --------
 Symbolic Z-matrix:
 Charge =  0 Multiplicity = 1

                         Standard orientation:
 ---------------------------------------------------------------------
 Center     Atomic      Atomic             Coordinates (Angstroms)
 Number     Number       Type             X           Y           Z
 ---------------------------------------------------------------------
      1          6           0        0.665862   -0.011701   -0.007185
      2          8           0       -0.754348    0.109762    0.005208
      3          1           0        1.010326   -0.566952   -0.896034
      4          1           0        1.019713   -0.548696    0.937376
      5          1           0        1.107172    0.988424   -0.015523
      6          1           0       -1.097599   -0.680667   -0.024375
 ---------------------------------------------------------------------

 SCF Done:  E(RB2PLYPD3) =  -115.541540055     A.U. after   10 cycles
 E2(B2PLYPD3) =    -0.1458727197D+00 E(B2PLYPD3) =    -0.11568741277511D+03

 The electronic state is 1-A.
 Alpha  occ. eigenvalues --  -19.71660 -10.66600  -1.18451  -0.79210  -0.59741
 Alpha  occ. eigenvalues --   -0.51435  -0.50385  -0.41401  -0.35511
 Alpha virt. eigenvalues --    0.05282   0.08606   0.12086   0.12402   0.14636
 Alpha virt. eigenvalues --    0.17396   0.17870   0.29030   0.32820   0.33180
 Alpha virt. eigenvalues --    0.36868   0.39280   0.39663   0.40120   0.43604

 Mulliken charges:
               1
     1  C    0.067844
     2  O   -0.410987
     3  H    0.048499
     4  H    0.043938
     5  H    0.075976
     6  H    0.174730
 Sum of Mulliken charges =   0.00000

 Dipole moment (field-independent basis, Debye):
    X=              0.9455    Y=             -1.3923    Z=             -0.0957  Tot=              1.6857
 Quadrupole moment (field-independent basis, Debye-Ang):
   XX=            -13.1554   YY=            -12.3268   ZZ=            -13.7161
   XY=              2.1987   XZ=              0.0202   YZ=              0.0736

 Normal termination of Gaussian 09 at Thu Aug 27 00:06:32 2020.
