 Gaussian 09, Revision D.01,
 Gaussian 09:  ES64L-G09RevD.01 24-Apr-2013

 --------------------
 #p B2PLYPD3/Def2QZVP
 --------------------

 --------
 methanol
 --------
 Symbolic Z-matrix:
 Charge =  0 Multiplicity = 1

                         Standard orientation:
 ---------------------------------------------------------------------
 Center     Atomic      Atomic             Coordinates (Angstroms)
 Number     Number       Type             X           Y           Z
 ---------------------------------------------------------------------
      1          6           0        0.665686    0.034665   -0.008667
      2          8           0       -0.745544   -0.156831    0.001112
      3          1           0        1.042710    0.457994    0.871519
      4          1           0        1.004401    0.589983   -0.782418
      5          1           0        1.128731   -0.919138   -0.058724
      6          1           0       -1.205608    0.917814    0.012731
 ---------------------------------------------------------------------

 SCF Done:  E(RB2PLYPD3) =  -115.515398734     A.U. after   11 cycles
 E2(B2PLYPD3) =    -0.1508646616D+00 E(B2PLYPD3) =    -0.11566626339525D+03

 The electronic state is 1-A.
 Alpha  occ. eigenvalues --  -19.74131 -10.63632  -1.12943  -0.78958  -0.56177
 Alpha  occ. eigenvalues --   -0.52372  -0.49279  -0.40536  -0.35256
 Alpha virt. eigenvalues --    0.02882   0.07623   0.12583   0.12832   0.14890
 Alpha virt. eigenvalues --    0.17542   0.18378   0.27203   0.29570   0.33589
 Alpha virt. eigenvalues --    0.33990   0.39119   0.39897   0.42313   0.43970

 Mulliken charges:
               1
     1  C    0.087541
     2  O   -0.493633
     3  H    0.045881
     4  H    0.045995
     5  H    0.060740
     6  H    0.253476
 Sum of Mulliken charges =   0.00000

 Dipole moment (field-independent basis, Debye):
    X=              0.9156    Y=              1.6925    Z=             -0.0077  Tot=              1.9243
 Quadrupole moment (field-independent basis, Debye-Ang):
   XX=            -12.7975   YY=            -11.9423   ZZ=            -13.9282
   XY=             -2.4531   XZ=             -0.0336   YZ=             -0.0412

 Normal termination of Gaussian 09 at Wed Aug 26 12:44:27 2020.
