 Gaussian 09, Revision D.01,
 Gaussian 09:  ES64L-G09RevD.01 24-Apr-2013

 --------------------
 #p B2PLYPD3/Def2QZVP
 --------------------

 --------
 methanol
 --------
 Symbolic Z-matrix:
 Charge =  0 Multiplicity = 1

                         Standard orientation:
 ---------------------------------------------------------------------
 Center     Atomic      Atomic             Coordinates (Angstroms)
 Number     Number       Type             X           Y           Z
 ---------------------------------------------------------------------
      1          6           0       -0.664237   -0.022834   -0.004262
      2          8           0        0.741138    0.112954   -0.004795
      3          1           0       -0.997461   -0.492874    0.931288
      4          1           0       -0.972866   -0.629469   -0.860671
      5          1           0       -1.099691    1.017678   -0.049675
      6          1           0        1.126339   -0.661966    0.042989
 ---------------------------------------------------------------------

 SCF Done:  E(RB2PLYPD3) =  -115.542949578     A.U. after   10 cycles
 E2(B2PLYPD3) =    -0.1456002777D+00 E(B2PLYPD3) =    -0.11568854985540D+03

 The electronic state is 1-A.
 Alpha  occ. eigenvalues --  -19.71395 -10.66253  -1.18459  -0.79295  -0.60016
 Alpha  occ. eigenvalues --   -0.52233  -0.49962  -0.40871  -0.35449
 Alpha virt. eigenvalues --    0.05293   0.08704   0.12211   0.12302   0.14754
 Alpha virt. eigenvalues --    0.17204   0.17781   0.29114   0.33072   0.33568
 Alpha virt. eigenvalues --    0.37311   0.38528   0.40032   0.40808   0.43661

 Mulliken charges:
               1
     1  C    0.070629
     2  O   -0.415587
     3  H    0.047428
     4  H    0.049255
     5  H    0.071300
     6  H    0.176975
 Sum of Mulliken charges =   0.00000

 Dipole moment (field-independent basis, Debye):
    X=             -0.8488    Y=             -1.4354    Z=              0.0874  Tot=              1.6699
 Quadrupole moment (field-independent basis, Debye-Ang):
   XX=            -13.0740   YY=            -12.3207   ZZ=            -13.6868
   XY=             -2.1747   XZ=              0.1052   YZ=             -0.0242

 Normal termination of Gaussian 09 at Thu Aug 27 00:15:19 2020.
