 Gaussian 09, Revision D.01,
 Gaussian 09:  ES64L-G09RevD.01 24-Apr-2013

 --------------------
 #p B2PLYPD3/Def2QZVP
 --------------------

 --------
 methanol
 --------
 Symbolic Z-matrix:
 Charge =  0 Multiplicity = 1

                         Standard orientation:
 ---------------------------------------------------------------------
 Center     Atomic      Atomic             Coordinates (Angstroms)
 Number     Number       Type             X           Y           Z
 ---------------------------------------------------------------------
      1          6           0       -0.677141   -0.018239    0.025730
      2          8           0        0.749307    0.078087   -0.030873
      3          1           0       -0.947382   -0.338885    1.035422
      4          1           0       -1.089417   -0.727458   -0.868389
      5          1           0       -1.025062    1.057207   -0.189595
      6          1           0        1.130255   -0.506122    0.115161
 ---------------------------------------------------------------------

 SCF Done:  E(RB2PLYPD3) =  -115.433940006     A.U. after   11 cycles
 E2(B2PLYPD3) =    -0.1441873763D+00 E(B2PLYPD3) =    -0.11557812738263D+03

 The electronic state is 1-A.
 Alpha  occ. eigenvalues --  -19.69481 -10.68296  -1.22895  -0.81319  -0.60963
 Alpha  occ. eigenvalues --   -0.51835  -0.49771  -0.40420  -0.35952
 Alpha virt. eigenvalues --    0.05378   0.09132   0.11688   0.11978   0.14265
 Alpha virt. eigenvalues --    0.16665   0.17930   0.28775   0.32144   0.32751
 Alpha virt. eigenvalues --    0.36086   0.37977   0.40378   0.40573   0.42640

 Mulliken charges:
               1
     1  C    0.053523
     2  O   -0.268475
     3  H    0.064150
     4  H    0.046454
     5  H    0.080711
     6  H    0.023637
 Sum of Mulliken charges =   0.00000

 Dipole moment (field-independent basis, Debye):
    X=             -0.8842    Y=             -1.1421    Z=              0.4092  Tot=              1.5012
 Quadrupole moment (field-independent basis, Debye-Ang):
   XX=            -13.0665   YY=            -12.6825   ZZ=            -13.3434
   XY=             -1.9088   XZ=              0.4558   YZ=             -0.2520

 Normal termination of Gaussian 09 at Wed Aug 26 16:00:41 2020.
