 Gaussian 09, Revision D.01,
 Gaussian 09:  ES64L-G09RevD.01 24-Apr-2013

 --------------------
 #p B2PLYPD3/Def2QZVP
 --------------------

 --------
 methanol
 --------
 Symbolic Z-matrix:
 Charge =  0 Multiplicity = 1

                         Standard orientation:
 ---------------------------------------------------------------------
 Center     Atomic      Atomic             Coordinates (Angstroms)
 Number     Number       Type             X           Y           Z
 ---------------------------------------------------------------------
      1          6           0        0.658914    0.017416   -0.022974
      2          8           0       -0.751436   -0.146466    0.011390
      3          1           0        1.087378    0.581398    0.844239
      4          1           0        0.988031    0.539162   -0.814487
      5          1           0        1.164080   -0.928240    0.028171
      6          1           0       -1.181484    0.874910   -0.011203
 ---------------------------------------------------------------------

 SCF Done:  E(RB2PLYPD3) =  -115.526648077     A.U. after   11 cycles
 E2(B2PLYPD3) =    -0.1499349766D+00 E(B2PLYPD3) =    -0.11567658305386D+03

 The electronic state is 1-A.
 Alpha  occ. eigenvalues --  -19.73994 -10.64590  -1.13872  -0.78677  -0.57221
 Alpha  occ. eigenvalues --   -0.51443  -0.49621  -0.40951  -0.35012
 Alpha virt. eigenvalues --    0.03581   0.07601   0.12538   0.12747   0.14927
 Alpha virt. eigenvalues --    0.17798   0.18237   0.28645   0.29991   0.33291
 Alpha virt. eigenvalues --    0.33883   0.38686   0.39552   0.41252   0.44020

 Mulliken charges:
               1
     1  C    0.083911
     2  O   -0.484686
     3  H    0.031790
     4  H    0.047912
     5  H    0.066497
     6  H    0.254578
 Sum of Mulliken charges =   0.00000

 Dipole moment (field-independent basis, Debye):
    X=              0.8680    Y=              1.6473    Z=             -0.1336  Tot=              1.8667
 Quadrupole moment (field-independent basis, Debye-Ang):
   XX=            -12.8129   YY=            -12.0090   ZZ=            -14.0781
   XY=             -2.4570   XZ=              0.0113   YZ=             -0.1560

 Normal termination of Gaussian 09 at Wed Aug 26 11:41:28 2020.
