 Gaussian 09, Revision D.01,
 Gaussian 09:  ES64L-G09RevD.01 24-Apr-2013

 --------------------
 #p B2PLYPD3/Def2QZVP
 --------------------

 --------
 methanol
 --------
 Symbolic Z-matrix:
 Charge =  0 Multiplicity = 1

                         Standard orientation:
 ---------------------------------------------------------------------
 Center     Atomic      Atomic             Coordinates (Angstroms)
 Number     Number       Type             X           Y           Z
 ---------------------------------------------------------------------
      1          6           0        0.687102    0.043370    0.005770
      2          8           0       -0.713419   -0.205126    0.002810
      3          1           0        1.087668    0.444577    0.769883
      4          1           0        0.874285    0.671544   -0.731619
      5          1           0        1.079208   -0.802457   -0.135814
      6          1           0       -1.456423    1.067119    0.040451
 ---------------------------------------------------------------------

 SCF Done:  E(RB2PLYPD3) =  -115.406674658     A.U. after   12 cycles
 E2(B2PLYPD3) =    -0.1566245733D+00 E(B2PLYPD3) =    -0.11556329923113D+03

 The electronic state is 1-A.
 Alpha  occ. eigenvalues --  -19.74985 -10.60836  -1.11152  -0.80693  -0.55947
 Alpha  occ. eigenvalues --   -0.53216  -0.48749  -0.38574  -0.34790
 Alpha virt. eigenvalues --   -0.02636   0.07485   0.12714   0.13282   0.14653
 Alpha virt. eigenvalues --    0.17234   0.18207   0.21504   0.29608   0.32808
 Alpha virt. eigenvalues --    0.34733   0.38375   0.40206   0.43898   0.45631

 Mulliken charges:
               1
     1  C    0.102492
     2  O   -0.490314
     3  H    0.044930
     4  H    0.042778
     5  H    0.072103
     6  H    0.228012
 Sum of Mulliken charges =   0.00000

 Dipole moment (field-independent basis, Debye):
    X=              0.8849    Y=              1.7036    Z=              0.0428  Tot=              1.9202
 Quadrupole moment (field-independent basis, Debye-Ang):
   XX=            -12.0192   YY=            -11.6561   ZZ=            -14.0484
   XY=             -2.7805   XZ=              0.0783   YZ=              0.0738

 Normal termination of Gaussian 09 at Wed Aug 26 18:50:28 2020.
