 Gaussian 09, Revision D.01,
 Gaussian 09:  ES64L-G09RevD.01 24-Apr-2013

 --------------------
 #p B2PLYPD3/Def2QZVP
 --------------------

 --------
 methanol
 --------
 Symbolic Z-matrix:
 Charge =  0 Multiplicity = 1

                         Standard orientation:
 ---------------------------------------------------------------------
 Center     Atomic      Atomic             Coordinates (Angstroms)
 Number     Number       Type             X           Y           Z
 ---------------------------------------------------------------------
      1          6           0       -0.690648    0.008051    0.000986
      2          8           0        0.771562   -0.060045   -0.012609
      3          1           0       -0.967514    1.110764   -0.519347
      4          1           0       -1.208501   -0.074345    1.064048
      5          1           0       -1.045610   -0.942471   -0.626230
      6          1           0        1.193021    0.338106    0.176484
 ---------------------------------------------------------------------

 SCF Done:  E(RB2PLYPD3) =  -115.218040557     A.U. after   11 cycles
 E2(B2PLYPD3) =    -0.1445362335D+00 E(B2PLYPD3) =    -0.11536257679052D+03

 The electronic state is 1-A.
 Alpha  occ. eigenvalues --  -19.68243 -10.71244  -1.26301  -0.82775  -0.61380
 Alpha  occ. eigenvalues --   -0.50420  -0.49240  -0.39384  -0.36088
 Alpha virt. eigenvalues --    0.04898   0.09059   0.11154   0.11622   0.13905
 Alpha virt. eigenvalues --    0.16496   0.17783   0.28332   0.29888   0.32483
 Alpha virt. eigenvalues --    0.34805   0.35989   0.36648   0.40869   0.42092

 Mulliken charges:
               1
     1  C    0.053639
     2  O   -0.188199
     3  H    0.049931
     4  H    0.065727
     5  H    0.094888
     6  H   -0.075987
 Sum of Mulliken charges =   0.00000

 Dipole moment (field-independent basis, Debye):
    X=             -0.9983    Y=              0.8622    Z=              0.4545  Tot=              1.3952
 Quadrupole moment (field-independent basis, Debye-Ang):
   XX=            -12.5902   YY=            -12.8312   ZZ=            -13.5199
   XY=              1.7556   XZ=              0.5146   YZ=              0.2843

 Normal termination of Gaussian 09 at Wed Aug 26 22:46:54 2020.
