 Gaussian 09, Revision D.01,
 Gaussian 09:  ES64L-G09RevD.01 24-Apr-2013

 --------------------
 #p B2PLYPD3/Def2QZVP
 --------------------

 --------
 methanol
 --------
 Symbolic Z-matrix:
 Charge =  0 Multiplicity = 1

                         Standard orientation:
 ---------------------------------------------------------------------
 Center     Atomic      Atomic             Coordinates (Angstroms)
 Number     Number       Type             X           Y           Z
 ---------------------------------------------------------------------
      1          6           0       -0.661718    0.019015    0.004738
      2          8           0        0.748794   -0.139013   -0.008455
      3          1           0       -0.988897    0.624375   -0.845790
      4          1           0       -1.050255    0.455387    0.876561
      5          1           0       -1.126365   -0.923296   -0.063387
      6          1           0        1.145475    0.841553    0.071828
 ---------------------------------------------------------------------

 SCF Done:  E(RB2PLYPD3) =  -115.540511166     A.U. after   11 cycles
 E2(B2PLYPD3) =    -0.1489135387D+00 E(B2PLYPD3) =    -0.11568942470447D+03

 The electronic state is 1-A.
 Alpha  occ. eigenvalues --  -19.73465 -10.64608  -1.14502  -0.78672  -0.57372
 Alpha  occ. eigenvalues --   -0.51892  -0.49980  -0.41015  -0.35200
 Alpha virt. eigenvalues --    0.04158   0.07900   0.12497   0.12682   0.14815
 Alpha virt. eigenvalues --    0.17656   0.18215   0.29101   0.31166   0.33179
 Alpha virt. eigenvalues --    0.34088   0.39250   0.40048   0.41475   0.43937

 Mulliken charges:
               1
     1  C    0.077650
     2  O   -0.479615
     3  H    0.041350
     4  H    0.045893
     5  H    0.067163
     6  H    0.247559
 Sum of Mulliken charges =   0.00000

 Dipole moment (field-independent basis, Debye):
    X=             -0.9155    Y=              1.5807    Z=              0.1700  Tot=              1.8345
 Quadrupole moment (field-independent basis, Debye-Ang):
   XX=            -12.9894   YY=            -12.0825   ZZ=            -13.8680
   XY=              2.4011   XZ=              0.0777   YZ=              0.1147

 Normal termination of Gaussian 09 at Thu Aug 27 01:06:26 2020.
