 Gaussian 09, Revision D.01,
 Gaussian 09:  ES64L-G09RevD.01 24-Apr-2013

 --------------------
 #p B2PLYPD3/Def2QZVP
 --------------------

 --------
 methanol
 --------
 Symbolic Z-matrix:
 Charge =  0 Multiplicity = 1

                         Standard orientation:
 ---------------------------------------------------------------------
 Center     Atomic      Atomic             Coordinates (Angstroms)
 Number     Number       Type             X           Y           Z
 ---------------------------------------------------------------------
      1          6           0       -0.670812    0.011781    0.010062
      2          8           0        0.750882   -0.142926   -0.010705
      3          1           0       -1.075553    0.577909   -0.858215
      4          1           0       -1.018649    0.491069    0.872179
      5          1           0       -1.079424   -0.890990   -0.024978
      6          1           0        1.191441    0.894737    0.036282
 ---------------------------------------------------------------------

 SCF Done:  E(RB2PLYPD3) =  -115.522294674     A.U. after   11 cycles
 E2(B2PLYPD3) =    -0.1502525056D+00 E(B2PLYPD3) =    -0.11567254717988D+03

 The electronic state is 1-A.
 Alpha  occ. eigenvalues --  -19.73879 -10.64104  -1.13166  -0.79011  -0.56503
 Alpha  occ. eigenvalues --   -0.51255  -0.50172  -0.41018  -0.35046
 Alpha virt. eigenvalues --    0.03425   0.07690   0.12550   0.12802   0.14853
 Alpha virt. eigenvalues --    0.17437   0.18326   0.28337   0.29800   0.33409
 Alpha virt. eigenvalues --    0.33645   0.38553   0.40692   0.41179   0.43593

 Mulliken charges:
               1
     1  C    0.080124
     2  O   -0.492904
     3  H    0.039306
     4  H    0.046771
     5  H    0.072330
     6  H    0.254373
 Sum of Mulliken charges =   0.00000

 Dipole moment (field-independent basis, Debye):
    X=             -0.9157    Y=              1.5783    Z=              0.1364  Tot=              1.8298
 Quadrupole moment (field-independent basis, Debye-Ang):
   XX=            -12.8551   YY=            -11.9701   ZZ=            -13.9245
   XY=              2.5009   XZ=              0.0696   YZ=              0.1065

 Normal termination of Gaussian 09 at Thu Aug 27 00:11:51 2020.
