 Gaussian 09, Revision D.01,
 Gaussian 09:  ES64L-G09RevD.01 24-Apr-2013

 --------------------
 #p B2PLYPD3/Def2QZVP
 --------------------

 --------
 methanol
 --------
 Symbolic Z-matrix:
 Charge =  0 Multiplicity = 1

                         Standard orientation:
 ---------------------------------------------------------------------
 Center     Atomic      Atomic             Coordinates (Angstroms)
 Number     Number       Type             X           Y           Z
 ---------------------------------------------------------------------
      1          6           0       -0.666171   -0.035973   -0.002486
      2          8           0        0.754119    0.116991   -0.015117
      3          1           0       -0.993371   -0.406836    0.965794
      4          1           0       -1.011751   -0.668421   -0.826566
      5          1           0       -1.178412    1.004976   -0.089531
      6          1           0        1.147606   -0.649808    0.086156
 ---------------------------------------------------------------------

 SCF Done:  E(RB2PLYPD3) =  -115.540197215     A.U. after   10 cycles
 E2(B2PLYPD3) =    -0.1460081755D+00 E(B2PLYPD3) =    -0.11568620539071D+03

 The electronic state is 1-A.
 Alpha  occ. eigenvalues --  -19.71647 -10.66682  -1.18026  -0.79201  -0.59739
 Alpha  occ. eigenvalues --   -0.52393  -0.49388  -0.40392  -0.35873
 Alpha virt. eigenvalues --    0.05319   0.08440   0.12151   0.12337   0.14473
 Alpha virt. eigenvalues --    0.17451   0.18145   0.29000   0.32801   0.33322
 Alpha virt. eigenvalues --    0.36059   0.38206   0.40045   0.40949   0.43808

 Mulliken charges:
               1
     1  C    0.067982
     2  O   -0.420175
     3  H    0.054096
     4  H    0.055577
     5  H    0.063902
     6  H    0.178618
 Sum of Mulliken charges =   0.00000

 Dipole moment (field-independent basis, Debye):
    X=             -0.8953    Y=             -1.4532    Z=              0.2070  Tot=              1.7193
 Quadrupole moment (field-independent basis, Debye-Ang):
   XX=            -12.8685   YY=            -12.5496   ZZ=            -13.6508
   XY=             -2.1931   XZ=              0.2688   YZ=             -0.0479

 Normal termination of Gaussian 09 at Wed Aug 26 16:28:23 2020.
