 Gaussian 09, Revision D.01,
 Gaussian 09:  ES64L-G09RevD.01 24-Apr-2013

 --------------------
 #p B2PLYPD3/Def2QZVP
 --------------------

 --------
 methanol
 --------
 Symbolic Z-matrix:
 Charge =  0 Multiplicity = 1

                         Standard orientation:
 ---------------------------------------------------------------------
 Center     Atomic      Atomic             Coordinates (Angstroms)
 Number     Number       Type             X           Y           Z
 ---------------------------------------------------------------------
      1          6           0        0.673423   -0.018529    0.012656
      2          8           0       -0.766468    0.089247   -0.011281
      3          1           0        1.121915   -0.614788   -0.900550
      4          1           0        1.032538   -0.498418    0.945967
      5          1           0        1.085376    1.080011   -0.054812
      6          1           0       -1.148624   -0.569607    0.023702
 ---------------------------------------------------------------------

 SCF Done:  E(RB2PLYPD3) =  -115.484671166     A.U. after   11 cycles
 E2(B2PLYPD3) =    -0.1451193149D+00 E(B2PLYPD3) =    -0.11562979048132D+03

 The electronic state is 1-A.
 Alpha  occ. eigenvalues --  -19.70640 -10.68404  -1.20947  -0.80108  -0.60979
 Alpha  occ. eigenvalues --   -0.50909  -0.49260  -0.40820  -0.36069
 Alpha virt. eigenvalues --    0.05357   0.08690   0.11789   0.12042   0.14671
 Alpha virt. eigenvalues --    0.16947   0.17981   0.28841   0.31898   0.33181
 Alpha virt. eigenvalues --    0.36226   0.37757   0.39688   0.39932   0.41948

 Mulliken charges:
               1
     1  C    0.055650
     2  O   -0.320987
     3  H    0.048426
     4  H    0.060841
     5  H    0.075827
     6  H    0.080243
 Sum of Mulliken charges =   0.00000

 Dipole moment (field-independent basis, Debye):
    X=              0.9260    Y=             -1.2965    Z=              0.1378  Tot=              1.5992
 Quadrupole moment (field-independent basis, Debye-Ang):
   XX=            -12.8432   YY=            -12.5630   ZZ=            -13.7245
   XY=              1.9846   XZ=             -0.0985   YZ=             -0.1073

 Normal termination of Gaussian 09 at Wed Aug 26 14:12:01 2020.
