 Gaussian 09, Revision D.01,
 Gaussian 09:  ES64L-G09RevD.01 24-Apr-2013

 --------------------
 #p B2PLYPD3/Def2QZVP
 --------------------

 --------
 methanol
 --------
 Symbolic Z-matrix:
 Charge =  0 Multiplicity = 1

                         Standard orientation:
 ---------------------------------------------------------------------
 Center     Atomic      Atomic             Coordinates (Angstroms)
 Number     Number       Type             X           Y           Z
 ---------------------------------------------------------------------
      1          6           0       -0.669066   -0.024302    0.005980
      2          8           0        0.746536    0.134000    0.002258
      3          1           0       -1.027910   -0.529421    0.842749
      4          1           0       -1.093983   -0.520398   -0.826502
      5          1           0       -0.995068    1.000237   -0.025053
      6          1           0        1.159069   -0.876602   -0.045139
 ---------------------------------------------------------------------

 SCF Done:  E(RB2PLYPD3) =  -115.533203165     A.U. after   11 cycles
 E2(B2PLYPD3) =    -0.1497470486D+00 E(B2PLYPD3) =    -0.11568295021359D+03

 The electronic state is 1-A.
 Alpha  occ. eigenvalues --  -19.73673 -10.64339  -1.13908  -0.78573  -0.57704
 Alpha  occ. eigenvalues --   -0.51939  -0.48605  -0.41190  -0.35316
 Alpha virt. eigenvalues --    0.03881   0.07876   0.12221   0.12760   0.15253
 Alpha virt. eigenvalues --    0.16933   0.18274   0.28830   0.30666   0.33601
 Alpha virt. eigenvalues --    0.34204   0.38274   0.39359   0.41987   0.44336

 Mulliken charges:
               1
     1  C    0.072689
     2  O   -0.480440
     3  H    0.050253
     4  H    0.045218
     5  H    0.067363
     6  H    0.244917
 Sum of Mulliken charges =   0.00000

 Dipole moment (field-independent basis, Debye):
    X=             -0.9152    Y=             -1.6356    Z=             -0.0714  Tot=              1.8756
 Quadrupole moment (field-independent basis, Debye-Ang):
   XX=            -13.0790   YY=            -11.8631   ZZ=            -13.9457
   XY=             -2.1667   XZ=             -0.0499   YZ=              0.0133

 Normal termination of Gaussian 09 at Wed Aug 26 10:52:30 2020.
