 Gaussian 09, Revision D.01,
 Gaussian 09:  ES64L-G09RevD.01 24-Apr-2013

 --------------------
 #p B2PLYPD3/Def2QZVP
 --------------------

 --------
 methanol
 --------
 Symbolic Z-matrix:
 Charge =  0 Multiplicity = 1

                         Standard orientation:
 ---------------------------------------------------------------------
 Center     Atomic      Atomic             Coordinates (Angstroms)
 Number     Number       Type             X           Y           Z
 ---------------------------------------------------------------------
      1          6           0       -0.659418    0.037672   -0.010427
      2          8           0        0.757554   -0.164448   -0.005964
      3          1           0       -1.049607    0.588613   -0.713567
      4          1           0       -1.146597    0.440247    0.740378
      5          1           0       -1.048346   -1.004601    0.000165
      6          1           0        1.140626    1.065297    0.083301
 ---------------------------------------------------------------------

 SCF Done:  E(RB2PLYPD3) =  -115.461552007     A.U. after   11 cycles
 E2(B2PLYPD3) =    -0.1543814394D+00 E(B2PLYPD3) =    -0.11561593344622D+03

 The electronic state is 1-A.
 Alpha  occ. eigenvalues --  -19.75608 -10.63133  -1.12277  -0.80246  -0.56081
 Alpha  occ. eigenvalues --   -0.51957  -0.48062  -0.40269  -0.35533
 Alpha virt. eigenvalues --    0.00692   0.07346   0.11795   0.13308   0.15309
 Alpha virt. eigenvalues --    0.17189   0.18539   0.23832   0.29421   0.33354
 Alpha virt. eigenvalues --    0.34190   0.36939   0.39046   0.42954   0.44595

 Mulliken charges:
               1
     1  C    0.092482
     2  O   -0.469338
     3  H    0.043647
     4  H    0.041843
     5  H    0.049621
     6  H    0.241743
 Sum of Mulliken charges =   0.00000

 Dipole moment (field-independent basis, Debye):
    X=             -1.0835    Y=              1.8358    Z=              0.1604  Tot=              2.1377
 Quadrupole moment (field-independent basis, Debye-Ang):
   XX=            -13.1781   YY=            -11.3956   ZZ=            -14.3065
   XY=              2.0063   XZ=              0.0307   YZ=              0.0258

 Normal termination of Gaussian 09 at Wed Aug 26 21:18:40 2020.
