 Gaussian 09, Revision D.01,
 Gaussian 09:  ES64L-G09RevD.01 24-Apr-2013

 --------------------
 #p B2PLYPD3/Def2QZVP
 --------------------

 --------
 methanol
 --------
 Symbolic Z-matrix:
 Charge =  0 Multiplicity = 1

                         Standard orientation:
 ---------------------------------------------------------------------
 Center     Atomic      Atomic             Coordinates (Angstroms)
 Number     Number       Type             X           Y           Z
 ---------------------------------------------------------------------
      1          6           0        0.640695    0.016820   -0.005816
      2          8           0       -0.719715   -0.174525    0.004140
      3          1           0        0.959909    0.477853    0.849019
      4          1           0        1.032164    0.526584   -0.742086
      5          1           0        0.993240   -0.852313   -0.055950
      6          1           0       -1.071759    1.143159   -0.049210
 ---------------------------------------------------------------------

 SCF Done:  E(RB2PLYPD3) =  -115.438684109     A.U. after   11 cycles
 E2(B2PLYPD3) =    -0.1542677287D+00 E(B2PLYPD3) =    -0.11559295183804D+03

 The electronic state is 1-A.
 Alpha  occ. eigenvalues --  -19.75132 -10.61031  -1.13964  -0.79804  -0.57118
 Alpha  occ. eigenvalues --   -0.53471  -0.49594  -0.39877  -0.34893
 Alpha virt. eigenvalues --   -0.00830   0.07767   0.12700   0.12891   0.14986
 Alpha virt. eigenvalues --    0.17505   0.18272   0.22884   0.29502   0.33212
 Alpha virt. eigenvalues --    0.36372   0.38733   0.40283   0.43425   0.45495

 Mulliken charges:
               1
     1  C    0.100377
     2  O   -0.462986
     3  H    0.035206
     4  H    0.029141
     5  H    0.064241
     6  H    0.234022
 Sum of Mulliken charges =   0.00000

 Dipole moment (field-independent basis, Debye):
    X=              1.1033    Y=              1.6991    Z=             -0.1208  Tot=              2.0295
 Quadrupole moment (field-independent basis, Debye-Ang):
   XX=            -13.6296   YY=            -11.1827   ZZ=            -13.8988
   XY=             -2.1694   XZ=             -0.0509   YZ=             -0.0766

 Normal termination of Gaussian 09 at Wed Aug 26 19:28:16 2020.
