 Gaussian 09, Revision D.01,
 Gaussian 09:  ES64L-G09RevD.01 24-Apr-2013

 --------------------
 #p B2PLYPD3/Def2QZVP
 --------------------

 --------
 methanol
 --------
 Symbolic Z-matrix:
 Charge =  0 Multiplicity = 1

                         Standard orientation:
 ---------------------------------------------------------------------
 Center     Atomic      Atomic             Coordinates (Angstroms)
 Number     Number       Type             X           Y           Z
 ---------------------------------------------------------------------
      1          6           0       -0.661889   -0.018209   -0.006603
      2          8           0        0.741349    0.112016    0.001396
      3          1           0       -1.026319   -0.540020    0.912511
      4          1           0       -0.977777   -0.592300   -0.881157
      5          1           0       -1.092510    1.014887   -0.019622
      6          1           0        1.137149   -0.669440    0.016720
 ---------------------------------------------------------------------

 SCF Done:  E(RB2PLYPD3) =  -115.545134598     A.U. after   10 cycles
 E2(B2PLYPD3) =    -0.1457659486D+00 E(B2PLYPD3) =    -0.11569090054637D+03

 The electronic state is 1-A.
 Alpha  occ. eigenvalues --  -19.71589 -10.66331  -1.18284  -0.79196  -0.60020
 Alpha  occ. eigenvalues --   -0.51862  -0.50129  -0.40892  -0.35348
 Alpha virt. eigenvalues --    0.05266   0.08616   0.12261   0.12307   0.14835
 Alpha virt. eigenvalues --    0.17207   0.17804   0.29130   0.33050   0.33757
 Alpha virt. eigenvalues --    0.37125   0.38787   0.39766   0.40536   0.43424

 Mulliken charges:
               1
     1  C    0.069448
     2  O   -0.419674
     3  H    0.044101
     4  H    0.048501
     5  H    0.073143
     6  H    0.184481
 Sum of Mulliken charges =   0.00000

 Dipole moment (field-independent basis, Debye):
    X=             -0.8159    Y=             -1.4280    Z=              0.0049  Tot=              1.6447
 Quadrupole moment (field-independent basis, Debye-Ang):
   XX=            -13.0156   YY=            -12.3195   ZZ=            -13.7559
   XY=             -2.1950   XZ=              0.0255   YZ=              0.0180

 Normal termination of Gaussian 09 at Thu Aug 27 00:15:12 2020.
