 Gaussian 09, Revision D.01,
 Gaussian 09:  ES64L-G09RevD.01 24-Apr-2013

 --------------------
 #p B2PLYPD3/Def2QZVP
 --------------------

 --------
 methanol
 --------
 Symbolic Z-matrix:
 Charge =  0 Multiplicity = 1

                         Standard orientation:
 ---------------------------------------------------------------------
 Center     Atomic      Atomic             Coordinates (Angstroms)
 Number     Number       Type             X           Y           Z
 ---------------------------------------------------------------------
      1          6           0       -0.650994    0.008706   -0.003253
      2          8           0        0.738380   -0.138563    0.004794
      3          1           0       -1.071199    0.489115   -0.878926
      4          1           0       -0.979920    0.569328    0.900663
      5          1           0       -1.086631   -0.871139    0.024213
      6          1           0        1.136679    0.868966   -0.064789
 ---------------------------------------------------------------------

 SCF Done:  E(RB2PLYPD3) =  -115.529177772     A.U. after   11 cycles
 E2(B2PLYPD3) =    -0.1490809052D+00 E(B2PLYPD3) =    -0.11567825867747D+03

 The electronic state is 1-A.
 Alpha  occ. eigenvalues --  -19.73673 -10.64165  -1.14971  -0.78833  -0.57257
 Alpha  occ. eigenvalues --   -0.51927  -0.50885  -0.40882  -0.34885
 Alpha virt. eigenvalues --    0.03824   0.07922   0.12377   0.12975   0.14839
 Alpha virt. eigenvalues --    0.17666   0.18364   0.28855   0.30433   0.33031
 Alpha virt. eigenvalues --    0.34840   0.38724   0.40513   0.41932   0.43542

 Mulliken charges:
               1
     1  C    0.070959
     2  O   -0.471993
     3  H    0.039197
     4  H    0.037571
     5  H    0.070868
     6  H    0.253398
 Sum of Mulliken charges =   0.00000

 Dipole moment (field-independent basis, Debye):
    X=             -0.8386    Y=              1.5215    Z=             -0.1406  Tot=              1.7430
 Quadrupole moment (field-independent basis, Debye-Ang):
   XX=            -13.0486   YY=            -12.0638   ZZ=            -13.8498
   XY=              2.4923   XZ=             -0.0306   YZ=             -0.1053

 Normal termination of Gaussian 09 at Wed Aug 26 14:31:59 2020.
