 Gaussian 09, Revision D.01,
 Gaussian 09:  ES64L-G09RevD.01 24-Apr-2013

 --------------------
 #p B2PLYPD3/Def2QZVP
 --------------------

 --------
 methanol
 --------
 Symbolic Z-matrix:
 Charge =  0 Multiplicity = 1

                         Standard orientation:
 ---------------------------------------------------------------------
 Center     Atomic      Atomic             Coordinates (Angstroms)
 Number     Number       Type             X           Y           Z
 ---------------------------------------------------------------------
      1          6           0        0.663987   -0.010779    0.007306
      2          8           0       -0.754449    0.096690   -0.017256
      3          1           0        1.033449   -0.771413   -0.807927
      4          1           0        1.024824   -0.318969    1.036329
      5          1           0        1.113770    0.974910   -0.228587
      6          1           0       -1.120372   -0.593377    0.094403
 ---------------------------------------------------------------------

 SCF Done:  E(RB2PLYPD3) =  -115.508016315     A.U. after   10 cycles
 E2(B2PLYPD3) =    -0.1449574789D+00 E(B2PLYPD3) =    -0.11565297379410D+03

 The electronic state is 1-A.
 Alpha  occ. eigenvalues --  -19.70891 -10.67634  -1.20640  -0.80011  -0.60544
 Alpha  occ. eigenvalues --   -0.51275  -0.50606  -0.40806  -0.35733
 Alpha virt. eigenvalues --    0.05394   0.08792   0.11867   0.12383   0.14431
 Alpha virt. eigenvalues --    0.17257   0.17941   0.28831   0.32837   0.32911
 Alpha virt. eigenvalues --    0.36606   0.38930   0.39655   0.39969   0.43054

 Mulliken charges:
               1
     1  C    0.060428
     2  O   -0.344873
     3  H    0.041623
     4  H    0.052249
     5  H    0.079667
     6  H    0.110906
 Sum of Mulliken charges =   0.00000

 Dipole moment (field-independent basis, Debye):
    X=              0.8910    Y=             -1.2502    Z=              0.2348  Tot=              1.5530
 Quadrupole moment (field-independent basis, Debye-Ang):
   XX=            -12.9920   YY=            -12.5946   ZZ=            -13.6166
   XY=              2.1487   XZ=             -0.3299   YZ=             -0.1756

 Normal termination of Gaussian 09 at Wed Aug 26 23:45:55 2020.
