 Gaussian 09, Revision D.01,
 Gaussian 09:  ES64L-G09RevD.01 24-Apr-2013

 --------------------
 #p B2PLYPD3/Def2QZVP
 --------------------

 --------
 methanol
 --------
 Symbolic Z-matrix:
 Charge =  0 Multiplicity = 1

                         Standard orientation:
 ---------------------------------------------------------------------
 Center     Atomic      Atomic             Coordinates (Angstroms)
 Number     Number       Type             X           Y           Z
 ---------------------------------------------------------------------
      1          6           0        0.666861   -0.047606   -0.014915
      2          8           0       -0.744098    0.049326    0.010980
      3          1           0        0.972268   -0.830180   -0.774905
      4          1           0        1.160662   -0.169278    1.108316
      5          1           0        0.950998    1.198119   -0.376124
      6          1           0       -1.132307   -0.307630    0.044365
 ---------------------------------------------------------------------

 SCF Done:  E(RB2PLYPD3) =  -114.904749676     A.U. after   12 cycles
 E2(B2PLYPD3) =    -0.1439688579D+00 E(B2PLYPD3) =    -0.11504871853346D+03

 The electronic state is 1-A.
 Alpha  occ. eigenvalues --  -19.68137 -10.71442  -1.31504  -0.85551  -0.62378
 Alpha  occ. eigenvalues --   -0.52050  -0.48836  -0.38742  -0.36102
 Alpha virt. eigenvalues --    0.04575   0.09509   0.10523   0.11545   0.14089
 Alpha virt. eigenvalues --    0.16169   0.18053   0.28375   0.31228   0.32635
 Alpha virt. eigenvalues --    0.33388   0.34940   0.38989   0.40681   0.42411

 Mulliken charges:
               1
     1  C    0.034918
     2  O   -0.064485
     3  H    0.073039
     4  H    0.062371
     5  H    0.067251
     6  H   -0.173094
 Sum of Mulliken charges =   0.00000

 Dipole moment (field-independent basis, Debye):
    X=              0.7638    Y=             -1.0728    Z=              0.0252  Tot=              1.3171
 Quadrupole moment (field-independent basis, Debye-Ang):
   XX=            -12.9060   YY=            -12.7830   ZZ=            -13.3477
   XY=              1.2922   XZ=             -0.0076   YZ=              0.1609

 Normal termination of Gaussian 09 at Wed Aug 26 23:48:40 2020.
