 Gaussian 09, Revision D.01,
 Gaussian 09:  ES64L-G09RevD.01 24-Apr-2013

 --------------------
 #p B2PLYPD3/Def2QZVP
 --------------------

 --------
 methanol
 --------
 Symbolic Z-matrix:
 Charge =  0 Multiplicity = 1

                         Standard orientation:
 ---------------------------------------------------------------------
 Center     Atomic      Atomic             Coordinates (Angstroms)
 Number     Number       Type             X           Y           Z
 ---------------------------------------------------------------------
      1          6           0        0.669530   -0.006581    0.023525
      2          8           0       -0.771519   -0.105787   -0.037068
      3          1           0        1.138573    0.211783    0.997791
      4          1           0        1.007975    0.869337   -0.790559
      5          1           0        1.148973   -0.858996   -0.315179
      6          1           0       -1.140547    0.663657    0.263342
 ---------------------------------------------------------------------

 SCF Done:  E(RB2PLYPD3) =  -115.533713579     A.U. after   11 cycles
 E2(B2PLYPD3) =    -0.1473454797D+00 E(B2PLYPD3) =    -0.11568105905862D+03

 The electronic state is 1-A.
 Alpha  occ. eigenvalues --  -19.72640 -10.67217  -1.16918  -0.79202  -0.59024
 Alpha  occ. eigenvalues --   -0.50969  -0.49977  -0.41238  -0.35220
 Alpha virt. eigenvalues --    0.05070   0.07996   0.11612   0.12759   0.14364
 Alpha virt. eigenvalues --    0.17687   0.18394   0.28853   0.31127   0.33450
 Alpha virt. eigenvalues --    0.34701   0.37641   0.39154   0.41244   0.44244

 Mulliken charges:
               1
     1  C    0.060353
     2  O   -0.430351
     3  H    0.055735
     4  H    0.027270
     5  H    0.081206
     6  H    0.205786
 Sum of Mulliken charges =   0.00000

 Dipole moment (field-independent basis, Debye):
    X=              0.9265    Y=              1.1773    Z=              0.6259  Tot=              1.6236
 Quadrupole moment (field-independent basis, Debye-Ang):
   XX=            -12.8720   YY=            -12.7838   ZZ=            -13.6475
   XY=             -2.3704   XZ=             -0.5714   YZ=              0.5117

 Normal termination of Gaussian 09 at Wed Aug 26 21:29:36 2020.
