 Gaussian 09, Revision D.01,
 Gaussian 09:  ES64L-G09RevD.01 24-Apr-2013

 --------------------
 #p B2PLYPD3/Def2QZVP
 --------------------

 --------
 methanol
 --------
 Symbolic Z-matrix:
 Charge =  0 Multiplicity = 1

                         Standard orientation:
 ---------------------------------------------------------------------
 Center     Atomic      Atomic             Coordinates (Angstroms)
 Number     Number       Type             X           Y           Z
 ---------------------------------------------------------------------
      1          6           0       -0.665665    0.015570    0.003988
      2          8           0        0.734105   -0.143665   -0.011054
      3          1           0       -0.995324    0.612559   -0.844810
      4          1           0       -0.985156    0.484948    0.877269
      5          1           0       -1.082829   -0.900915   -0.029233
      6          1           0        1.184462    0.859304    0.061275
 ---------------------------------------------------------------------

 SCF Done:  E(RB2PLYPD3) =  -115.530225584     A.U. after   11 cycles
 E2(B2PLYPD3) =    -0.1491933631D+00 E(B2PLYPD3) =    -0.11567941894704D+03

 The electronic state is 1-A.
 Alpha  occ. eigenvalues --  -19.73323 -10.63783  -1.14063  -0.78808  -0.57154
 Alpha  occ. eigenvalues --   -0.52058  -0.50507  -0.40770  -0.34817
 Alpha virt. eigenvalues --    0.03722   0.07972   0.12562   0.12795   0.14883
 Alpha virt. eigenvalues --    0.17432   0.18059   0.28984   0.30226   0.33195
 Alpha virt. eigenvalues --    0.34353   0.39186   0.41076   0.41613   0.43929

 Mulliken charges:
               1
     1  C    0.082910
     2  O   -0.489044
     3  H    0.040313
     4  H    0.042995
     5  H    0.071312
     6  H    0.251515
 Sum of Mulliken charges =   0.00000

 Dipole moment (field-independent basis, Debye):
    X=             -0.8475    Y=              1.5802    Z=              0.1628  Tot=              1.8005
 Quadrupole moment (field-independent basis, Debye-Ang):
   XX=            -12.9232   YY=            -11.9749   ZZ=            -13.8327
   XY=              2.4951   XZ=              0.1097   YZ=              0.1001

 Normal termination of Gaussian 09 at Wed Aug 26 10:22:33 2020.
