 Gaussian 09, Revision D.01,
 Gaussian 09:  ES64L-G09RevD.01 24-Apr-2013

 --------------------
 #p B2PLYPD3/Def2QZVP
 --------------------

 --------
 methanol
 --------
 Symbolic Z-matrix:
 Charge =  0 Multiplicity = 1

                         Standard orientation:
 ---------------------------------------------------------------------
 Center     Atomic      Atomic             Coordinates (Angstroms)
 Number     Number       Type             X           Y           Z
 ---------------------------------------------------------------------
      1          6           0        0.693875    0.032876    0.000347
      2          8           0       -0.733900   -0.201103   -0.000799
      3          1           0        0.832344    0.503977    0.850266
      4          1           0        1.007432    0.531286   -0.737708
      5          1           0        1.125939   -0.754709   -0.044809
      6          1           0       -1.257766    1.131010   -0.063441
 ---------------------------------------------------------------------

 SCF Done:  E(RB2PLYPD3) =  -115.398383234     A.U. after   12 cycles
 E2(B2PLYPD3) =    -0.1561236373D+00 E(B2PLYPD3) =    -0.11555450687082D+03

 The electronic state is 1-A.
 Alpha  occ. eigenvalues --  -19.74871 -10.60300  -1.10648  -0.81515  -0.55777
 Alpha  occ. eigenvalues --   -0.54556  -0.48162  -0.39322  -0.34991
 Alpha virt. eigenvalues --   -0.01779   0.07605   0.12668   0.12895   0.14307
 Alpha virt. eigenvalues --    0.17805   0.18039   0.22245   0.29584   0.32220
 Alpha virt. eigenvalues --    0.33887   0.39390   0.40426   0.44497   0.45023

 Mulliken charges:
               1
     1  C    0.092838
     2  O   -0.494830
     3  H    0.055003
     4  H    0.041808
     5  H    0.075939
     6  H    0.229243
 Sum of Mulliken charges =   0.00000

 Dipole moment (field-independent basis, Debye):
    X=              1.1874    Y=              1.7285    Z=             -0.1119  Tot=              2.1001
 Quadrupole moment (field-independent basis, Debye-Ang):
   XX=            -12.8517   YY=            -11.4263   ZZ=            -13.7467
   XY=             -2.6714   XZ=             -0.1252   YZ=             -0.0661

 Normal termination of Gaussian 09 at Wed Aug 26 23:26:40 2020.
