 Gaussian 09, Revision D.01,
 Gaussian 09:  ES64L-G09RevD.01 24-Apr-2013

 --------------------
 #p B2PLYPD3/Def2QZVP
 --------------------

 --------
 methanol
 --------
 Symbolic Z-matrix:
 Charge =  0 Multiplicity = 1

                         Standard orientation:
 ---------------------------------------------------------------------
 Center     Atomic      Atomic             Coordinates (Angstroms)
 Number     Number       Type             X           Y           Z
 ---------------------------------------------------------------------
      1          6           0       -0.677809   -0.048707   -0.013596
      2          8           0        0.743327    0.071514   -0.010856
      3          1           0       -0.992245   -0.507811    0.986153
      4          1           0       -1.091108   -0.542751   -0.889674
      5          1           0       -0.971753    1.222697    0.031449
      6          1           0        1.175346   -0.452007    0.040500
 ---------------------------------------------------------------------

 SCF Done:  E(RB2PLYPD3) =  -115.372784616     A.U. after   11 cycles
 E2(B2PLYPD3) =    -0.1443354606D+00 E(B2PLYPD3) =    -0.11551712007623D+03

 The electronic state is 1-A.
 Alpha  occ. eigenvalues --  -19.69008 -10.69230  -1.23987  -0.82143  -0.62027
 Alpha  occ. eigenvalues --   -0.52632  -0.48081  -0.38534  -0.36566
 Alpha virt. eigenvalues --    0.05033   0.09261   0.10743   0.12026   0.14550
 Alpha virt. eigenvalues --    0.16342   0.18089   0.28739   0.31801   0.33313
 Alpha virt. eigenvalues --    0.33714   0.38504   0.39799   0.40781   0.42466

 Mulliken charges:
               1
     1  C    0.036418
     2  O   -0.223845
     3  H    0.060159
     4  H    0.077904
     5  H    0.062527
     6  H   -0.013163
 Sum of Mulliken charges =   0.00000

 Dipole moment (field-independent basis, Debye):
    X=             -0.7506    Y=             -1.2962    Z=              0.0817  Tot=              1.5000
 Quadrupole moment (field-independent basis, Debye-Ang):
   XX=            -12.8693   YY=            -12.7562   ZZ=            -13.4248
   XY=             -1.5040   XZ=              0.3104   YZ=              0.0588

 Normal termination of Gaussian 09 at Wed Aug 26 21:45:08 2020.
