 Gaussian 09, Revision D.01,
 Gaussian 09:  ES64L-G09RevD.01 24-Apr-2013

 --------------------
 #p B2PLYPD3/Def2QZVP
 --------------------

 --------
 methanol
 --------
 Symbolic Z-matrix:
 Charge =  0 Multiplicity = 1

                         Standard orientation:
 ---------------------------------------------------------------------
 Center     Atomic      Atomic             Coordinates (Angstroms)
 Number     Number       Type             X           Y           Z
 ---------------------------------------------------------------------
      1          6           0       -0.660650   -0.019050    0.011794
      2          8           0        0.742973    0.108184   -0.013260
      3          1           0       -0.978306   -0.476223    0.947526
      4          1           0       -1.047436   -0.603078   -0.904817
      5          1           0       -1.068118    0.999791   -0.051803
      6          1           0        1.113975   -0.671661    0.044407
 ---------------------------------------------------------------------

 SCF Done:  E(RB2PLYPD3) =  -115.541809245     A.U. after   10 cycles
 E2(B2PLYPD3) =    -0.1457201056D+00 E(B2PLYPD3) =    -0.11568752935065D+03

 The electronic state is 1-A.
 Alpha  occ. eigenvalues --  -19.71592 -10.66437  -1.18709  -0.79252  -0.59882
 Alpha  occ. eigenvalues --   -0.51953  -0.50272  -0.40920  -0.35504
 Alpha virt. eigenvalues --    0.05301   0.08656   0.12093   0.12408   0.14642
 Alpha virt. eigenvalues --    0.17174   0.18049   0.28948   0.33049   0.33661
 Alpha virt. eigenvalues --    0.36939   0.38993   0.39819   0.40615   0.43611

 Mulliken charges:
               1
     1  C    0.063541
     2  O   -0.408555
     3  H    0.052509
     4  H    0.042627
     5  H    0.072826
     6  H    0.177053
 Sum of Mulliken charges =   0.00000

 Dipole moment (field-independent basis, Debye):
    X=             -0.8385    Y=             -1.3759    Z=              0.1671  Tot=              1.6199
 Quadrupole moment (field-independent basis, Debye-Ang):
   XX=            -13.1336   YY=            -12.4098   ZZ=            -13.6316
   XY=             -2.1807   XZ=              0.1372   YZ=             -0.1209

 Normal termination of Gaussian 09 at Thu Aug 27 00:14:02 2020.
