 Gaussian 09, Revision D.01,
 Gaussian 09:  ES64L-G09RevD.01 24-Apr-2013

 --------------------
 #p B2PLYPD3/Def2QZVP
 --------------------

 --------
 methanol
 --------
 Symbolic Z-matrix:
 Charge =  0 Multiplicity = 1

                         Standard orientation:
 ---------------------------------------------------------------------
 Center     Atomic      Atomic             Coordinates (Angstroms)
 Number     Number       Type             X           Y           Z
 ---------------------------------------------------------------------
      1          6           0        0.664319    0.026388   -0.001532
      2          8           0       -0.743835   -0.144370    0.004485
      3          1           0        1.032213    0.530969    0.871976
      4          1           0        1.072805    0.516172   -0.841341
      5          1           0        1.074214   -0.929548   -0.014984
      6          1           0       -1.214470    0.879042   -0.042343
 ---------------------------------------------------------------------

 SCF Done:  E(RB2PLYPD3) =  -115.527892999     A.U. after   11 cycles
 E2(B2PLYPD3) =    -0.1501226625D+00 E(B2PLYPD3) =    -0.11567801566162D+03

 The electronic state is 1-A.
 Alpha  occ. eigenvalues --  -19.73893 -10.64195  -1.13538  -0.78609  -0.56723
 Alpha  occ. eigenvalues --   -0.51780  -0.49607  -0.40616  -0.35177
 Alpha virt. eigenvalues --    0.03469   0.07684   0.12650   0.12682   0.15006
 Alpha virt. eigenvalues --    0.17248   0.18464   0.28353   0.29792   0.33515
 Alpha virt. eigenvalues --    0.34374   0.38922   0.39772   0.41671   0.43882

 Mulliken charges:
               1
     1  C    0.074966
     2  O   -0.487912
     3  H    0.046750
     4  H    0.045978
     5  H    0.066787
     6  H    0.253431
 Sum of Mulliken charges =   0.00000

 Dipole moment (field-independent basis, Debye):
    X=              0.8380    Y=              1.6072    Z=             -0.0982  Tot=              1.8152
 Quadrupole moment (field-independent basis, Debye-Ang):
   XX=            -12.7493   YY=            -12.0612   ZZ=            -13.9218
   XY=             -2.4459   XZ=              0.0330   YZ=             -0.0517

 Normal termination of Gaussian 09 at Thu Aug 27 00:09:11 2020.
