 Gaussian 09, Revision D.01,
 Gaussian 09:  ES64L-G09RevD.01 24-Apr-2013

 --------------------
 #p B2PLYPD3/Def2QZVP
 --------------------

 --------
 methanol
 --------
 Symbolic Z-matrix:
 Charge =  0 Multiplicity = 1

                         Standard orientation:
 ---------------------------------------------------------------------
 Center     Atomic      Atomic             Coordinates (Angstroms)
 Number     Number       Type             X           Y           Z
 ---------------------------------------------------------------------
      1          6           0       -0.671619   -0.025542    0.006079
      2          8           0        0.741592    0.137159   -0.002947
      3          1           0       -0.977208   -0.506177    0.881863
      4          1           0       -1.040390   -0.558522   -0.847223
      5          1           0       -1.067272    0.949256   -0.034898
      6          1           0        1.181850   -0.828581   -0.012646
 ---------------------------------------------------------------------

 SCF Done:  E(RB2PLYPD3) =  -115.540897665     A.U. after   11 cycles
 E2(B2PLYPD3) =    -0.1487618868D+00 E(B2PLYPD3) =    -0.11568965955182D+03

 The electronic state is 1-A.
 Alpha  occ. eigenvalues --  -19.73094 -10.64293  -1.14143  -0.78750  -0.57405
 Alpha  occ. eigenvalues --   -0.52393  -0.49558  -0.40838  -0.35184
 Alpha virt. eigenvalues --    0.04242   0.07998   0.12546   0.12595   0.14897
 Alpha virt. eigenvalues --    0.17218   0.18162   0.29131   0.31541   0.33381
 Alpha virt. eigenvalues --    0.33970   0.39169   0.39963   0.41995   0.44114

 Mulliken charges:
               1
     1  C    0.078343
     2  O   -0.487981
     3  H    0.050465
     4  H    0.045012
     5  H    0.069310
     6  H    0.244851
 Sum of Mulliken charges =   0.00000

 Dipole moment (field-independent basis, Debye):
    X=             -0.8841    Y=             -1.5848    Z=              0.0017  Tot=              1.8147
 Quadrupole moment (field-independent basis, Debye-Ang):
   XX=            -12.9229   YY=            -12.0611   ZZ=            -13.7851
   XY=             -2.3738   XZ=              0.0194   YZ=             -0.0197

 Normal termination of Gaussian 09 at Wed Aug 26 22:55:39 2020.
