 Gaussian 09, Revision D.01,
 Gaussian 09:  ES64L-G09RevD.01 24-Apr-2013

 --------------------
 #p B2PLYPD3/Def2QZVP
 --------------------

 --------
 methanol
 --------
 Symbolic Z-matrix:
 Charge =  0 Multiplicity = 1

                         Standard orientation:
 ---------------------------------------------------------------------
 Center     Atomic      Atomic             Coordinates (Angstroms)
 Number     Number       Type             X           Y           Z
 ---------------------------------------------------------------------
      1          6           0        0.701245    0.013988    0.019296
      2          8           0       -0.766123   -0.181643   -0.000825
      3          1           0        0.978813    0.493715    0.799768
      4          1           0        1.182159    0.446740   -0.769668
      5          1           0        0.916059   -0.814869   -0.057993
      6          1           0       -1.155521    1.243633   -0.081287
 ---------------------------------------------------------------------

 SCF Done:  E(RB2PLYPD3) =  -115.369535536     A.U. after   12 cycles
 E2(B2PLYPD3) =    -0.1591212037D+00 E(B2PLYPD3) =    -0.11552865673940D+03

 The electronic state is 1-A.
 Alpha  occ. eigenvalues --  -19.75906 -10.60942  -1.10051  -0.81953  -0.57845
 Alpha  occ. eigenvalues --   -0.52253  -0.46646  -0.39692  -0.35677
 Alpha virt. eigenvalues --   -0.02618   0.07284   0.12519   0.12799   0.14402
 Alpha virt. eigenvalues --    0.16791   0.18633   0.21581   0.28700   0.31823
 Alpha virt. eigenvalues --    0.33847   0.37923   0.39657   0.43292   0.45054

 Mulliken charges:
               1
     1  C    0.037132
     2  O   -0.483473
     3  H    0.055053
     4  H    0.042893
     5  H    0.133574
     6  H    0.214821
 Sum of Mulliken charges =   0.00000

 Dipole moment (field-independent basis, Debye):
    X=              1.4421    Y=              1.6638    Z=             -0.0770  Tot=              2.2031
 Quadrupole moment (field-independent basis, Debye-Ang):
   XX=            -13.3711   YY=            -11.0530   ZZ=            -13.9539
   XY=             -2.1449   XZ=             -0.0166   YZ=              0.0398

 Normal termination of Gaussian 09 at Wed Aug 26 21:57:05 2020.
