 Gaussian 09, Revision D.01,
 Gaussian 09:  ES64L-G09RevD.01 24-Apr-2013

 --------------------
 #p B2PLYPD3/Def2QZVP
 --------------------

 --------
 methanol
 --------
 Symbolic Z-matrix:
 Charge =  0 Multiplicity = 1

                         Standard orientation:
 ---------------------------------------------------------------------
 Center     Atomic      Atomic             Coordinates (Angstroms)
 Number     Number       Type             X           Y           Z
 ---------------------------------------------------------------------
      1          6           0       -0.656744   -0.022469    0.031166
      2          8           0        0.742504    0.078250   -0.034976
      3          1           0       -1.094143   -0.143783    0.966619
      4          1           0       -0.977105   -0.933284   -0.728754
      5          1           0       -1.052653    1.047920   -0.385489
      6          1           0        1.124333   -0.462038    0.240439
 ---------------------------------------------------------------------

 SCF Done:  E(RB2PLYPD3) =  -115.429777080     A.U. after   11 cycles
 E2(B2PLYPD3) =    -0.1441957581D+00 E(B2PLYPD3) =    -0.11557397283855D+03

 The electronic state is 1-A.
 Alpha  occ. eigenvalues --  -19.70099 -10.68269  -1.23768  -0.81489  -0.62725
 Alpha  occ. eigenvalues --   -0.51694  -0.49462  -0.40337  -0.35828
 Alpha virt. eigenvalues --    0.05230   0.09121   0.11503   0.11942   0.14758
 Alpha virt. eigenvalues --    0.16774   0.18119   0.28816   0.31767   0.34179
 Alpha virt. eigenvalues --    0.35625   0.36682   0.40518   0.41397   0.42747

 Mulliken charges:
               1
     1  C    0.043472
     2  O   -0.247995
     3  H    0.068458
     4  H    0.038727
     5  H    0.066709
     6  H    0.030629
 Sum of Mulliken charges =   0.00000

 Dipole moment (field-independent basis, Debye):
    X=             -0.7416    Y=             -1.0667    Z=              0.7513  Tot=              1.5008
 Quadrupole moment (field-independent basis, Debye-Ang):
   XX=            -12.9761   YY=            -12.8275   ZZ=            -13.4316
   XY=             -1.7968   XZ=              0.4861   YZ=             -0.3457

 Normal termination of Gaussian 09 at Wed Aug 26 23:06:02 2020.
