 Gaussian 09, Revision D.01,
 Gaussian 09:  ES64L-G09RevD.01 24-Apr-2013

 --------------------
 #p B2PLYPD3/Def2QZVP
 --------------------

 --------
 methanol
 --------
 Symbolic Z-matrix:
 Charge =  0 Multiplicity = 1

                         Standard orientation:
 ---------------------------------------------------------------------
 Center     Atomic      Atomic             Coordinates (Angstroms)
 Number     Number       Type             X           Y           Z
 ---------------------------------------------------------------------
      1          6           0        0.642590    0.041079    0.021959
      2          8           0       -0.711950   -0.190162   -0.018266
      3          1           0        0.907230    0.411448    0.868617
      4          1           0        1.046316    0.572132   -0.823774
      5          1           0        1.169317   -0.750282   -0.062759
      6          1           0       -1.282797    1.041523    0.032289
 ---------------------------------------------------------------------

 SCF Done:  E(RB2PLYPD3) =  -115.444003477     A.U. after   12 cycles
 E2(B2PLYPD3) =    -0.1537268170D+00 E(B2PLYPD3) =    -0.11559773029361D+03

 The electronic state is 1-A.
 Alpha  occ. eigenvalues --  -19.74878 -10.61573  -1.13433  -0.79849  -0.55218
 Alpha  occ. eigenvalues --   -0.53109  -0.50903  -0.38424  -0.34980
 Alpha virt. eigenvalues --   -0.00701   0.07531   0.12640   0.13302   0.14626
 Alpha virt. eigenvalues --    0.18101   0.18792   0.22768   0.29252   0.33163
 Alpha virt. eigenvalues --    0.35557   0.39397   0.41556   0.42661   0.44471

 Mulliken charges:
               1
     1  C    0.087504
     2  O   -0.478281
     3  H    0.046583
     4  H    0.038143
     5  H    0.054539
     6  H    0.251511
 Sum of Mulliken charges =   0.00000

 Dipole moment (field-independent basis, Debye):
    X=              0.8038    Y=              1.6435    Z=              0.1488  Tot=              1.8356
 Quadrupole moment (field-independent basis, Debye-Ang):
   XX=            -12.5372   YY=            -11.9972   ZZ=            -13.7628
   XY=             -2.8328   XZ=             -0.1393   YZ=              0.1269

 Normal termination of Gaussian 09 at Wed Aug 26 22:04:45 2020.
