 Gaussian 09, Revision D.01,
 Gaussian 09:  ES64L-G09RevD.01 24-Apr-2013

 --------------------
 #p B2PLYPD3/Def2QZVP
 --------------------

 --------
 methanol
 --------
 Symbolic Z-matrix:
 Charge =  0 Multiplicity = 1

                         Standard orientation:
 ---------------------------------------------------------------------
 Center     Atomic      Atomic             Coordinates (Angstroms)
 Number     Number       Type             X           Y           Z
 ---------------------------------------------------------------------
      1          6           0       -0.665498    0.032292   -0.005175
      2          8           0        0.707188   -0.218256   -0.007076
      3          1           0       -0.979526    0.509387   -0.804104
      4          1           0       -0.852218    0.510480    0.835996
      5          1           0       -1.169999   -0.632465    0.052005
      6          1           0        1.337231    1.164899    0.003759
 ---------------------------------------------------------------------

 SCF Done:  E(RB2PLYPD3) =  -115.349977962     A.U. after   12 cycles
 E2(B2PLYPD3) =    -0.1571979756D+00 E(B2PLYPD3) =    -0.11550717593777D+03

 The electronic state is 1-A.
 Alpha  occ. eigenvalues --  -19.75203 -10.59601  -1.12144  -0.82246  -0.54897
 Alpha  occ. eigenvalues --   -0.54498  -0.50192  -0.37836  -0.34876
 Alpha virt. eigenvalues --   -0.03875   0.07558   0.12740   0.13158   0.14421
 Alpha virt. eigenvalues --    0.18248   0.18588   0.21352   0.29480   0.32979
 Alpha virt. eigenvalues --    0.34412   0.39347   0.40800   0.43844   0.46474

 Mulliken charges:
               1
     1  C    0.037635
     2  O   -0.471337
     3  H    0.041437
     4  H    0.043507
     5  H    0.120065
     6  H    0.228692
 Sum of Mulliken charges =   0.00000

 Dipole moment (field-independent basis, Debye):
    X=             -0.9881    Y=              1.6847    Z=              0.0415  Tot=              1.9536
 Quadrupole moment (field-independent basis, Debye-Ang):
   XX=            -12.4498   YY=            -11.6202   ZZ=            -13.7013
   XY=              2.9295   XZ=              0.0826   YZ=             -0.0312

 Normal termination of Gaussian 09 at Wed Aug 26 23:35:48 2020.
