 Gaussian 09, Revision D.01,
 Gaussian 09:  ES64L-G09RevD.01 24-Apr-2013

 --------------------
 #p B2PLYPD3/Def2QZVP
 --------------------

 --------
 methanol
 --------
 Symbolic Z-matrix:
 Charge =  0 Multiplicity = 1

                         Standard orientation:
 ---------------------------------------------------------------------
 Center     Atomic      Atomic             Coordinates (Angstroms)
 Number     Number       Type             X           Y           Z
 ---------------------------------------------------------------------
      1          6           0        0.656846   -0.020502    0.005953
      2          8           0       -0.746989    0.100081   -0.012083
      3          1           0        1.056973   -0.657556   -0.856626
      4          1           0        1.008716   -0.440714    0.958695
      5          1           0        1.072653    1.048920   -0.093133
      6          1           0       -1.103512   -0.628286    0.052005
 ---------------------------------------------------------------------

 SCF Done:  E(RB2PLYPD3) =  -115.522438186     A.U. after   10 cycles
 E2(B2PLYPD3) =    -0.1451222983D+00 E(B2PLYPD3) =    -0.11566756048469D+03

 The electronic state is 1-A.
 Alpha  occ. eigenvalues --  -19.71224 -10.67128  -1.20365  -0.79596  -0.60864
 Alpha  occ. eigenvalues --   -0.51754  -0.49894  -0.40949  -0.35765
 Alpha virt. eigenvalues --    0.05357   0.08803   0.12016   0.12211   0.14818
 Alpha virt. eigenvalues --    0.17095   0.17955   0.28927   0.33128   0.33587
 Alpha virt. eigenvalues --    0.37127   0.38528   0.39707   0.40460   0.42805

 Mulliken charges:
               1
     1  C    0.059418
     2  O   -0.361215
     3  H    0.045524
     4  H    0.052971
     5  H    0.069664
     6  H    0.133638
 Sum of Mulliken charges =   0.00000

 Dipole moment (field-independent basis, Debye):
    X=              0.8398    Y=             -1.3676    Z=              0.1656  Tot=              1.6134
 Quadrupole moment (field-independent basis, Debye-Ang):
   XX=            -13.1164   YY=            -12.4241   ZZ=            -13.6944
   XY=              2.0252   XZ=             -0.1624   YZ=             -0.0959

 Normal termination of Gaussian 09 at Thu Aug 27 00:06:29 2020.
