 Gaussian 09, Revision D.01,
 Gaussian 09:  ES64L-G09RevD.01 24-Apr-2013

 --------------------
 #p B2PLYPD3/Def2QZVP
 --------------------

 --------
 methanol
 --------
 Symbolic Z-matrix:
 Charge =  0 Multiplicity = 1

                         Standard orientation:
 ---------------------------------------------------------------------
 Center     Atomic      Atomic             Coordinates (Angstroms)
 Number     Number       Type             X           Y           Z
 ---------------------------------------------------------------------
      1          6           0        0.680045    0.016246   -0.007614
      2          8           0       -0.748809   -0.139415    0.006367
      3          1           0        1.044929    0.521347    0.892078
      4          1           0        1.005512    0.546067   -0.852369
      5          1           0        1.057940   -0.910718   -0.026486
      6          1           0       -1.198180    0.861146   -0.018475
 ---------------------------------------------------------------------

 SCF Done:  E(RB2PLYPD3) =  -115.530679592     A.U. after   11 cycles
 E2(B2PLYPD3) =    -0.1496104614D+00 E(B2PLYPD3) =    -0.11568029005298D+03

 The electronic state is 1-A.
 Alpha  occ. eigenvalues --  -19.73375 -10.64131  -1.13161  -0.79034  -0.56755
 Alpha  occ. eigenvalues --   -0.51637  -0.49953  -0.41016  -0.35065
 Alpha virt. eigenvalues --    0.03873   0.07838   0.12502   0.12748   0.14800
 Alpha virt. eigenvalues --    0.17219   0.18212   0.28938   0.30492   0.33296
 Alpha virt. eigenvalues --    0.33423   0.38891   0.40779   0.41242   0.43833

 Mulliken charges:
               1
     1  C    0.080712
     2  O   -0.497825
     3  H    0.045645
     4  H    0.047829
     5  H    0.073991
     6  H    0.249648
 Sum of Mulliken charges =   0.00000

 Dipole moment (field-independent basis, Debye):
    X=              0.9322    Y=              1.5706    Z=             -0.0857  Tot=              1.8284
 Quadrupole moment (field-independent basis, Debye-Ang):
   XX=            -12.8666   YY=            -11.9975   ZZ=            -13.8267
   XY=             -2.4619   XZ=              0.0242   YZ=             -0.0586

 Normal termination of Gaussian 09 at Wed Aug 26 09:56:42 2020.
