 Gaussian 09, Revision D.01,
 Gaussian 09:  ES64L-G09RevD.01 24-Apr-2013

 --------------------
 #p B2PLYPD3/Def2QZVP
 --------------------

 --------
 methanol
 --------
 Symbolic Z-matrix:
 Charge =  0 Multiplicity = 1

                         Standard orientation:
 ---------------------------------------------------------------------
 Center     Atomic      Atomic             Coordinates (Angstroms)
 Number     Number       Type             X           Y           Z
 ---------------------------------------------------------------------
      1          6           0        0.675957   -0.012756   -0.001971
      2          8           0       -0.753629    0.126031   -0.007073
      3          1           0        1.040118   -0.579314   -0.853857
      4          1           0        1.035063   -0.497434    0.884885
      5          1           0        1.029557    0.968582   -0.009328
      6          1           0       -1.131453   -0.823541    0.046706
 ---------------------------------------------------------------------

 SCF Done:  E(RB2PLYPD3) =  -115.546309944     A.U. after   10 cycles
 E2(B2PLYPD3) =    -0.1485049258D+00 E(B2PLYPD3) =    -0.11569481487001D+03

 The electronic state is 1-A.
 Alpha  occ. eigenvalues --  -19.73008 -10.64851  -1.14481  -0.78791  -0.57860
 Alpha  occ. eigenvalues --   -0.51560  -0.49459  -0.41641  -0.35264
 Alpha virt. eigenvalues --    0.04534   0.08078   0.12426   0.12497   0.14949
 Alpha virt. eigenvalues --    0.17113   0.18092   0.29113   0.32533   0.33482
 Alpha virt. eigenvalues --    0.33721   0.38915   0.40062   0.41012   0.44080

 Mulliken charges:
               1
     1  C    0.075249
     2  O   -0.480156
     3  H    0.047524
     4  H    0.046373
     5  H    0.073824
     6  H    0.237185
 Sum of Mulliken charges =   0.00000

 Dipole moment (field-independent basis, Debye):
    X=              0.9816    Y=             -1.5489    Z=              0.1076  Tot=              1.8369
 Quadrupole moment (field-independent basis, Debye-Ang):
   XX=            -13.1494   YY=            -11.9604   ZZ=            -13.8394
   XY=              2.2380   XZ=             -0.0963   YZ=             -0.0471

 Normal termination of Gaussian 09 at Wed Aug 26 15:50:47 2020.
