 Gaussian 09, Revision D.01,
 Gaussian 09:  ES64L-G09RevD.01 24-Apr-2013

 --------------------
 #p B2PLYPD3/Def2QZVP
 --------------------

 --------
 methanol
 --------
 Symbolic Z-matrix:
 Charge =  0 Multiplicity = 1

                         Standard orientation:
 ---------------------------------------------------------------------
 Center     Atomic      Atomic             Coordinates (Angstroms)
 Number     Number       Type             X           Y           Z
 ---------------------------------------------------------------------
      1          6           0        0.674703    0.001553    0.022079
      2          8           0       -0.772992   -0.088531   -0.035891
      3          1           0        1.109145    0.233716    1.031370
      4          1           0        1.000241    0.870361   -0.796659
      5          1           0        1.172369   -0.926439   -0.323570
      6          1           0       -1.146041    0.521295    0.243511
 ---------------------------------------------------------------------

 SCF Done:  E(RB2PLYPD3) =  -115.483500781     A.U. after   11 cycles
 E2(B2PLYPD3) =    -0.1453990758D+00 E(B2PLYPD3) =    -0.11562889985653D+03

 The electronic state is 1-A.
 Alpha  occ. eigenvalues --  -19.70848 -10.68594  -1.20702  -0.80117  -0.60745
 Alpha  occ. eigenvalues --   -0.50491  -0.50186  -0.40952  -0.35634
 Alpha virt. eigenvalues --    0.05310   0.08568   0.11498   0.12383   0.14179
 Alpha virt. eigenvalues --    0.17416   0.18106   0.28805   0.30786   0.33199
 Alpha virt. eigenvalues --    0.35495   0.37922   0.38927   0.40577   0.42972

 Mulliken charges:
               1
     1  C    0.056410
     2  O   -0.327055
     3  H    0.058913
     4  H    0.038028
     5  H    0.084252
     6  H    0.089452
 Sum of Mulliken charges =   0.00000

 Dipole moment (field-independent basis, Debye):
    X=              0.9746    Y=              1.0587    Z=              0.6299  Tot=              1.5708
 Quadrupole moment (field-independent basis, Debye-Ang):
   XX=            -12.7793   YY=            -12.9622   ZZ=            -13.4815
   XY=             -2.1383   XZ=             -0.6466   YZ=              0.4290

 Normal termination of Gaussian 09 at Wed Aug 26 18:58:05 2020.
