 Gaussian 09, Revision D.01,
 Gaussian 09:  ES64L-G09RevD.01 24-Apr-2013

 --------------------
 #p B2PLYPD3/Def2QZVP
 --------------------

 --------
 methanol
 --------
 Symbolic Z-matrix:
 Charge =  0 Multiplicity = 1

                         Standard orientation:
 ---------------------------------------------------------------------
 Center     Atomic      Atomic             Coordinates (Angstroms)
 Number     Number       Type             X           Y           Z
 ---------------------------------------------------------------------
      1          6           0        0.669284   -0.035490   -0.006433
      2          8           0       -0.742976    0.112665   -0.003281
      3          1           0        1.008322   -0.579632   -0.839558
      4          1           0        1.058044   -0.452982    0.895528
      5          1           0        0.981404    1.076277   -0.040311
      6          1           0       -1.119665   -0.732044    0.049184
 ---------------------------------------------------------------------

 SCF Done:  E(RB2PLYPD3) =  -115.546432924     A.U. after   11 cycles
 E2(B2PLYPD3) =    -0.1468367989D+00 E(B2PLYPD3) =    -0.11569326972327D+03

 The electronic state is 1-A.
 Alpha  occ. eigenvalues --  -19.72126 -10.65564  -1.16896  -0.78934  -0.59659
 Alpha  occ. eigenvalues --   -0.52786  -0.48437  -0.40910  -0.35770
 Alpha virt. eigenvalues --    0.05077   0.08511   0.11853   0.12507   0.15128
 Alpha virt. eigenvalues --    0.16800   0.18170   0.29082   0.33243   0.33780
 Alpha virt. eigenvalues --    0.36473   0.37503   0.40069   0.42016   0.43392

 Mulliken charges:
               1
     1  C    0.063560
     2  O   -0.441470
     3  H    0.056568
     4  H    0.053734
     5  H    0.062429
     6  H    0.205179
 Sum of Mulliken charges =   0.00000

 Dipole moment (field-independent basis, Debye):
    X=              0.8722    Y=             -1.5521    Z=              0.0901  Tot=              1.7826
 Quadrupole moment (field-independent basis, Debye-Ang):
   XX=            -13.2062   YY=            -12.1513   ZZ=            -13.7040
   XY=              1.9478   XZ=             -0.0790   YZ=             -0.0088

 Normal termination of Gaussian 09 at Wed Aug 26 12:47:19 2020.
