 Gaussian 09, Revision D.01,
 Gaussian 09:  ES64L-G09RevD.01 24-Apr-2013

 --------------------
 #p B2PLYPD3/Def2QZVP
 --------------------

 --------
 methanol
 --------
 Symbolic Z-matrix:
 Charge =  0 Multiplicity = 1

                         Standard orientation:
 ---------------------------------------------------------------------
 Center     Atomic      Atomic             Coordinates (Angstroms)
 Number     Number       Type             X           Y           Z
 ---------------------------------------------------------------------
      1          6           0       -0.660856   -0.036255   -0.010026
      2          8           0        0.734007    0.144999    0.003285
      3          1           0       -0.992894   -0.523015    0.867760
      4          1           0       -0.995761   -0.532434   -0.820954
      5          1           0       -1.092495    0.960572   -0.000112
      6          1           0        1.174226   -0.847585   -0.012818
 ---------------------------------------------------------------------

 SCF Done:  E(RB2PLYPD3) =  -115.533610597     A.U. after   11 cycles
 E2(B2PLYPD3) =    -0.1489835710D+00 E(B2PLYPD3) =    -0.11568259416825D+03

 The electronic state is 1-A.
 Alpha  occ. eigenvalues --  -19.73346 -10.63889  -1.14439  -0.78701  -0.57557
 Alpha  occ. eigenvalues --   -0.52959  -0.49387  -0.40567  -0.35221
 Alpha virt. eigenvalues --    0.03950   0.07974   0.12504   0.12688   0.14987
 Alpha virt. eigenvalues --    0.17367   0.18202   0.29017   0.30620   0.33446
 Alpha virt. eigenvalues --    0.34617   0.38779   0.39923   0.42605   0.44703

 Mulliken charges:
               1
     1  C    0.081413
     2  O   -0.483205
     3  H    0.045077
     4  H    0.047951
     5  H    0.061614
     6  H    0.247149
 Sum of Mulliken charges =   0.00000

 Dipole moment (field-independent basis, Debye):
    X=             -0.8466    Y=             -1.6486    Z=             -0.0611  Tot=              1.8543
 Quadrupole moment (field-independent basis, Debye-Ang):
   XX=            -12.9562   YY=            -12.0320   ZZ=            -13.7940
   XY=             -2.3418   XZ=              0.0158   YZ=              0.0719

 Normal termination of Gaussian 09 at Wed Aug 26 23:58:47 2020.
