 Gaussian 09, Revision D.01,
 Gaussian 09:  ES64L-G09RevD.01 24-Apr-2013

 --------------------
 #p B2PLYPD3/Def2QZVP
 --------------------

 --------
 methanol
 --------
 Symbolic Z-matrix:
 Charge =  0 Multiplicity = 1

                         Standard orientation:
 ---------------------------------------------------------------------
 Center     Atomic      Atomic             Coordinates (Angstroms)
 Number     Number       Type             X           Y           Z
 ---------------------------------------------------------------------
      1          6           0       -0.672745    0.013771   -0.011592
      2          8           0        0.739470   -0.056533   -0.017087
      3          1           0       -0.915876    1.130425   -0.436975
      4          1           0       -1.249916   -0.195137    1.079335
      5          1           0       -0.938842   -0.866176   -0.710446
      6          1           0        1.225345    0.300523    0.274338
 ---------------------------------------------------------------------

 SCF Done:  E(RB2PLYPD3) =  -115.346266873     A.U. after   11 cycles
 E2(B2PLYPD3) =    -0.1446669832D+00 E(B2PLYPD3) =    -0.11549093385627D+03

 The electronic state is 1-A.
 Alpha  occ. eigenvalues --  -19.68866 -10.70557  -1.24273  -0.83221  -0.60572
 Alpha  occ. eigenvalues --   -0.51561  -0.49461  -0.38635  -0.35364
 Alpha virt. eigenvalues --    0.05059   0.08883   0.11453   0.11722   0.14111
 Alpha virt. eigenvalues --    0.16278   0.17984   0.28842   0.30938   0.32849
 Alpha virt. eigenvalues --    0.34291   0.37004   0.38125   0.40038   0.42944

 Mulliken charges:
               1
     1  C    0.042092
     2  O   -0.207849
     3  H    0.051505
     4  H    0.044809
     5  H    0.095819
     6  H   -0.026376
 Sum of Mulliken charges =   0.00000

 Dipole moment (field-independent basis, Debye):
    X=             -0.5999    Y=              0.7545    Z=              0.5484  Tot=              1.1090
 Quadrupole moment (field-independent basis, Debye-Ang):
   XX=            -12.6395   YY=            -13.0318   ZZ=            -13.4756
   XY=              1.5280   XZ=              0.9027   YZ=              0.3473

 Normal termination of Gaussian 09 at Wed Aug 26 23:40:56 2020.
