 Gaussian 09, Revision D.01,
 Gaussian 09:  ES64L-G09RevD.01 24-Apr-2013

 --------------------
 #p B2PLYPD3/Def2QZVP
 --------------------

 --------
 methanol
 --------
 Symbolic Z-matrix:
 Charge =  0 Multiplicity = 1

                         Standard orientation:
 ---------------------------------------------------------------------
 Center     Atomic      Atomic             Coordinates (Angstroms)
 Number     Number       Type             X           Y           Z
 ---------------------------------------------------------------------
      1          6           0       -0.663960    0.021436   -0.000543
      2          8           0        0.744394   -0.134288   -0.004997
      3          1           0       -1.033012    0.567049   -0.855884
      4          1           0       -1.054741    0.476712    0.882447
      5          1           0       -1.039353   -0.950779   -0.025029
      6          1           0        1.155715    0.852703    0.041702
 ---------------------------------------------------------------------

 SCF Done:  E(RB2PLYPD3) =  -115.539609265     A.U. after   11 cycles
 E2(B2PLYPD3) =    -0.1491026577D+00 E(B2PLYPD3) =    -0.11568871192264D+03

 The electronic state is 1-A.
 Alpha  occ. eigenvalues --  -19.73474 -10.64462  -1.14413  -0.78564  -0.57502
 Alpha  occ. eigenvalues --   -0.51877  -0.49624  -0.41067  -0.35236
 Alpha virt. eigenvalues --    0.04111   0.07933   0.12526   0.12601   0.15004
 Alpha virt. eigenvalues --    0.17168   0.18354   0.28966   0.31191   0.33523
 Alpha virt. eigenvalues --    0.34274   0.38781   0.40002   0.41535   0.43926

 Mulliken charges:
               1
     1  C    0.071966
     2  O   -0.479204
     3  H    0.045987
     4  H    0.046325
     5  H    0.068676
     6  H    0.246250
 Sum of Mulliken charges =   0.00000

 Dipole moment (field-independent basis, Debye):
    X=             -0.8860    Y=              1.5720    Z=              0.0886  Tot=              1.8067
 Quadrupole moment (field-independent basis, Debye-Ang):
   XX=            -13.0342   YY=            -12.0216   ZZ=            -13.8479
   XY=              2.3177   XZ=              0.0655   YZ=              0.0456

 Normal termination of Gaussian 09 at Wed Aug 26 11:57:33 2020.
