 Gaussian 09, Revision D.01,
 Gaussian 09:  ES64L-G09RevD.01 24-Apr-2013

 --------------------
 #p B2PLYPD3/Def2QZVP
 --------------------

 --------
 methanol
 --------
 Symbolic Z-matrix:
 Charge =  0 Multiplicity = 1

                         Standard orientation:
 ---------------------------------------------------------------------
 Center     Atomic      Atomic             Coordinates (Angstroms)
 Number     Number       Type             X           Y           Z
 ---------------------------------------------------------------------
      1          6           0       -0.685766   -0.021401   -0.003765
      2          8           0        0.751970    0.088164   -0.013772
      3          1           0       -1.056551   -0.354793    1.019368
      4          1           0       -0.964952   -0.768042   -0.823833
      5          1           0       -1.069136    1.055418   -0.187756
      6          1           0        1.189472   -0.509491    0.124992
 ---------------------------------------------------------------------

 SCF Done:  E(RB2PLYPD3) =  -115.477245679     A.U. after   11 cycles
 E2(B2PLYPD3) =    -0.1447012084D+00 E(B2PLYPD3) =    -0.11562194688739D+03

 The electronic state is 1-A.
 Alpha  occ. eigenvalues --  -19.69709 -10.68288  -1.20599  -0.80741  -0.60437
 Alpha  occ. eigenvalues --   -0.51579  -0.49591  -0.39981  -0.35738
 Alpha virt. eigenvalues --    0.05392   0.08941   0.11896   0.11958   0.14344
 Alpha virt. eigenvalues --    0.16716   0.17722   0.29008   0.31637   0.33080
 Alpha virt. eigenvalues --    0.37000   0.38430   0.39296   0.40193   0.42164

 Mulliken charges:
               1
     1  C    0.062942
     2  O   -0.322882
     3  H    0.054679
     4  H    0.057398
     5  H    0.082552
     6  H    0.065311
 Sum of Mulliken charges =   0.00000

 Dipole moment (field-independent basis, Debye):
    X=             -0.8753    Y=             -1.2125    Z=              0.2879  Tot=              1.5229
 Quadrupole moment (field-independent basis, Debye-Ang):
   XX=            -12.7832   YY=            -12.5967   ZZ=            -13.5603
   XY=             -2.0168   XZ=              0.3438   YZ=             -0.1152

 Normal termination of Gaussian 09 at Wed Aug 26 12:26:07 2020.
