 Gaussian 09, Revision D.01,
 Gaussian 09:  ES64L-G09RevD.01 24-Apr-2013

 --------------------
 #p B2PLYPD3/Def2QZVP
 --------------------

 --------
 methanol
 --------
 Symbolic Z-matrix:
 Charge =  0 Multiplicity = 1

                         Standard orientation:
 ---------------------------------------------------------------------
 Center     Atomic      Atomic             Coordinates (Angstroms)
 Number     Number       Type             X           Y           Z
 ---------------------------------------------------------------------
      1          6           0        0.680838    0.023500   -0.000896
      2          8           0       -0.757215   -0.136535   -0.001017
      3          1           0        1.077278    0.450988    0.857297
      4          1           0        1.021334    0.585924   -0.811657
      5          1           0        1.010315   -0.980481   -0.062230
      6          1           0       -1.136238    0.894845    0.030104
 ---------------------------------------------------------------------

 SCF Done:  E(RB2PLYPD3) =  -115.530785963     A.U. after   11 cycles
 E2(B2PLYPD3) =    -0.1501083341D+00 E(B2PLYPD3) =    -0.11568089429693D+03

 The electronic state is 1-A.
 Alpha  occ. eigenvalues --  -19.73656 -10.64130  -1.13115  -0.78963  -0.57141
 Alpha  occ. eigenvalues --   -0.52091  -0.48331  -0.41587  -0.35438
 Alpha virt. eigenvalues --    0.03836   0.07866   0.12287   0.12695   0.15037
 Alpha virt. eigenvalues --    0.17016   0.18236   0.28628   0.30495   0.33108
 Alpha virt. eigenvalues --    0.33850   0.38759   0.39538   0.42084   0.44500

 Mulliken charges:
               1
     1  C    0.079602
     2  O   -0.490628
     3  H    0.050343
     4  H    0.048012
     5  H    0.068588
     6  H    0.244082
 Sum of Mulliken charges =   0.00000

 Dipole moment (field-independent basis, Debye):
    X=              1.0536    Y=              1.6420    Z=              0.0524  Tot=              1.9516
 Quadrupole moment (field-independent basis, Debye-Ang):
   XX=            -13.1809   YY=            -11.7880   ZZ=            -13.8855
   XY=             -2.1753   XZ=             -0.0096   YZ=              0.0304

 Normal termination of Gaussian 09 at Wed Aug 26 11:29:00 2020.
