 Gaussian 09, Revision D.01,
 Gaussian 09:  ES64L-G09RevD.01 24-Apr-2013

 --------------------
 #p B2PLYPD3/Def2QZVP
 --------------------

 --------
 methanol
 --------
 Symbolic Z-matrix:
 Charge =  0 Multiplicity = 1

                         Standard orientation:
 ---------------------------------------------------------------------
 Center     Atomic      Atomic             Coordinates (Angstroms)
 Number     Number       Type             X           Y           Z
 ---------------------------------------------------------------------
      1          6           0        0.650006    0.031500    0.016908
      2          8           0       -0.754108   -0.075288   -0.066765
      3          1           0        0.901049   -0.064375    1.108892
      4          1           0        1.135704    0.958671   -0.538184
      5          1           0        1.196422   -0.930468   -0.439121
      6          1           0       -1.100349    0.449479    0.301083
 ---------------------------------------------------------------------

 SCF Done:  E(RB2PLYPD3) =  -115.448852883     A.U. after   11 cycles
 E2(B2PLYPD3) =    -0.1446239741D+00 E(B2PLYPD3) =    -0.11559347685716D+03

 The electronic state is 1-A.
 Alpha  occ. eigenvalues --  -19.70518 -10.68569  -1.23568  -0.80454  -0.61475
 Alpha  occ. eigenvalues --   -0.52172  -0.50053  -0.39677  -0.36322
 Alpha virt. eigenvalues --    0.05331   0.08825   0.11686   0.12166   0.13988
 Alpha virt. eigenvalues --    0.17416   0.18371   0.28392   0.32566   0.33353
 Alpha virt. eigenvalues --    0.34944   0.37295   0.39563   0.40324   0.43961

 Mulliken charges:
               1
     1  C    0.047553
     2  O   -0.268765
     3  H    0.054473
     4  H    0.053912
     5  H    0.063111
     6  H    0.049716
 Sum of Mulliken charges =   0.00000

 Dipole moment (field-independent basis, Debye):
    X=              0.8602    Y=              1.0021    Z=              0.7896  Tot=              1.5387
 Quadrupole moment (field-independent basis, Debye-Ang):
   XX=            -12.9595   YY=            -13.0221   ZZ=            -13.3907
   XY=             -1.6494   XZ=             -1.2621   YZ=              0.2129

 Normal termination of Gaussian 09 at Wed Aug 26 22:22:44 2020.
