 Gaussian 09, Revision D.01,
 Gaussian 09:  ES64L-G09RevD.01 24-Apr-2013

 --------------------
 #p B2PLYPD3/Def2QZVP
 --------------------

 --------
 methanol
 --------
 Symbolic Z-matrix:
 Charge =  0 Multiplicity = 1

                         Standard orientation:
 ---------------------------------------------------------------------
 Center     Atomic      Atomic             Coordinates (Angstroms)
 Number     Number       Type             X           Y           Z
 ---------------------------------------------------------------------
      1          6           0       -0.649451   -0.016384   -0.023718
      2          8           0        0.725451    0.068684   -0.007804
      3          1           0       -0.916340   -0.663262    0.981190
      4          1           0       -1.000274   -0.560577   -0.939008
      5          1           0       -1.059488    1.154279    0.122660
      6          1           0        1.069205   -0.381609    0.039903
 ---------------------------------------------------------------------

 SCF Done:  E(RB2PLYPD3) =  -115.097525492     A.U. after   11 cycles
 E2(B2PLYPD3) =    -0.1428764332D+00 E(B2PLYPD3) =    -0.11524040192497D+03

 The electronic state is 1-A.
 Alpha  occ. eigenvalues --  -19.68291 -10.69738  -1.30874  -0.84941  -0.62581
 Alpha  occ. eigenvalues --   -0.52528  -0.50583  -0.39564  -0.35863
 Alpha virt. eigenvalues --    0.04966   0.09898   0.11147   0.11695   0.14347
 Alpha virt. eigenvalues --    0.16502   0.17296   0.28371   0.31899   0.33098
 Alpha virt. eigenvalues --    0.34628   0.37353   0.39801   0.41212   0.42971

 Mulliken charges:
               1
     1  C    0.052806
     2  O   -0.100109
     3  H    0.028767
     4  H    0.062221
     5  H    0.076034
     6  H   -0.119718
 Sum of Mulliken charges =   0.00000

 Dipole moment (field-independent basis, Debye):
    X=             -0.7229    Y=             -1.0618    Z=              0.0109  Tot=              1.2846
 Quadrupole moment (field-independent basis, Debye-Ang):
   XX=            -13.2720   YY=            -12.5391   ZZ=            -13.4415
   XY=             -1.7300   XZ=              0.3403   YZ=              0.1537

 Normal termination of Gaussian 09 at Wed Aug 26 20:32:11 2020.
