 Gaussian 09, Revision D.01,
 Gaussian 09:  ES64L-G09RevD.01 24-Apr-2013

 --------------------
 #p B2PLYPD3/Def2QZVP
 --------------------

 --------
 methanol
 --------
 Symbolic Z-matrix:
 Charge =  0 Multiplicity = 1

                         Standard orientation:
 ---------------------------------------------------------------------
 Center     Atomic      Atomic             Coordinates (Angstroms)
 Number     Number       Type             X           Y           Z
 ---------------------------------------------------------------------
      1          6           0       -0.668651   -0.007050    0.024387
      2          8           0        0.748303    0.094254   -0.028738
      3          1           0       -0.985808   -0.318027    0.999306
      4          1           0       -1.068534   -0.778280   -0.822087
      5          1           0       -1.048673    0.997466   -0.221501
      6          1           0        1.128493   -0.612893    0.127863
 ---------------------------------------------------------------------

 SCF Done:  E(RB2PLYPD3) =  -115.520510506     A.U. after   11 cycles
 E2(B2PLYPD3) =    -0.1452817313D+00 E(B2PLYPD3) =    -0.11566579223729D+03

 The electronic state is 1-A.
 Alpha  occ. eigenvalues --  -19.71031 -10.67167  -1.19609  -0.79912  -0.60375
 Alpha  occ. eigenvalues --   -0.51508  -0.50200  -0.41002  -0.35489
 Alpha virt. eigenvalues --    0.05350   0.08754   0.11880   0.12285   0.14638
 Alpha virt. eigenvalues --    0.16983   0.17925   0.28931   0.32628   0.33044
 Alpha virt. eigenvalues --    0.36427   0.39348   0.39534   0.40762   0.43086

 Mulliken charges:
               1
     1  C    0.062864
     2  O   -0.374588
     3  H    0.059471
     4  H    0.034363
     5  H    0.079850
     6  H    0.138040
 Sum of Mulliken charges =   0.00000

 Dipole moment (field-independent basis, Debye):
    X=             -0.8465    Y=             -1.2422    Z=              0.4191  Tot=              1.5605
 Quadrupole moment (field-independent basis, Debye-Ang):
   XX=            -13.0838   YY=            -12.5176   ZZ=            -13.5763
   XY=             -2.1192   XZ=              0.3579   YZ=             -0.3167

 Normal termination of Gaussian 09 at Wed Aug 26 11:55:29 2020.
