 Gaussian 09, Revision D.01,
 Gaussian 09:  ES64L-G09RevD.01 24-Apr-2013

 --------------------
 #p B2PLYPD3/Def2QZVP
 --------------------

 --------
 methanol
 --------
 Symbolic Z-matrix:
 Charge =  0 Multiplicity = 1

                         Standard orientation:
 ---------------------------------------------------------------------
 Center     Atomic      Atomic             Coordinates (Angstroms)
 Number     Number       Type             X           Y           Z
 ---------------------------------------------------------------------
      1          6           0        0.669851   -0.011812    0.003959
      2          8           0       -0.758644    0.107946   -0.003780
      3          1           0        1.064897   -0.592391   -0.884553
      4          1           0        1.056550   -0.514018    0.912744
      5          1           0        1.070006    1.010492   -0.038900
      6          1           0       -1.141404   -0.696780    0.017195
 ---------------------------------------------------------------------

 SCF Done:  E(RB2PLYPD3) =  -115.547209144     A.U. after   10 cycles
 E2(B2PLYPD3) =    -0.1465058613D+00 E(B2PLYPD3) =    -0.11569371500566D+03

 The electronic state is 1-A.
 Alpha  occ. eigenvalues --  -19.72041 -10.66633  -1.17308  -0.79025  -0.59498
 Alpha  occ. eigenvalues --   -0.50928  -0.49885  -0.41354  -0.35534
 Alpha virt. eigenvalues --    0.05237   0.08341   0.12245   0.12294   0.14877
 Alpha virt. eigenvalues --    0.17148   0.18032   0.29070   0.32867   0.33312
 Alpha virt. eigenvalues --    0.36806   0.38693   0.39486   0.39963   0.42939

 Mulliken charges:
               1
     1  C    0.066518
     2  O   -0.432045
     3  H    0.045471
     4  H    0.050397
     5  H    0.075866
     6  H    0.193794
 Sum of Mulliken charges =   0.00000

 Dipole moment (field-independent basis, Debye):
    X=              0.9051    Y=             -1.4210    Z=              0.0593  Tot=              1.6858
 Quadrupole moment (field-independent basis, Debye-Ang):
   XX=            -12.9585   YY=            -12.3038   ZZ=            -13.8374
   XY=              2.1731   XZ=             -0.0356   YZ=             -0.0513

 Normal termination of Gaussian 09 at Wed Aug 26 16:05:14 2020.
