 Gaussian 09, Revision D.01,
 Gaussian 09:  ES64L-G09RevD.01 24-Apr-2013

 --------------------
 #p B2PLYPD3/Def2QZVP
 --------------------

 --------
 methanol
 --------
 Symbolic Z-matrix:
 Charge =  0 Multiplicity = 1

                         Standard orientation:
 ---------------------------------------------------------------------
 Center     Atomic      Atomic             Coordinates (Angstroms)
 Number     Number       Type             X           Y           Z
 ---------------------------------------------------------------------
      1          6           0       -0.682650    0.024838    0.008146
      2          8           0        0.760673   -0.176660   -0.018709
      3          1           0       -1.221471    0.581382   -0.738753
      4          1           0       -0.962198    0.502944    0.789935
      5          1           0       -1.116255   -0.879825    0.024764
      6          1           0        1.310443    1.059752    0.024852
 ---------------------------------------------------------------------

 SCF Done:  E(RB2PLYPD3) =  -115.451716916     A.U. after   11 cycles
 E2(B2PLYPD3) =    -0.1554499258D+00 E(B2PLYPD3) =    -0.11560716684216D+03

 The electronic state is 1-A.
 Alpha  occ. eigenvalues --  -19.75456 -10.62938  -1.10650  -0.80186  -0.55006
 Alpha  occ. eigenvalues --   -0.50903  -0.48524  -0.40244  -0.35182
 Alpha virt. eigenvalues --   -0.00395   0.07147   0.12395   0.13205   0.14725
 Alpha virt. eigenvalues --    0.17484   0.18499   0.22908   0.29239   0.32292
 Alpha virt. eigenvalues --    0.34258   0.38717   0.38920   0.41385   0.44156

 Mulliken charges:
               1
     1  C    0.091508
     2  O   -0.495116
     3  H    0.039894
     4  H    0.051925
     5  H    0.064682
     6  H    0.247106
 Sum of Mulliken charges =   0.00000

 Dipole moment (field-independent basis, Debye):
    X=             -0.9955    Y=              1.7390    Z=              0.1841  Tot=              2.0122
 Quadrupole moment (field-independent basis, Debye-Ang):
   XX=            -12.4121   YY=            -11.6177   ZZ=            -14.2842
   XY=              2.5821   XZ=              0.0955   YZ=              0.1104

 Normal termination of Gaussian 09 at Wed Aug 26 23:40:06 2020.
