 Gaussian 09, Revision D.01,
 Gaussian 09:  ES64L-G09RevD.01 24-Apr-2013

 --------------------
 #p B2PLYPD3/Def2QZVP
 --------------------

 --------
 methanol
 --------
 Symbolic Z-matrix:
 Charge =  0 Multiplicity = 1

                         Standard orientation:
 ---------------------------------------------------------------------
 Center     Atomic      Atomic             Coordinates (Angstroms)
 Number     Number       Type             X           Y           Z
 ---------------------------------------------------------------------
      1          6           0        0.659334   -0.020911    0.016886
      2          8           0       -0.736472    0.089741   -0.029443
      3          1           0        1.028455   -0.837457   -0.747871
      4          1           0        0.962188   -0.244087    1.007091
      5          1           0        1.053497    1.040620   -0.267671
      6          1           0       -1.108365   -0.551543    0.142677
 ---------------------------------------------------------------------

 SCF Done:  E(RB2PLYPD3) =  -115.485363978     A.U. after   11 cycles
 E2(B2PLYPD3) =    -0.1442077911D+00 E(B2PLYPD3) =    -0.11562957176940D+03

 The electronic state is 1-A.
 Alpha  occ. eigenvalues --  -19.70248 -10.67250  -1.22069  -0.80735  -0.61445
 Alpha  occ. eigenvalues --   -0.52294  -0.50015  -0.40520  -0.35796
 Alpha virt. eigenvalues --    0.05387   0.09150   0.11819   0.12180   0.14714
 Alpha virt. eigenvalues --    0.16844   0.17814   0.28881   0.32808   0.33661
 Alpha virt. eigenvalues --    0.36892   0.37889   0.40369   0.41276   0.43377

 Mulliken charges:
               1
     1  C    0.058586
     2  O   -0.306510
     3  H    0.041125
     4  H    0.058785
     5  H    0.071303
     6  H    0.076711
 Sum of Mulliken charges =   0.00000

 Dipole moment (field-independent basis, Debye):
    X=              0.7921    Y=             -1.2425    Z=              0.4498  Tot=              1.5406
 Quadrupole moment (field-independent basis, Debye-Ang):
   XX=            -13.1394   YY=            -12.5111   ZZ=            -13.5055
   XY=              1.9329   XZ=             -0.4253   YZ=             -0.2308

 Normal termination of Gaussian 09 at Wed Aug 26 13:33:26 2020.
