 Gaussian 09, Revision D.01,
 Gaussian 09:  ES64L-G09RevD.01 24-Apr-2013

 --------------------
 #p B2PLYPD3/Def2QZVP
 --------------------

 --------
 methanol
 --------
 Symbolic Z-matrix:
 Charge =  0 Multiplicity = 1

                         Standard orientation:
 ---------------------------------------------------------------------
 Center     Atomic      Atomic             Coordinates (Angstroms)
 Number     Number       Type             X           Y           Z
 ---------------------------------------------------------------------
      1          6           0        0.678347    0.003319    0.026357
      2          8           0       -0.765114   -0.119588   -0.051624
      3          1           0        0.991718    0.178812    0.946065
      4          1           0        1.193542    0.828331   -0.726885
      5          1           0        1.039815   -0.900645   -0.204170
      6          1           0       -1.174242    0.830299    0.239836
 ---------------------------------------------------------------------

 SCF Done:  E(RB2PLYPD3) =  -115.516541951     A.U. after   11 cycles
 E2(B2PLYPD3) =    -0.1500558086D+00 E(B2PLYPD3) =    -0.11566659775966D+03

 The electronic state is 1-A.
 Alpha  occ. eigenvalues --  -19.73802 -10.65000  -1.13408  -0.79436  -0.57053
 Alpha  occ. eigenvalues --   -0.50496  -0.49761  -0.41341  -0.35331
 Alpha virt. eigenvalues --    0.04085   0.07494   0.12027   0.12774   0.14858
 Alpha virt. eigenvalues --    0.17063   0.18607   0.28478   0.30923   0.32767
 Alpha virt. eigenvalues --    0.32889   0.36677   0.40162   0.40803   0.44538

 Mulliken charges:
               1
     1  C    0.073761
     2  O   -0.486485
     3  H    0.058105
     4  H    0.031124
     5  H    0.074028
     6  H    0.249467
 Sum of Mulliken charges =   0.00000

 Dipole moment (field-independent basis, Debye):
    X=              0.9393    Y=              1.3639    Z=              0.6686  Tot=              1.7860
 Quadrupole moment (field-independent basis, Debye-Ang):
   XX=            -12.9621   YY=            -12.2072   ZZ=            -13.7768
   XY=             -2.3741   XZ=             -0.5484   YZ=              0.4351

 Normal termination of Gaussian 09 at Wed Aug 26 20:41:14 2020.
