 Gaussian 09, Revision D.01,
 Gaussian 09:  ES64L-G09RevD.01 24-Apr-2013

 --------------------
 #p B2PLYPD3/Def2QZVP
 --------------------

 --------
 methanol
 --------
 Symbolic Z-matrix:
 Charge =  0 Multiplicity = 1

                         Standard orientation:
 ---------------------------------------------------------------------
 Center     Atomic      Atomic             Coordinates (Angstroms)
 Number     Number       Type             X           Y           Z
 ---------------------------------------------------------------------
      1          6           0       -0.655012   -0.015407    0.003034
      2          8           0        0.747960    0.097342   -0.007355
      3          1           0       -1.035006   -0.510221    0.928737
      4          1           0       -1.007108   -0.624596   -0.899348
      5          1           0       -1.095549    1.048976   -0.045535
      6          1           0        1.084059   -0.600455    0.056782
 ---------------------------------------------------------------------

 SCF Done:  E(RB2PLYPD3) =  -115.501690767     A.U. after   10 cycles
 E2(B2PLYPD3) =    -0.1446038271D+00 E(B2PLYPD3) =    -0.11564629459456D+03

 The electronic state is 1-A.
 Alpha  occ. eigenvalues --  -19.70832 -10.67411  -1.21696  -0.79996  -0.61305
 Alpha  occ. eigenvalues --   -0.51663  -0.50193  -0.41163  -0.35744
 Alpha virt. eigenvalues --    0.05373   0.08967   0.12040   0.12105   0.14773
 Alpha virt. eigenvalues --    0.17196   0.17756   0.28872   0.32892   0.33616
 Alpha virt. eigenvalues --    0.37136   0.38553   0.39851   0.40138   0.42811

 Mulliken charges:
               1
     1  C    0.059833
     2  O   -0.323626
     3  H    0.048439
     4  H    0.045225
     5  H    0.072782
     6  H    0.097347
 Sum of Mulliken charges =   0.00000

 Dipole moment (field-independent basis, Debye):
    X=             -0.8715    Y=             -1.3290    Z=              0.1542  Tot=              1.5967
 Quadrupole moment (field-independent basis, Debye-Ang):
   XX=            -13.1615   YY=            -12.4157   ZZ=            -13.6941
   XY=             -2.0167   XZ=              0.1036   YZ=             -0.0938

 Normal termination of Gaussian 09 at Thu Aug 27 00:05:03 2020.
