 Gaussian 09, Revision D.01,
 Gaussian 09:  ES64L-G09RevD.01 24-Apr-2013

 --------------------
 #p B2PLYPD3/Def2QZVP
 --------------------

 --------
 methanol
 --------
 Symbolic Z-matrix:
 Charge =  0 Multiplicity = 1

                         Standard orientation:
 ---------------------------------------------------------------------
 Center     Atomic      Atomic             Coordinates (Angstroms)
 Number     Number       Type             X           Y           Z
 ---------------------------------------------------------------------
      1          6           0        0.667273    0.023287    0.004034
      2          8           0       -0.745265   -0.164427   -0.006568
      3          1           0        1.135432    0.410644    0.816742
      4          1           0        0.977866    0.656779   -0.786046
      5          1           0        1.086698   -0.879493   -0.093180
      6          1           0       -1.241517    0.987761    0.090826
 ---------------------------------------------------------------------

 SCF Done:  E(RB2PLYPD3) =  -115.487640257     A.U. after   11 cycles
 E2(B2PLYPD3) =    -0.1527752589D+00 E(B2PLYPD3) =    -0.11564041551594D+03

 The electronic state is 1-A.
 Alpha  occ. eigenvalues --  -19.74770 -10.63103  -1.12224  -0.79382  -0.55682
 Alpha  occ. eigenvalues --   -0.51846  -0.49180  -0.40483  -0.35010
 Alpha virt. eigenvalues --    0.01372   0.07477   0.12650   0.12924   0.14968
 Alpha virt. eigenvalues --    0.17377   0.18519   0.24864   0.29525   0.33003
 Alpha virt. eigenvalues --    0.34582   0.38701   0.39482   0.42217   0.44249

 Mulliken charges:
               1
     1  C    0.089518
     2  O   -0.490414
     3  H    0.043488
     4  H    0.038940
     5  H    0.065504
     6  H    0.252964
 Sum of Mulliken charges =   0.00000

 Dipole moment (field-independent basis, Debye):
    X=              0.9195    Y=              1.6780    Z=              0.1744  Tot=              1.9213
 Quadrupole moment (field-independent basis, Debye-Ang):
   XX=            -12.6812   YY=            -11.7576   ZZ=            -14.0920
   XY=             -2.5409   XZ=             -0.0356   YZ=              0.1188

 Normal termination of Gaussian 09 at Wed Aug 26 11:39:04 2020.
