 Gaussian 09, Revision D.01,
 Gaussian 09:  ES64L-G09RevD.01 24-Apr-2013

 --------------------
 #p B2PLYPD3/Def2QZVP
 --------------------

 --------
 methanol
 --------
 Symbolic Z-matrix:
 Charge =  0 Multiplicity = 1

                         Standard orientation:
 ---------------------------------------------------------------------
 Center     Atomic      Atomic             Coordinates (Angstroms)
 Number     Number       Type             X           Y           Z
 ---------------------------------------------------------------------
      1          6           0       -0.666215    0.011778    0.008669
      2          8           0        0.745421   -0.129437   -0.011634
      3          1           0       -1.030487    0.608164   -0.858043
      4          1           0       -0.991411    0.450745    0.909004
      5          1           0       -1.049723   -0.926361   -0.061230
      6          1           0        1.105542    0.832277    0.051331
 ---------------------------------------------------------------------

 SCF Done:  E(RB2PLYPD3) =  -115.542907443     A.U. after   10 cycles
 E2(B2PLYPD3) =    -0.1482786468D+00 E(B2PLYPD3) =    -0.11569118608970D+03

 The electronic state is 1-A.
 Alpha  occ. eigenvalues --  -19.73024 -10.64444  -1.15029  -0.78891  -0.57827
 Alpha  occ. eigenvalues --   -0.51992  -0.50205  -0.41449  -0.35162
 Alpha virt. eigenvalues --    0.04453   0.08177   0.12347   0.12699   0.14810
 Alpha virt. eigenvalues --    0.17360   0.18130   0.29108   0.32286   0.33278
 Alpha virt. eigenvalues --    0.34105   0.38786   0.40971   0.41287   0.44127

 Mulliken charges:
               1
     1  C    0.075747
     2  O   -0.474785
     3  H    0.039912
     4  H    0.047508
     5  H    0.071952
     6  H    0.239666
 Sum of Mulliken charges =   0.00000

 Dipole moment (field-independent basis, Debye):
    X=             -0.9597    Y=              1.5220    Z=              0.1540  Tot=              1.8059
 Quadrupole moment (field-independent basis, Debye-Ang):
   XX=            -13.2480   YY=            -12.0003   ZZ=            -13.7410
   XY=              2.3099   XZ=              0.1114   YZ=              0.1200

 Normal termination of Gaussian 09 at Thu Aug 27 00:11:24 2020.
