 Gaussian 09, Revision D.01,
 Gaussian 09:  ES64L-G09RevD.01 24-Apr-2013

 --------------------
 #p B2PLYPD3/Def2QZVP
 --------------------

 --------
 methanol
 --------
 Symbolic Z-matrix:
 Charge =  0 Multiplicity = 1

                         Standard orientation:
 ---------------------------------------------------------------------
 Center     Atomic      Atomic             Coordinates (Angstroms)
 Number     Number       Type             X           Y           Z
 ---------------------------------------------------------------------
      1          6           0       -0.683441   -0.008300   -0.018051
      2          8           0        0.769287   -0.040536   -0.022586
      3          1           0       -1.054724    1.125350   -0.409923
      4          1           0       -1.161499   -0.218545    1.099414
      5          1           0       -0.896968   -0.875521   -0.681793
      6          1           0        1.059535    0.342808    0.281295
 ---------------------------------------------------------------------

 SCF Done:  E(RB2PLYPD3) =  -115.097419288     A.U. after   11 cycles
 E2(B2PLYPD3) =    -0.1438798904D+00 E(B2PLYPD3) =    -0.11524129917830D+03

 The electronic state is 1-A.
 Alpha  occ. eigenvalues --  -19.68456 -10.70375  -1.29715  -0.83084  -0.61288
 Alpha  occ. eigenvalues --   -0.51016  -0.49513  -0.41643  -0.36152
 Alpha virt. eigenvalues --    0.04992   0.09208   0.10959   0.11850   0.14202
 Alpha virt. eigenvalues --    0.16315   0.17706   0.28238   0.30500   0.32259
 Alpha virt. eigenvalues --    0.33592   0.36308   0.39498   0.41436   0.41691

 Mulliken charges:
               1
     1  C    0.042175
     2  O   -0.126817
     3  H    0.049290
     4  H    0.049053
     5  H    0.104636
     6  H   -0.118336
 Sum of Mulliken charges =   0.00000

 Dipole moment (field-independent basis, Debye):
    X=             -1.0711    Y=              0.7669    Z=              0.6207  Tot=              1.4562
 Quadrupole moment (field-independent basis, Debye-Ang):
   XX=            -13.3447   YY=            -12.6509   ZZ=            -13.2032
   XY=              1.3720   XZ=              0.9284   YZ=              0.5207

 Normal termination of Gaussian 09 at Wed Aug 26 22:03:01 2020.
