 Gaussian 09, Revision D.01,
 Gaussian 09:  ES64L-G09RevD.01 24-Apr-2013

 --------------------
 #p B2PLYPD3/Def2QZVP
 --------------------

 --------
 methanol
 --------
 Symbolic Z-matrix:
 Charge =  0 Multiplicity = 1

                         Standard orientation:
 ---------------------------------------------------------------------
 Center     Atomic      Atomic             Coordinates (Angstroms)
 Number     Number       Type             X           Y           Z
 ---------------------------------------------------------------------
      1          6           0        0.671760    0.021888    0.003743
      2          8           0       -0.748761   -0.138465   -0.001225
      3          1           0        1.062894    0.489508    0.860374
      4          1           0        0.994697    0.613635   -0.832196
      5          1           0        1.109396   -0.950148   -0.068385
      6          1           0       -1.207459    0.823402    0.027546
 ---------------------------------------------------------------------

 SCF Done:  E(RB2PLYPD3) =  -115.540429068     A.U. after   11 cycles
 E2(B2PLYPD3) =    -0.1490269699D+00 E(B2PLYPD3) =    -0.11568945603770D+03

 The electronic state is 1-A.
 Alpha  occ. eigenvalues --  -19.73306 -10.64682  -1.13842  -0.78714  -0.57352
 Alpha  occ. eigenvalues --   -0.51613  -0.49641  -0.40868  -0.35146
 Alpha virt. eigenvalues --    0.04171   0.07808   0.12513   0.12678   0.14939
 Alpha virt. eigenvalues --    0.17386   0.18121   0.29187   0.31253   0.33230
 Alpha virt. eigenvalues --    0.33791   0.39295   0.39499   0.41543   0.44091

 Mulliken charges:
               1
     1  C    0.080121
     2  O   -0.490109
     3  H    0.048600
     4  H    0.043665
     5  H    0.069917
     6  H    0.247805
 Sum of Mulliken charges =   0.00000

 Dipole moment (field-independent basis, Debye):
    X=              0.8685    Y=              1.6011    Z=              0.0605  Tot=              1.8225
 Quadrupole moment (field-independent basis, Debye-Ang):
   XX=            -12.7314   YY=            -12.0861   ZZ=            -13.9358
   XY=             -2.4171   XZ=              0.0005   YZ=              0.0564

 Normal termination of Gaussian 09 at Thu Aug 27 00:01:11 2020.
