 Gaussian 09, Revision D.01,
 Gaussian 09:  ES64L-G09RevD.01 24-Apr-2013

 --------------------
 #p B2PLYPD3/Def2QZVP
 --------------------

 --------
 methanol
 --------
 Symbolic Z-matrix:
 Charge =  0 Multiplicity = 1

                         Standard orientation:
 ---------------------------------------------------------------------
 Center     Atomic      Atomic             Coordinates (Angstroms)
 Number     Number       Type             X           Y           Z
 ---------------------------------------------------------------------
      1          6           0       -0.671067   -0.013100    0.003875
      2          8           0        0.729131   -0.155606   -0.013644
      3          1           0       -1.098656    0.564306   -0.822016
      4          1           0       -0.994799    0.506046    0.837922
      5          1           0       -0.885798   -0.816907    0.027420
      6          1           0        1.172608    1.069999    0.042580
 ---------------------------------------------------------------------

 SCF Done:  E(RB2PLYPD3) =  -115.416426668     A.U. after   11 cycles
 E2(B2PLYPD3) =    -0.1536155421D+00 E(B2PLYPD3) =    -0.11557004220992D+03

 The electronic state is 1-A.
 Alpha  occ. eigenvalues --  -19.74656 -10.61699  -1.12951  -0.80299  -0.58446
 Alpha  occ. eigenvalues --   -0.51184  -0.49342  -0.41055  -0.34502
 Alpha virt. eigenvalues --    0.00539   0.07694   0.12701   0.12953   0.14965
 Alpha virt. eigenvalues --    0.16949   0.18225   0.24186   0.29479   0.33163
 Alpha virt. eigenvalues --    0.34864   0.37164   0.40568   0.41809   0.44251

 Mulliken charges:
               1
     1  C   -0.009267
     2  O   -0.484613
     3  H    0.044699
     4  H    0.043014
     5  H    0.162648
     6  H    0.243519
 Sum of Mulliken charges =   0.00000

 Dipole moment (field-independent basis, Debye):
    X=             -0.9863    Y=              1.6317    Z=              0.1527  Tot=              1.9128
 Quadrupole moment (field-independent basis, Debye-Ang):
   XX=            -13.2446   YY=            -11.2789   ZZ=            -13.9807
   XY=              2.3344   XZ=              0.0832   YZ=              0.0665

 Normal termination of Gaussian 09 at Wed Aug 26 23:52:38 2020.
