 Gaussian 09, Revision D.01,
 Gaussian 09:  ES64L-G09RevD.01 24-Apr-2013

 --------------------
 #p B2PLYPD3/Def2QZVP
 --------------------

 --------
 methanol
 --------
 Symbolic Z-matrix:
 Charge =  0 Multiplicity = 1

                         Standard orientation:
 ---------------------------------------------------------------------
 Center     Atomic      Atomic             Coordinates (Angstroms)
 Number     Number       Type             X           Y           Z
 ---------------------------------------------------------------------
      1          6           0        0.658799   -0.046308    0.015747
      2          8           0       -0.727722    0.147112   -0.013428
      3          1           0        0.967718   -0.626726   -0.821785
      4          1           0        1.006639   -0.416866    0.833481
      5          1           0        1.084825    0.983577   -0.080303
      6          1           0       -1.190201   -0.839033    0.081548
 ---------------------------------------------------------------------

 SCF Done:  E(RB2PLYPD3) =  -115.523637241     A.U. after   11 cycles
 E2(B2PLYPD3) =    -0.1490665497D+00 E(B2PLYPD3) =    -0.11567270379034D+03

 The electronic state is 1-A.
 Alpha  occ. eigenvalues --  -19.73370 -10.63739  -1.14559  -0.78864  -0.57781
 Alpha  occ. eigenvalues --   -0.53511  -0.48986  -0.40159  -0.35317
 Alpha virt. eigenvalues --    0.03869   0.07956   0.12364   0.12709   0.15082
 Alpha virt. eigenvalues --    0.17249   0.18297   0.28922   0.30444   0.33418
 Alpha virt. eigenvalues --    0.34986   0.37748   0.39758   0.42821   0.45566

 Mulliken charges:
               1
     1  C    0.079569
     2  O   -0.479949
     3  H    0.045495
     4  H    0.051834
     5  H    0.056475
     6  H    0.246577
 Sum of Mulliken charges =   0.00000

 Dipole moment (field-independent basis, Debye):
    X=              0.7923    Y=             -1.6668    Z=              0.2351  Tot=              1.8605
 Quadrupole moment (field-independent basis, Debye-Ang):
   XX=            -12.9208   YY=            -12.0783   ZZ=            -13.7579
   XY=              2.3001   XZ=             -0.0699   YZ=             -0.1467

 Normal termination of Gaussian 09 at Wed Aug 26 16:27:07 2020.
