 Gaussian 09, Revision D.01,
 Gaussian 09:  ES64L-G09RevD.01 24-Apr-2013

 --------------------
 #p B2PLYPD3/Def2QZVP
 --------------------

 --------
 methanol
 --------
 Symbolic Z-matrix:
 Charge =  0 Multiplicity = 1

                         Standard orientation:
 ---------------------------------------------------------------------
 Center     Atomic      Atomic             Coordinates (Angstroms)
 Number     Number       Type             X           Y           Z
 ---------------------------------------------------------------------
      1          6           0        0.670901   -0.006236    0.001177
      2          8           0       -0.750500    0.067883   -0.012799
      3          1           0        1.082610   -0.733164   -0.836226
      4          1           0        1.043400   -0.329796    1.052751
      5          1           0        0.933890    1.078375   -0.201355
      6          1           0       -1.081302   -0.521063    0.080158
 ---------------------------------------------------------------------

 SCF Done:  E(RB2PLYPD3) =  -115.394117982     A.U. after   11 cycles
 E2(B2PLYPD3) =    -0.1438596820D+00 E(B2PLYPD3) =    -0.11553797766388D+03

 The electronic state is 1-A.
 Alpha  occ. eigenvalues --  -19.69406 -10.68442  -1.24737  -0.81634  -0.61322
 Alpha  occ. eigenvalues --   -0.51167  -0.50114  -0.41204  -0.36048
 Alpha virt. eigenvalues --    0.05369   0.09204   0.11710   0.11946   0.14592
 Alpha virt. eigenvalues --    0.16460   0.17872   0.28753   0.32445   0.32967
 Alpha virt. eigenvalues --    0.36178   0.38503   0.38933   0.40968   0.42454

 Mulliken charges:
               1
     1  C    0.044708
     2  O   -0.230938
     3  H    0.049138
     4  H    0.052661
     5  H    0.085974
     6  H   -0.001544
 Sum of Mulliken charges =   0.00000

 Dipole moment (field-independent basis, Debye):
    X=              0.9059    Y=             -1.1577    Z=              0.1995  Tot=              1.4835
 Quadrupole moment (field-independent basis, Debye-Ang):
   XX=            -13.2675   YY=            -12.4338   ZZ=            -13.4915
   XY=              1.7435   XZ=             -0.2914   YZ=             -0.1373

 Normal termination of Gaussian 09 at Wed Aug 26 12:49:02 2020.
