 Gaussian 09, Revision D.01,
 Gaussian 09:  ES64L-G09RevD.01 24-Apr-2013

 --------------------
 #p B2PLYPD3/Def2QZVP
 --------------------

 --------
 methanol
 --------
 Symbolic Z-matrix:
 Charge =  0 Multiplicity = 1

                         Standard orientation:
 ---------------------------------------------------------------------
 Center     Atomic      Atomic             Coordinates (Angstroms)
 Number     Number       Type             X           Y           Z
 ---------------------------------------------------------------------
      1          6           0        0.671736    0.032983   -0.004617
      2          8           0       -0.743973   -0.158356    0.003610
      3          1           0        1.071913    0.456499    0.827559
      4          1           0        1.039989    0.536642   -0.772688
      5          1           0        0.981152   -0.944816   -0.050658
      6          1           0       -1.171691    1.020623   -0.005387
 ---------------------------------------------------------------------

 SCF Done:  E(RB2PLYPD3) =  -115.485544151     A.U. after   11 cycles
 E2(B2PLYPD3) =    -0.1528832196D+00 E(B2PLYPD3) =    -0.11563842737040D+03

 The electronic state is 1-A.
 Alpha  occ. eigenvalues --  -19.74707 -10.62618  -1.12320  -0.79485  -0.56430
 Alpha  occ. eigenvalues --   -0.52678  -0.48229  -0.40638  -0.35423
 Alpha virt. eigenvalues --    0.01591   0.07660   0.12364   0.12956   0.15167
 Alpha virt. eigenvalues --    0.16932   0.18462   0.25058   0.29418   0.33912
 Alpha virt. eigenvalues --    0.34056   0.38699   0.39189   0.43041   0.45152

 Mulliken charges:
               1
     1  C    0.088957
     2  O   -0.485210
     3  H    0.045931
     4  H    0.044334
     5  H    0.063696
     6  H    0.242292
 Sum of Mulliken charges =   0.00000

 Dipole moment (field-independent basis, Debye):
    X=              1.0523    Y=              1.7074    Z=             -0.0368  Tot=              2.0060
 Quadrupole moment (field-independent basis, Debye-Ang):
   XX=            -13.1438   YY=            -11.5524   ZZ=            -13.9494
   XY=             -2.1977   XZ=              0.0138   YZ=             -0.0301

 Normal termination of Gaussian 09 at Wed Aug 26 12:40:12 2020.
