 Gaussian 09, Revision D.01,
 Gaussian 09:  ES64L-G09RevD.01 24-Apr-2013

 --------------------
 #p B2PLYPD3/Def2QZVP
 --------------------

 --------
 methanol
 --------
 Symbolic Z-matrix:
 Charge =  0 Multiplicity = 1

                         Standard orientation:
 ---------------------------------------------------------------------
 Center     Atomic      Atomic             Coordinates (Angstroms)
 Number     Number       Type             X           Y           Z
 ---------------------------------------------------------------------
      1          6           0       -0.676292   -0.024629   -0.010520
      2          8           0        0.753625    0.105207    0.003835
      3          1           0       -1.025721   -0.560329    0.920181
      4          1           0       -1.027580   -0.535535   -0.893666
      5          1           0       -1.065382    1.048672    0.021271
      6          1           0        1.147438   -0.646691   -0.015348
 ---------------------------------------------------------------------

 SCF Done:  E(RB2PLYPD3) =  -115.536187417     A.U. after   10 cycles
 E2(B2PLYPD3) =    -0.1457847235D+00 E(B2PLYPD3) =    -0.11568197214095D+03

 The electronic state is 1-A.
 Alpha  occ. eigenvalues --  -19.71261 -10.66836  -1.18184  -0.79433  -0.59933
 Alpha  occ. eigenvalues --   -0.51748  -0.49316  -0.40931  -0.35727
 Alpha virt. eigenvalues --    0.05347   0.08617   0.12061   0.12213   0.14732
 Alpha virt. eigenvalues --    0.16973   0.17956   0.29058   0.32571   0.33348
 Alpha virt. eigenvalues --    0.37319   0.38455   0.39577   0.40763   0.42722

 Mulliken charges:
               1
     1  C    0.066072
     2  O   -0.409737
     3  H    0.050184
     4  H    0.058262
     5  H    0.072386
     6  H    0.162834
 Sum of Mulliken charges =   0.00000

 Dipole moment (field-independent basis, Debye):
    X=             -0.9040    Y=             -1.4152    Z=             -0.0773  Tot=              1.6810
 Quadrupole moment (field-independent basis, Debye-Ang):
   XX=            -12.9803   YY=            -12.3823   ZZ=            -13.6740
   XY=             -2.0953   XZ=              0.0051   YZ=              0.0818

 Normal termination of Gaussian 09 at Thu Aug 27 00:09:11 2020.
