 Gaussian 09, Revision D.01,
 Gaussian 09:  ES64L-G09RevD.01 24-Apr-2013

 --------------------
 #p B2PLYPD3/Def2QZVP
 --------------------

 --------
 methanol
 --------
 Symbolic Z-matrix:
 Charge =  0 Multiplicity = 1

                         Standard orientation:
 ---------------------------------------------------------------------
 Center     Atomic      Atomic             Coordinates (Angstroms)
 Number     Number       Type             X           Y           Z
 ---------------------------------------------------------------------
      1          6           0       -0.666693   -0.032692    0.000907
      2          8           0        0.744655    0.118903   -0.002216
      3          1           0       -0.961243   -0.541499    0.899258
      4          1           0       -0.998500   -0.556762   -0.881628
      5          1           0       -1.126411    1.021078   -0.003089
      6          1           0        1.129076   -0.677888   -0.002257
 ---------------------------------------------------------------------

 SCF Done:  E(RB2PLYPD3) =  -115.545240384     A.U. after   10 cycles
 E2(B2PLYPD3) =    -0.1459490243D+00 E(B2PLYPD3) =    -0.11569118940804D+03

 The electronic state is 1-A.
 Alpha  occ. eigenvalues --  -19.71592 -10.66037  -1.17804  -0.79179  -0.59679
 Alpha  occ. eigenvalues --   -0.52701  -0.49463  -0.40732  -0.35648
 Alpha virt. eigenvalues --    0.05260   0.08594   0.12201   0.12323   0.14683
 Alpha virt. eigenvalues --    0.17341   0.17856   0.29108   0.33115   0.33382
 Alpha virt. eigenvalues --    0.36802   0.37935   0.40274   0.41406   0.44067

 Mulliken charges:
               1
     1  C    0.071859
     2  O   -0.429868
     3  H    0.052832
     4  H    0.051968
     5  H    0.065609
     6  H    0.187601
 Sum of Mulliken charges =   0.00000

 Dipole moment (field-independent basis, Debye):
    X=             -0.8853    Y=             -1.4941    Z=              0.0052  Tot=              1.7367
 Quadrupole moment (field-independent basis, Debye-Ang):
   XX=            -13.0502   YY=            -12.3497   ZZ=            -13.6440
   XY=             -2.1761   XZ=              0.0317   YZ=              0.0008

 Normal termination of Gaussian 09 at Wed Aug 26 23:31:04 2020.
