 Gaussian 09, Revision D.01,
 Gaussian 09:  ES64L-G09RevD.01 24-Apr-2013

 --------------------
 #p B2PLYPD3/Def2QZVP
 --------------------

 --------
 methanol
 --------
 Symbolic Z-matrix:
 Charge =  0 Multiplicity = 1

                         Standard orientation:
 ---------------------------------------------------------------------
 Center     Atomic      Atomic             Coordinates (Angstroms)
 Number     Number       Type             X           Y           Z
 ---------------------------------------------------------------------
      1          6           0       -0.677765   -0.027569    0.008650
      2          8           0        0.760715   -0.036553   -0.049414
      3          1           0       -1.017346    1.274347    0.024035
      4          1           0       -0.982364   -0.605954    0.932507
      5          1           0       -1.070613   -0.486780   -0.905327
      6          1           0        1.051190    0.276230    0.292197
 ---------------------------------------------------------------------

 SCF Done:  E(RB2PLYPD3) =  -115.007720114     A.U. after   11 cycles
 E2(B2PLYPD3) =    -0.1433357189D+00 E(B2PLYPD3) =    -0.11515105583258D+03

 The electronic state is 1-A.
 Alpha  occ. eigenvalues --  -19.68268 -10.70108  -1.31002  -0.84015  -0.61937
 Alpha  occ. eigenvalues --   -0.52519  -0.50489  -0.40436  -0.36278
 Alpha virt. eigenvalues --    0.04849   0.09676   0.10432   0.12198   0.13703
 Alpha virt. eigenvalues --    0.16787   0.17527   0.27893   0.29975   0.31637
 Alpha virt. eigenvalues --    0.33802   0.38529   0.39212   0.41190   0.43551

 Mulliken charges:
               1
     1  C    0.053154
     2  O   -0.107373
     3  H    0.024945
     4  H    0.071500
     5  H    0.101702
     6  H   -0.143928
 Sum of Mulliken charges =   0.00000

 Dipole moment (field-independent basis, Debye):
    X=             -1.0918    Y=              0.4575    Z=              0.7503  Tot=              1.4016
 Quadrupole moment (field-independent basis, Debye-Ang):
   XX=            -13.3004   YY=            -13.0005   ZZ=            -12.8729
   XY=              1.4524   XZ=              1.4155   YZ=              0.2899

 Normal termination of Gaussian 09 at Wed Aug 26 23:25:58 2020.
