 Gaussian 09, Revision D.01,
 Gaussian 09:  ES64L-G09RevD.01 24-Apr-2013

 --------------------
 #p B2PLYPD3/Def2QZVP
 --------------------

 --------
 methanol
 --------
 Symbolic Z-matrix:
 Charge =  0 Multiplicity = 1

                         Standard orientation:
 ---------------------------------------------------------------------
 Center     Atomic      Atomic             Coordinates (Angstroms)
 Number     Number       Type             X           Y           Z
 ---------------------------------------------------------------------
      1          6           0        0.674213    0.050742    0.022629
      2          8           0       -0.724193   -0.185790   -0.024376
      3          1           0        0.994323    0.270811    0.779773
      4          1           0        1.063041    0.766059   -0.659413
      5          1           0        1.050705   -0.899442   -0.161893
      6          1           0       -1.359803    1.044435    0.100767
 ---------------------------------------------------------------------

 SCF Done:  E(RB2PLYPD3) =  -115.408068233     A.U. after   12 cycles
 E2(B2PLYPD3) =    -0.1552392354D+00 E(B2PLYPD3) =    -0.11556330746789D+03

 The electronic state is 1-A.
 Alpha  occ. eigenvalues --  -19.75132 -10.61643  -1.11718  -0.81012  -0.55696
 Alpha  occ. eigenvalues --   -0.53118  -0.48455  -0.39060  -0.35361
 Alpha virt. eigenvalues --   -0.00947   0.07406   0.12286   0.13275   0.15194
 Alpha virt. eigenvalues --    0.16897   0.18582   0.22471   0.29419   0.33795
 Alpha virt. eigenvalues --    0.34580   0.37932   0.38455   0.42670   0.45807

 Mulliken charges:
               1
     1  C    0.039467
     2  O   -0.483769
     3  H    0.103561
     4  H    0.043838
     5  H    0.062592
     6  H    0.234311
 Sum of Mulliken charges =   0.00000

 Dipole moment (field-independent basis, Debye):
    X=              0.9010    Y=              1.6954    Z=              0.3205  Tot=              1.9466
 Quadrupole moment (field-independent basis, Debye-Ang):
   XX=            -12.4185   YY=            -11.6372   ZZ=            -14.0347
   XY=             -2.5191   XZ=             -0.0721   YZ=              0.1593

 Normal termination of Gaussian 09 at Wed Aug 26 23:52:56 2020.
