 Gaussian 09, Revision D.01,
 Gaussian 09:  ES64L-G09RevD.01 24-Apr-2013

 --------------------
 #p B2PLYPD3/Def2QZVP
 --------------------

 --------
 methanol
 --------
 Symbolic Z-matrix:
 Charge =  0 Multiplicity = 1

                         Standard orientation:
 ---------------------------------------------------------------------
 Center     Atomic      Atomic             Coordinates (Angstroms)
 Number     Number       Type             X           Y           Z
 ---------------------------------------------------------------------
      1          6           0       -0.653950    0.020498    0.004187
      2          8           0        0.749408   -0.155307   -0.008912
      3          1           0       -1.007338    0.581392   -0.832315
      4          1           0       -1.061793    0.437959    0.836987
      5          1           0       -1.094612   -0.893030   -0.034214
      6          1           0        1.092178    0.993146    0.075712
 ---------------------------------------------------------------------

 SCF Done:  E(RB2PLYPD3) =  -115.503751847     A.U. after   11 cycles
 E2(B2PLYPD3) =    -0.1517044227D+00 E(B2PLYPD3) =    -0.11565545626925D+03

 The electronic state is 1-A.
 Alpha  occ. eigenvalues --  -19.74628 -10.63312  -1.13353  -0.79082  -0.56075
 Alpha  occ. eigenvalues --   -0.52360  -0.49523  -0.40846  -0.35280
 Alpha virt. eigenvalues --    0.02261   0.07675   0.12609   0.12733   0.14832
 Alpha virt. eigenvalues --    0.17754   0.18470   0.26112   0.29466   0.33393
 Alpha virt. eigenvalues --    0.34605   0.38814   0.40283   0.42091   0.43880

 Mulliken charges:
               1
     1  C    0.088146
     2  O   -0.481248
     3  H    0.039484
     4  H    0.041501
     5  H    0.059104
     6  H    0.253012
 Sum of Mulliken charges =   0.00000

 Dipole moment (field-independent basis, Debye):
    X=             -1.0524    Y=              1.6684    Z=              0.1714  Tot=              1.9801
 Quadrupole moment (field-independent basis, Debye-Ang):
   XX=            -13.3167   YY=            -11.7058   ZZ=            -13.9190
   XY=              2.3140   XZ=              0.0449   YZ=              0.1090

 Normal termination of Gaussian 09 at Wed Aug 26 13:00:24 2020.
