 Gaussian 09, Revision D.01,
 Gaussian 09:  ES64L-G09RevD.01 24-Apr-2013

 --------------------
 #p B2PLYPD3/Def2QZVP
 --------------------

 --------
 methanol
 --------
 Symbolic Z-matrix:
 Charge =  0 Multiplicity = 1

                         Standard orientation:
 ---------------------------------------------------------------------
 Center     Atomic      Atomic             Coordinates (Angstroms)
 Number     Number       Type             X           Y           Z
 ---------------------------------------------------------------------
      1          6           0        0.680981    0.022200   -0.001489
      2          8           0       -0.745673   -0.147366   -0.004099
      3          1           0        1.030268    0.447866    0.898691
      4          1           0        0.978127    0.610856   -0.832647
      5          1           0        1.082586   -0.891196   -0.069431
      6          1           0       -1.211478    0.878201    0.045119
 ---------------------------------------------------------------------

 SCF Done:  E(RB2PLYPD3) =  -115.524224574     A.U. after   11 cycles
 E2(B2PLYPD3) =    -0.1500559925D+00 E(B2PLYPD3) =    -0.11567428056663D+03

 The electronic state is 1-A.
 Alpha  occ. eigenvalues --  -19.73472 -10.63764  -1.12767  -0.79080  -0.56217
 Alpha  occ. eigenvalues --   -0.52202  -0.49867  -0.40692  -0.35055
 Alpha virt. eigenvalues --    0.03518   0.07803   0.12521   0.12817   0.14693
 Alpha virt. eigenvalues --    0.17320   0.18227   0.28552   0.29817   0.33183
 Alpha virt. eigenvalues --    0.33529   0.39103   0.40930   0.41935   0.43568

 Mulliken charges:
               1
     1  C    0.084334
     2  O   -0.502590
     3  H    0.048345
     4  H    0.046779
     5  H    0.071285
     6  H    0.251847
 Sum of Mulliken charges =   0.00000

 Dipole moment (field-independent basis, Debye):
    X=              0.9382    Y=              1.5947    Z=              0.0765  Tot=              1.8518
 Quadrupole moment (field-independent basis, Debye-Ang):
   XX=            -12.8211   YY=            -11.9977   ZZ=            -13.7895
   XY=             -2.5303   XZ=             -0.0731   YZ=              0.0466

 Normal termination of Gaussian 09 at Wed Aug 26 10:28:05 2020.
