 Gaussian 09, Revision D.01,
 Gaussian 09:  ES64L-G09RevD.01 24-Apr-2013

 --------------------
 #p B2PLYPD3/Def2QZVP
 --------------------

 --------
 methanol
 --------
 Symbolic Z-matrix:
 Charge =  0 Multiplicity = 1

                         Standard orientation:
 ---------------------------------------------------------------------
 Center     Atomic      Atomic             Coordinates (Angstroms)
 Number     Number       Type             X           Y           Z
 ---------------------------------------------------------------------
      1          6           0       -0.658602   -0.049386   -0.000060
      2          8           0        0.765765    0.106595   -0.018906
      3          1           0       -1.004617   -0.496648    0.913223
      4          1           0       -1.088125   -0.545984   -0.893210
      5          1           0       -1.170892    1.093236    0.036381
      6          1           0        1.089128   -0.607041    0.095211
 ---------------------------------------------------------------------

 SCF Done:  E(RB2PLYPD3) =  -115.500214229     A.U. after   10 cycles
 E2(B2PLYPD3) =    -0.1455401902D+00 E(B2PLYPD3) =    -0.11564575441911D+03

 The electronic state is 1-A.
 Alpha  occ. eigenvalues --  -19.71394 -10.67737  -1.20878  -0.79496  -0.61117
 Alpha  occ. eigenvalues --   -0.52543  -0.48750  -0.40235  -0.36648
 Alpha virt. eigenvalues --    0.05236   0.08640   0.11577   0.12147   0.14576
 Alpha virt. eigenvalues --    0.17424   0.18313   0.28696   0.32211   0.33533
 Alpha virt. eigenvalues --    0.34129   0.38848   0.39957   0.40766   0.43228

 Mulliken charges:
               1
     1  C    0.052700
     2  O   -0.340147
     3  H    0.062217
     4  H    0.064788
     5  H    0.049082
     6  H    0.111361
 Sum of Mulliken charges =   0.00000

 Dipole moment (field-independent basis, Debye):
    X=             -0.9502    Y=             -1.4786    Z=              0.2613  Tot=              1.7769
 Quadrupole moment (field-independent basis, Debye-Ang):
   XX=            -13.0674   YY=            -12.6845   ZZ=            -13.5858
   XY=             -1.8693   XZ=              0.2978   YZ=             -0.1130

 Normal termination of Gaussian 09 at Wed Aug 26 22:35:48 2020.
