 Gaussian 09, Revision D.01,
 Gaussian 09:  ES64L-G09RevD.01 24-Apr-2013

 --------------------
 #p B2PLYPD3/Def2QZVP
 --------------------

 --------
 methanol
 --------
 Symbolic Z-matrix:
 Charge =  0 Multiplicity = 1

                         Standard orientation:
 ---------------------------------------------------------------------
 Center     Atomic      Atomic             Coordinates (Angstroms)
 Number     Number       Type             X           Y           Z
 ---------------------------------------------------------------------
      1          6           0       -0.667894    0.018385    0.005884
      2          8           0        0.751469   -0.145994   -0.012438
      3          1           0       -1.089552    0.583160   -0.821181
      4          1           0       -1.008623    0.516229    0.834542
      5          1           0       -1.108714   -0.933543    0.006822
      6          1           0        1.202503    0.891797    0.044021
 ---------------------------------------------------------------------

 SCF Done:  E(RB2PLYPD3) =  -115.524710747     A.U. after   11 cycles
 E2(B2PLYPD3) =    -0.1503734549D+00 E(B2PLYPD3) =    -0.11567508420189D+03

 The electronic state is 1-A.
 Alpha  occ. eigenvalues --  -19.73996 -10.64217  -1.13168  -0.78812  -0.56748
 Alpha  occ. eigenvalues --   -0.51232  -0.49600  -0.41018  -0.35092
 Alpha virt. eigenvalues --    0.03351   0.07617   0.12534   0.12803   0.15011
 Alpha virt. eigenvalues --    0.17493   0.18206   0.28227   0.29805   0.33458
 Alpha virt. eigenvalues --    0.33809   0.39167   0.39582   0.41170   0.44057

 Mulliken charges:
               1
     1  C    0.083728
     2  O   -0.491965
     3  H    0.041163
     4  H    0.045165
     5  H    0.068054
     6  H    0.253855
 Sum of Mulliken charges =   0.00000

 Dipole moment (field-independent basis, Debye):
    X=             -0.8994    Y=              1.6475    Z=              0.1559  Tot=              1.8834
 Quadrupole moment (field-independent basis, Debye-Ang):
   XX=            -12.7771   YY=            -11.9243   ZZ=            -14.0438
   XY=              2.4293   XZ=              0.0962   YZ=              0.0921

 Normal termination of Gaussian 09 at Thu Aug 27 00:03:51 2020.
