 Gaussian 09, Revision D.01,
 Gaussian 09:  ES64L-G09RevD.01 24-Apr-2013

 --------------------
 #p B2PLYPD3/Def2QZVP
 --------------------

 --------
 methanol
 --------
 Symbolic Z-matrix:
 Charge =  0 Multiplicity = 1

                         Standard orientation:
 ---------------------------------------------------------------------
 Center     Atomic      Atomic             Coordinates (Angstroms)
 Number     Number       Type             X           Y           Z
 ---------------------------------------------------------------------
      1          6           0        0.667778    0.027167   -0.006533
      2          8           0       -0.744381   -0.145139    0.004548
      3          1           0        1.031050    0.526693    0.853266
      4          1           0        0.959617    0.534150   -0.848397
      5          1           0        1.099013   -0.937543   -0.006568
      6          1           0       -1.141295    0.874810    0.004514
 ---------------------------------------------------------------------

 SCF Done:  E(RB2PLYPD3) =  -115.533139215     A.U. after   11 cycles
 E2(B2PLYPD3) =    -0.1494090625D+00 E(B2PLYPD3) =    -0.11568254827725D+03

 The electronic state is 1-A.
 Alpha  occ. eigenvalues --  -19.73462 -10.63922  -1.13884  -0.78796  -0.57021
 Alpha  occ. eigenvalues --   -0.52698  -0.49400  -0.40995  -0.35240
 Alpha virt. eigenvalues --    0.03847   0.07949   0.12571   0.12596   0.14827
 Alpha virt. eigenvalues --    0.17510   0.18121   0.28925   0.30330   0.33345
 Alpha virt. eigenvalues --    0.34001   0.39307   0.40138   0.42245   0.44062

 Mulliken charges:
               1
     1  C    0.084067
     2  O   -0.488457
     3  H    0.044458
     4  H    0.047433
     5  H    0.064967
     6  H    0.247532
 Sum of Mulliken charges =   0.00000

 Dipole moment (field-independent basis, Debye):
    X=              0.9660    Y=              1.6388    Z=             -0.0270  Tot=              1.9025
 Quadrupole moment (field-independent basis, Debye-Ang):
   XX=            -13.1088   YY=            -11.9330   ZZ=            -13.7995
   XY=             -2.3547   XZ=              0.0295   YZ=             -0.0309

 Normal termination of Gaussian 09 at Wed Aug 26 10:33:47 2020.
