 Gaussian 09, Revision D.01,
 Gaussian 09:  ES64L-G09RevD.01 24-Apr-2013

 --------------------
 #p B2PLYPD3/Def2QZVP
 --------------------

 --------
 methanol
 --------
 Symbolic Z-matrix:
 Charge =  0 Multiplicity = 1

                         Standard orientation:
 ---------------------------------------------------------------------
 Center     Atomic      Atomic             Coordinates (Angstroms)
 Number     Number       Type             X           Y           Z
 ---------------------------------------------------------------------
      1          6           0        0.665206    0.017752    0.007889
      2          8           0       -0.737657   -0.138027   -0.004514
      3          1           0        0.998465    0.485402    0.874817
      4          1           0        0.983947    0.590596   -0.855309
      5          1           0        1.064580   -0.926701   -0.056759
      6          1           0       -1.136973    0.848403    0.026027
 ---------------------------------------------------------------------

 SCF Done:  E(RB2PLYPD3) =  -115.538544740     A.U. after   11 cycles
 E2(B2PLYPD3) =    -0.1486499782D+00 E(B2PLYPD3) =    -0.11568719471778D+03

 The electronic state is 1-A.
 Alpha  occ. eigenvalues --  -19.73132 -10.63980  -1.14599  -0.78791  -0.57630
 Alpha  occ. eigenvalues --   -0.52362  -0.50087  -0.41105  -0.35026
 Alpha virt. eigenvalues --    0.04131   0.08123   0.12509   0.12674   0.14881
 Alpha virt. eigenvalues --    0.17383   0.18045   0.29146   0.31276   0.33266
 Alpha virt. eigenvalues --    0.34300   0.39216   0.40657   0.41895   0.44156

 Mulliken charges:
               1
     1  C    0.080782
     2  O   -0.482046
     3  H    0.046254
     4  H    0.040076
     5  H    0.069767
     6  H    0.245167
 Sum of Mulliken charges =   0.00000

 Dipole moment (field-independent basis, Debye):
    X=              0.9111    Y=              1.5778    Z=              0.0807  Tot=              1.8238
 Quadrupole moment (field-independent basis, Debye-Ang):
   XX=            -13.1344   YY=            -11.9545   ZZ=            -13.7728
   XY=             -2.3674   XZ=             -0.0189   YZ=              0.0826

 Normal termination of Gaussian 09 at Thu Aug 27 00:13:54 2020.
