 Gaussian 09, Revision D.01,
 Gaussian 09:  ES64L-G09RevD.01 24-Apr-2013

 --------------------
 #p B2PLYPD3/Def2QZVP
 --------------------

 --------
 methanol
 --------
 Symbolic Z-matrix:
 Charge =  0 Multiplicity = 1

                         Standard orientation:
 ---------------------------------------------------------------------
 Center     Atomic      Atomic             Coordinates (Angstroms)
 Number     Number       Type             X           Y           Z
 ---------------------------------------------------------------------
      1          6           0        0.675735    0.033266    0.002416
      2          8           0       -0.742418   -0.146942   -0.007004
      3          1           0        1.002077    0.457874    0.872181
      4          1           0        0.998841    0.592080   -0.824710
      5          1           0        1.088336   -0.936453   -0.047446
      6          1           0       -1.204320    0.862440    0.041510
 ---------------------------------------------------------------------

 SCF Done:  E(RB2PLYPD3) =  -115.529540667     A.U. after   11 cycles
 E2(B2PLYPD3) =    -0.1496715351D+00 E(B2PLYPD3) =    -0.11567921220240D+03

 The electronic state is 1-A.
 Alpha  occ. eigenvalues --  -19.73400 -10.63794  -1.13224  -0.78934  -0.56644
 Alpha  occ. eigenvalues --   -0.52782  -0.49253  -0.40626  -0.35238
 Alpha virt. eigenvalues --    0.03737   0.07854   0.12568   0.12677   0.14848
 Alpha virt. eigenvalues --    0.17276   0.18225   0.28817   0.30101   0.33514
 Alpha virt. eigenvalues --    0.33688   0.39334   0.39854   0.42563   0.44127

 Mulliken charges:
               1
     1  C    0.084605
     2  O   -0.497766
     3  H    0.050092
     4  H    0.047992
     5  H    0.065981
     6  H    0.249096
 Sum of Mulliken charges =   0.00000

 Dipole moment (field-independent basis, Debye):
    X=              0.9164    Y=              1.6326    Z=              0.1017  Tot=              1.8750
 Quadrupole moment (field-independent basis, Debye-Ang):
   XX=            -12.8422   YY=            -12.0169   ZZ=            -13.7808
   XY=             -2.4249   XZ=             -0.0773   YZ=              0.0509

 Normal termination of Gaussian 09 at Thu Aug 27 00:11:41 2020.
