 Gaussian 09, Revision D.01,
 Gaussian 09:  ES64L-G09RevD.01 24-Apr-2013

 --------------------
 #p B2PLYPD3/Def2QZVP
 --------------------

 --------
 methanol
 --------
 Symbolic Z-matrix:
 Charge =  0 Multiplicity = 1

                         Standard orientation:
 ---------------------------------------------------------------------
 Center     Atomic      Atomic             Coordinates (Angstroms)
 Number     Number       Type             X           Y           Z
 ---------------------------------------------------------------------
      1          6           0       -0.653355   -0.035666   -0.005725
      2          8           0        0.748606    0.099408   -0.013926
      3          1           0       -0.958935   -0.522668    0.949251
      4          1           0       -1.059493   -0.605231   -0.868810
      5          1           0       -1.163135    1.092240    0.009645
      6          1           0        1.112842   -0.545607    0.055668
 ---------------------------------------------------------------------

 SCF Done:  E(RB2PLYPD3) =  -115.467556415     A.U. after   10 cycles
 E2(B2PLYPD3) =    -0.1444100027D+00 E(B2PLYPD3) =    -0.11561196641761D+03

 The electronic state is 1-A.
 Alpha  occ. eigenvalues --  -19.70461 -10.68027  -1.22783  -0.80491  -0.61895
 Alpha  occ. eigenvalues --   -0.52312  -0.49424  -0.40120  -0.36193
 Alpha virt. eigenvalues --    0.05296   0.08970   0.11669   0.12166   0.14609
 Alpha virt. eigenvalues --    0.17212   0.17885   0.28798   0.32973   0.33406
 Alpha virt. eigenvalues --    0.34586   0.39157   0.40059   0.40213   0.42905

 Mulliken charges:
               1
     1  C    0.055086
     2  O   -0.287723
     3  H    0.051318
     4  H    0.058320
     5  H    0.061114
     6  H    0.061884
 Sum of Mulliken charges =   0.00000

 Dipole moment (field-independent basis, Debye):
    X=             -0.8277    Y=             -1.3719    Z=              0.1501  Tot=              1.6093
 Quadrupole moment (field-independent basis, Debye-Ang):
   XX=            -12.9767   YY=            -12.6291   ZZ=            -13.6347
   XY=             -1.9284   XZ=              0.2667   YZ=             -0.0187

 Normal termination of Gaussian 09 at Wed Aug 26 16:33:29 2020.
