 Gaussian 09, Revision D.01,
 Gaussian 09:  ES64L-G09RevD.01 24-Apr-2013

 --------------------
 #p B2PLYPD3/Def2QZVP
 --------------------

 --------
 methanol
 --------
 Symbolic Z-matrix:
 Charge =  0 Multiplicity = 1

                         Standard orientation:
 ---------------------------------------------------------------------
 Center     Atomic      Atomic             Coordinates (Angstroms)
 Number     Number       Type             X           Y           Z
 ---------------------------------------------------------------------
      1          6           0        0.666124   -0.016823    0.003281
      2          8           0       -0.753116    0.107074   -0.000002
      3          1           0        0.995758   -0.567929   -0.920378
      4          1           0        1.045764   -0.507140    0.924023
      5          1           0        1.061807    1.006869   -0.041191
      6          1           0       -1.075148   -0.687459    0.017883
 ---------------------------------------------------------------------

 SCF Done:  E(RB2PLYPD3) =  -115.540661865     A.U. after   10 cycles
 E2(B2PLYPD3) =    -0.1458334642D+00 E(B2PLYPD3) =    -0.11568649532910D+03

 The electronic state is 1-A.
 Alpha  occ. eigenvalues --  -19.71598 -10.66478  -1.18701  -0.79178  -0.59749
 Alpha  occ. eigenvalues --   -0.51834  -0.49967  -0.41497  -0.35688
 Alpha virt. eigenvalues --    0.05301   0.08685   0.12075   0.12330   0.14632
 Alpha virt. eigenvalues --    0.17217   0.18011   0.28953   0.32848   0.33307
 Alpha virt. eigenvalues --    0.37243   0.38751   0.40122   0.40340   0.43534

 Mulliken charges:
               1
     1  C    0.063958
     2  O   -0.404911
     3  H    0.047582
     4  H    0.051177
     5  H    0.072825
     6  H    0.169368
 Sum of Mulliken charges =   0.00000

 Dipole moment (field-independent basis, Debye):
    X=              0.9662    Y=             -1.3987    Z=              0.0415  Tot=              1.7005
 Quadrupole moment (field-independent basis, Debye-Ang):
   XX=            -13.2922   YY=            -12.3014   ZZ=            -13.6343
   XY=              2.1071   XZ=              0.0131   YZ=             -0.0472

 Normal termination of Gaussian 09 at Thu Aug 27 00:03:06 2020.
