 Gaussian 09, Revision D.01,
 Gaussian 09:  ES64L-G09RevD.01 24-Apr-2013

 --------------------
 #p B2PLYPD3/Def2QZVP
 --------------------

 --------
 methanol
 --------
 Symbolic Z-matrix:
 Charge =  0 Multiplicity = 1

                         Standard orientation:
 ---------------------------------------------------------------------
 Center     Atomic      Atomic             Coordinates (Angstroms)
 Number     Number       Type             X           Y           Z
 ---------------------------------------------------------------------
      1          6           0       -0.650975    0.031981    0.005118
      2          8           0        0.750522   -0.038609   -0.032439
      3          1           0       -1.028825    1.159442   -0.115680
      4          1           0       -1.153719   -0.520183    1.058591
      5          1           0       -1.116663   -0.680303   -0.938331
      6          1           0        1.200885    0.158031    0.224223
 ---------------------------------------------------------------------

 SCF Done:  E(RB2PLYPD3) =  -115.014627400     A.U. after   12 cycles
 E2(B2PLYPD3) =    -0.1445426634D+00 E(B2PLYPD3) =    -0.11515917006350D+03

 The electronic state is 1-A.
 Alpha  occ. eigenvalues --  -19.68581 -10.72461  -1.30122  -0.85961  -0.62047
 Alpha  occ. eigenvalues --   -0.51118  -0.49663  -0.37822  -0.35970
 Alpha virt. eigenvalues --    0.04573   0.09293   0.10929   0.11334   0.13955
 Alpha virt. eigenvalues --    0.16628   0.17953   0.28683   0.31574   0.32104
 Alpha virt. eigenvalues --    0.33314   0.34015   0.37198   0.40692   0.42357

 Mulliken charges:
               1
     1  C    0.050320
     2  O   -0.100595
     3  H    0.064873
     4  H    0.043832
     5  H    0.078361
     6  H   -0.136792
 Sum of Mulliken charges =   0.00000

 Dipole moment (field-independent basis, Debye):
    X=             -0.6518    Y=              0.5992    Z=              0.5791  Tot=              1.0579
 Quadrupole moment (field-independent basis, Debye-Ang):
   XX=            -12.4004   YY=            -13.2355   ZZ=            -13.4775
   XY=              0.9003   XZ=              1.2135   YZ=              0.1807

 Normal termination of Gaussian 09 at Wed Aug 26 22:25:33 2020.
