 Gaussian 09, Revision D.01,
 Gaussian 09:  ES64L-G09RevD.01 24-Apr-2013

 --------------------
 #p B2PLYPD3/Def2QZVP
 --------------------

 --------
 methanol
 --------
 Symbolic Z-matrix:
 Charge =  0 Multiplicity = 1

                         Standard orientation:
 ---------------------------------------------------------------------
 Center     Atomic      Atomic             Coordinates (Angstroms)
 Number     Number       Type             X           Y           Z
 ---------------------------------------------------------------------
      1          6           0        0.644795    0.044493    0.003509
      2          8           0       -0.758217   -0.150842   -0.024278
      3          1           0        1.002741    0.381095    0.822714
      4          1           0        1.093537    0.651907   -0.746991
      5          1           0        1.182187   -1.008508   -0.028077
      6          1           0       -1.081503    0.915280    0.125522
 ---------------------------------------------------------------------

 SCF Done:  E(RB2PLYPD3) =  -115.505642148     A.U. after   11 cycles
 E2(B2PLYPD3) =    -0.1508056278D+00 E(B2PLYPD3) =    -0.11565644777597D+03

 The electronic state is 1-A.
 Alpha  occ. eigenvalues --  -19.74673 -10.64539  -1.14402  -0.79099  -0.56953
 Alpha  occ. eigenvalues --   -0.52720  -0.48878  -0.40180  -0.35897
 Alpha virt. eigenvalues --    0.03289   0.07491   0.12012   0.12840   0.14969
 Alpha virt. eigenvalues --    0.17785   0.18663   0.27726   0.29504   0.33781
 Alpha virt. eigenvalues --    0.34361   0.35886   0.40004   0.42049   0.43871

 Mulliken charges:
               1
     1  C    0.077147
     2  O   -0.467973
     3  H    0.054413
     4  H    0.045607
     5  H    0.039530
     6  H    0.251275
 Sum of Mulliken charges =   0.00000

 Dipole moment (field-independent basis, Debye):
    X=              0.9746    Y=              1.7934    Z=              0.3616  Tot=              2.0730
 Quadrupole moment (field-independent basis, Debye-Ang):
   XX=            -13.2787   YY=            -11.9467   ZZ=            -14.0175
   XY=             -2.0430   XZ=             -0.1769   YZ=              0.1590

 Normal termination of Gaussian 09 at Wed Aug 26 20:20:10 2020.
