 Gaussian 09, Revision D.01,
 Gaussian 09:  ES64L-G09RevD.01 24-Apr-2013

 --------------------
 #p B2PLYPD3/Def2QZVP
 --------------------

 --------
 methanol
 --------
 Symbolic Z-matrix:
 Charge =  0 Multiplicity = 1

                         Standard orientation:
 ---------------------------------------------------------------------
 Center     Atomic      Atomic             Coordinates (Angstroms)
 Number     Number       Type             X           Y           Z
 ---------------------------------------------------------------------
      1          6           0        0.645567    0.025276   -0.012488
      2          8           0       -0.734658   -0.160725    0.004891
      3          1           0        1.105764    0.496708    0.826608
      4          1           0        0.945497    0.559450   -0.815853
      5          1           0        1.115080   -0.891340   -0.015988
      6          1           0       -1.162475    0.969322    0.041037
 ---------------------------------------------------------------------

 SCF Done:  E(RB2PLYPD3) =  -115.502930033     A.U. after   11 cycles
 E2(B2PLYPD3) =    -0.1513558207D+00 E(B2PLYPD3) =    -0.11565428585330D+03

 The electronic state is 1-A.
 Alpha  occ. eigenvalues --  -19.74543 -10.63190  -1.13907  -0.78780  -0.56466
 Alpha  occ. eigenvalues --   -0.52522  -0.49828  -0.40360  -0.34981
 Alpha virt. eigenvalues --    0.02090   0.07643   0.12713   0.12839   0.15006
 Alpha virt. eigenvalues --    0.17715   0.18439   0.25933   0.29536   0.33176
 Alpha virt. eigenvalues --    0.35346   0.39003   0.40082   0.42412   0.43857

 Mulliken charges:
               1
     1  C    0.086710
     2  O   -0.478392
     3  H    0.034907
     4  H    0.041576
     5  H    0.059968
     6  H    0.255231
 Sum of Mulliken charges =   0.00000

 Dipole moment (field-independent basis, Debye):
    X=              0.8748    Y=              1.6900    Z=              0.0091  Tot=              1.9030
 Quadrupole moment (field-independent basis, Debye-Ang):
   XX=            -12.9998   YY=            -11.7990   ZZ=            -14.0040
   XY=             -2.4513   XZ=              0.0018   YZ=             -0.0328

 Normal termination of Gaussian 09 at Wed Aug 26 14:31:37 2020.
