 Gaussian 09, Revision D.01,
 Gaussian 09:  ES64L-G09RevD.01 24-Apr-2013

 --------------------
 #p B2PLYPD3/Def2QZVP
 --------------------

 --------
 methanol
 --------
 Symbolic Z-matrix:
 Charge =  0 Multiplicity = 1

                         Standard orientation:
 ---------------------------------------------------------------------
 Center     Atomic      Atomic             Coordinates (Angstroms)
 Number     Number       Type             X           Y           Z
 ---------------------------------------------------------------------
      1          6           0        0.661501   -0.016664    0.011463
      2          8           0       -0.742995    0.109952   -0.008951
      3          1           0        1.032045   -0.608658   -0.891749
      4          1           0        0.974556   -0.505192    0.925614
      5          1           0        1.091060    1.000743   -0.052073
      6          1           0       -1.122711   -0.666527    0.021043
 ---------------------------------------------------------------------

 SCF Done:  E(RB2PLYPD3) =  -115.542301563     A.U. after   10 cycles
 E2(B2PLYPD3) =    -0.1456148193D+00 E(B2PLYPD3) =    -0.11568791638281D+03

 The electronic state is 1-A.
 Alpha  occ. eigenvalues --  -19.71519 -10.66356  -1.18626  -0.79344  -0.60028
 Alpha  occ. eigenvalues --   -0.51937  -0.50297  -0.40955  -0.35427
 Alpha virt. eigenvalues --    0.05303   0.08666   0.12195   0.12363   0.14736
 Alpha virt. eigenvalues --    0.17251   0.17869   0.29056   0.33008   0.33639
 Alpha virt. eigenvalues --    0.37108   0.39083   0.39596   0.40709   0.43651

 Mulliken charges:
               1
     1  C    0.068022
     2  O   -0.411313
     3  H    0.040910
     4  H    0.051518
     5  H    0.073913
     6  H    0.176950
 Sum of Mulliken charges =   0.00000

 Dipole moment (field-independent basis, Debye):
    X=              0.8421    Y=             -1.3964    Z=              0.1087  Tot=              1.6343
 Quadrupole moment (field-independent basis, Debye-Ang):
   XX=            -13.0652   YY=            -12.3626   ZZ=            -13.6924
   XY=              2.1979   XZ=             -0.0713   YZ=             -0.0972

 Normal termination of Gaussian 09 at Thu Aug 27 00:05:27 2020.
