 Gaussian 09, Revision D.01,
 Gaussian 09:  ES64L-G09RevD.01 24-Apr-2013

 --------------------
 #p B2PLYPD3/Def2QZVP
 --------------------

 --------
 methanol
 --------
 Symbolic Z-matrix:
 Charge =  0 Multiplicity = 1

                         Standard orientation:
 ---------------------------------------------------------------------
 Center     Atomic      Atomic             Coordinates (Angstroms)
 Number     Number       Type             X           Y           Z
 ---------------------------------------------------------------------
      1          6           0        0.679571    0.028690    0.013444
      2          8           0       -0.752778   -0.166617   -0.011993
      3          1           0        0.984870    0.439785    0.863321
      4          1           0        1.097300    0.599107   -0.796340
      5          1           0        1.128274   -0.859109   -0.070556
      6          1           0       -1.265641    0.981014    0.018859
 ---------------------------------------------------------------------

 SCF Done:  E(RB2PLYPD3) =  -115.486985586     A.U. after   11 cycles
 E2(B2PLYPD3) =    -0.1528716444D+00 E(B2PLYPD3) =    -0.11563985723044D+03

 The electronic state is 1-A.
 Alpha  occ. eigenvalues --  -19.74609 -10.63161  -1.11412  -0.79579  -0.54917
 Alpha  occ. eigenvalues --   -0.52067  -0.49219  -0.40200  -0.35259
 Alpha virt. eigenvalues --    0.01494   0.07412   0.12730   0.12834   0.14680
 Alpha virt. eigenvalues --    0.17547   0.18499   0.24955   0.29391   0.32991
 Alpha virt. eigenvalues --    0.33884   0.38827   0.40337   0.42095   0.43562

 Mulliken charges:
               1
     1  C    0.091235
     2  O   -0.504081
     3  H    0.052009
     4  H    0.042418
     5  H    0.064271
     6  H    0.254149
 Sum of Mulliken charges =   0.00000

 Dipole moment (field-independent basis, Debye):
    X=              0.9703    Y=              1.6703    Z=              0.1035  Tot=              1.9344
 Quadrupole moment (field-independent basis, Debye-Ang):
   XX=            -12.5740   YY=            -11.8996   ZZ=            -13.9440
   XY=             -2.6307   XZ=             -0.0935   YZ=              0.0935

 Normal termination of Gaussian 09 at Wed Aug 26 13:23:02 2020.
