 Gaussian 09, Revision D.01,
 Gaussian 09:  ES64L-G09RevD.01 24-Apr-2013

 --------------------
 #p B2PLYPD3/Def2QZVP
 --------------------

 --------
 methanol
 --------
 Symbolic Z-matrix:
 Charge =  0 Multiplicity = 1

                         Standard orientation:
 ---------------------------------------------------------------------
 Center     Atomic      Atomic             Coordinates (Angstroms)
 Number     Number       Type             X           Y           Z
 ---------------------------------------------------------------------
      1          6           0        0.663590   -0.017954   -0.000573
      2          8           0       -0.756210    0.109124   -0.008293
      3          1           0        0.927587   -0.728926   -0.845979
      4          1           0        1.098071   -0.371871    0.971691
      5          1           0        1.137610    0.977983   -0.175301
      6          1           0       -1.095128   -0.642453    0.119375
 ---------------------------------------------------------------------

 SCF Done:  E(RB2PLYPD3) =  -115.530789840     A.U. after   10 cycles
 E2(B2PLYPD3) =    -0.1456237169D+00 E(B2PLYPD3) =    -0.11567641355689D+03

 The electronic state is 1-A.
 Alpha  occ. eigenvalues --  -19.71460 -10.67058  -1.19346  -0.79293  -0.60047
 Alpha  occ. eigenvalues --   -0.51898  -0.49972  -0.41093  -0.35682
 Alpha virt. eigenvalues --    0.05329   0.08609   0.12028   0.12357   0.14460
 Alpha virt. eigenvalues --    0.17457   0.17989   0.28898   0.32252   0.33507
 Alpha virt. eigenvalues --    0.36779   0.38710   0.39577   0.40118   0.43520

 Mulliken charges:
               1
     1  C    0.062636
     2  O   -0.386092
     3  H    0.047023
     4  H    0.049377
     5  H    0.073444
     6  H    0.153611
 Sum of Mulliken charges =   0.00000

 Dipole moment (field-independent basis, Debye):
    X=              0.9455    Y=             -1.3489    Z=              0.2378  Tot=              1.6643
 Quadrupole moment (field-independent basis, Debye-Ang):
   XX=            -13.1070   YY=            -12.4787   ZZ=            -13.6675
   XY=              2.1962   XZ=             -0.1865   YZ=             -0.1482

 Normal termination of Gaussian 09 at Wed Aug 26 14:29:16 2020.
