 Gaussian 09, Revision D.01,
 Gaussian 09:  ES64L-G09RevD.01 24-Apr-2013

 --------------------
 #p B2PLYPD3/Def2QZVP
 --------------------

 --------
 methanol
 --------
 Symbolic Z-matrix:
 Charge =  0 Multiplicity = 1

                         Standard orientation:
 ---------------------------------------------------------------------
 Center     Atomic      Atomic             Coordinates (Angstroms)
 Number     Number       Type             X           Y           Z
 ---------------------------------------------------------------------
      1          6           0        0.700801    0.022499   -0.034742
      2          8           0       -0.751661   -0.150653    0.031341
      3          1           0        1.071222    0.689951    0.779369
      4          1           0        0.917917    0.435513   -0.767052
      5          1           0        1.054293   -0.964334    0.059556
      6          1           0       -1.234948    0.909097   -0.114147
 ---------------------------------------------------------------------

 SCF Done:  E(RB2PLYPD3) =  -115.470845838     A.U. after   11 cycles
 E2(B2PLYPD3) =    -0.1514471229D+00 E(B2PLYPD3) =    -0.11562229296062D+03

 The electronic state is 1-A.
 Alpha  occ. eigenvalues --  -19.73675 -10.63090  -1.11492  -0.80526  -0.57652
 Alpha  occ. eigenvalues --   -0.51597  -0.48175  -0.41215  -0.34982
 Alpha virt. eigenvalues --    0.02953   0.07631   0.12133   0.12848   0.15053
 Alpha virt. eigenvalues --    0.17053   0.17832   0.27457   0.29484   0.32548
 Alpha virt. eigenvalues --    0.33157   0.38581   0.38983   0.40849   0.45161

 Mulliken charges:
               1
     1  C    0.048783
     2  O   -0.512964
     3  H    0.043610
     4  H    0.094491
     5  H    0.079588
     6  H    0.246492
 Sum of Mulliken charges =   0.00000

 Dipole moment (field-independent basis, Debye):
    X=              1.0236    Y=              1.6542    Z=             -0.3939  Tot=              1.9848
 Quadrupole moment (field-independent basis, Debye-Ang):
   XX=            -12.8471   YY=            -11.6559   ZZ=            -13.9368
   XY=             -2.3957   XZ=              0.2004   YZ=             -0.3106

 Normal termination of Gaussian 09 at Wed Aug 26 20:30:45 2020.
