 Gaussian 09, Revision D.01,
 Gaussian 09:  ES64L-G09RevD.01 24-Apr-2013

 --------------------
 #p B2PLYPD3/Def2QZVP
 --------------------

 --------
 methanol
 --------
 Symbolic Z-matrix:
 Charge =  0 Multiplicity = 1

                         Standard orientation:
 ---------------------------------------------------------------------
 Center     Atomic      Atomic             Coordinates (Angstroms)
 Number     Number       Type             X           Y           Z
 ---------------------------------------------------------------------
      1          6           0       -0.665047    0.013350    0.007148
      2          8           0        0.760890   -0.074236   -0.022148
      3          1           0       -0.962838    0.974245   -0.630361
      4          1           0       -1.105352    0.011380    1.072468
      5          1           0       -1.032309   -0.947624   -0.516118
      6          1           0        1.003656    0.475791    0.208307
 ---------------------------------------------------------------------

 SCF Done:  E(RB2PLYPD3) =  -115.325264352     A.U. after   11 cycles
 E2(B2PLYPD3) =    -0.1436791247D+00 E(B2PLYPD3) =    -0.11546894347690D+03

 The electronic state is 1-A.
 Alpha  occ. eigenvalues --  -19.69331 -10.68704  -1.27185  -0.81207  -0.61675
 Alpha  occ. eigenvalues --   -0.51787  -0.50042  -0.41709  -0.36454
 Alpha virt. eigenvalues --    0.05296   0.09269   0.11507   0.11957   0.14282
 Alpha virt. eigenvalues --    0.16906   0.17881   0.28246   0.31769   0.33106
 Alpha virt. eigenvalues --    0.35691   0.38056   0.38700   0.41028   0.43227

 Mulliken charges:
               1
     1  C    0.047598
     2  O   -0.206503
     3  H    0.047216
     4  H    0.057531
     5  H    0.078327
     6  H   -0.024171
 Sum of Mulliken charges =   0.00000

 Dipole moment (field-independent basis, Debye):
    X=             -1.0779    Y=              1.0712    Z=              0.4714  Tot=              1.5911
 Quadrupole moment (field-independent basis, Debye-Ang):
   XX=            -13.4852   YY=            -12.5725   ZZ=            -13.2899
   XY=              1.7412   XZ=              0.5539   YZ=              0.3032

 Normal termination of Gaussian 09 at Wed Aug 26 12:37:28 2020.
