 Gaussian 09, Revision D.01,
 Gaussian 09:  ES64L-G09RevD.01 24-Apr-2013

 --------------------
 #p B2PLYPD3/Def2QZVP
 --------------------

 --------
 methanol
 --------
 Symbolic Z-matrix:
 Charge =  0 Multiplicity = 1

                         Standard orientation:
 ---------------------------------------------------------------------
 Center     Atomic      Atomic             Coordinates (Angstroms)
 Number     Number       Type             X           Y           Z
 ---------------------------------------------------------------------
      1          6           0       -0.676120   -0.050235   -0.016754
      2          8           0        0.753290    0.081682   -0.016337
      3          1           0       -0.864581   -0.406232    1.076018
      4          1           0       -1.020907   -0.718773   -0.790781
      5          1           0       -1.165291    1.164830   -0.094315
      6          1           0        1.081176   -0.391876    0.040300
 ---------------------------------------------------------------------

 SCF Done:  E(RB2PLYPD3) =  -115.129793193     A.U. after   11 cycles
 E2(B2PLYPD3) =    -0.1434992125D+00 E(B2PLYPD3) =    -0.11527329240589D+03

 The electronic state is 1-A.
 Alpha  occ. eigenvalues --  -19.68055 -10.69651  -1.29273  -0.83109  -0.62544
 Alpha  occ. eigenvalues --   -0.52882  -0.48689  -0.39992  -0.36413
 Alpha virt. eigenvalues --    0.04864   0.09598   0.10864   0.11727   0.14035
 Alpha virt. eigenvalues --    0.16608   0.17729   0.28440   0.31061   0.31831
 Alpha virt. eigenvalues --    0.33275   0.38093   0.40166   0.40855   0.43229

 Mulliken charges:
               1
     1  C    0.056027
     2  O   -0.145795
     3  H    0.056259
     4  H    0.074267
     5  H    0.064931
     6  H   -0.105690
 Sum of Mulliken charges =   0.00000

 Dipole moment (field-independent basis, Debye):
    X=             -1.0086    Y=             -1.2403    Z=              0.0995  Tot=              1.6017
 Quadrupole moment (field-independent basis, Debye-Ang):
   XX=            -13.1577   YY=            -12.5614   ZZ=            -13.3379
   XY=             -1.7141   XZ=              0.4280   YZ=              0.1415

 Normal termination of Gaussian 09 at Wed Aug 26 19:30:32 2020.
