 Gaussian 09, Revision D.01,
 Gaussian 09:  ES64L-G09RevD.01 24-Apr-2013

 --------------------
 #p B2PLYPD3/Def2QZVP
 --------------------

 --------
 methanol
 --------
 Symbolic Z-matrix:
 Charge =  0 Multiplicity = 1

                         Standard orientation:
 ---------------------------------------------------------------------
 Center     Atomic      Atomic             Coordinates (Angstroms)
 Number     Number       Type             X           Y           Z
 ---------------------------------------------------------------------
      1          6           0       -0.663947    0.015449   -0.001250
      2          8           0        0.749752   -0.133720   -0.000293
      3          1           0       -1.030119    0.543511   -0.881799
      4          1           0       -0.997411    0.548993    0.896213
      5          1           0       -1.141255   -0.916635    0.005405
      6          1           0        1.154451    0.801193   -0.009974
 ---------------------------------------------------------------------

 SCF Done:  E(RB2PLYPD3) =  -115.547256021     A.U. after   10 cycles
 E2(B2PLYPD3) =    -0.1481900420D+00 E(B2PLYPD3) =    -0.11569544606264D+03

 The electronic state is 1-A.
 Alpha  occ. eigenvalues --  -19.73077 -10.65129  -1.15004  -0.78658  -0.57640
 Alpha  occ. eigenvalues --   -0.51623  -0.50483  -0.40876  -0.35185
 Alpha virt. eigenvalues --    0.04544   0.07980   0.12361   0.12759   0.14665
 Alpha virt. eigenvalues --    0.17722   0.18133   0.29166   0.32513   0.33196
 Alpha virt. eigenvalues --    0.33631   0.39264   0.40609   0.40885   0.43753

 Mulliken charges:
               1
     1  C    0.074290
     2  O   -0.475332
     3  H    0.044203
     4  H    0.043662
     5  H    0.071333
     6  H    0.241845
 Sum of Mulliken charges =   0.00000

 Dipole moment (field-independent basis, Debye):
    X=             -0.8918    Y=              1.5278    Z=             -0.0206  Tot=              1.7692
 Quadrupole moment (field-independent basis, Debye-Ang):
   XX=            -12.9238   YY=            -12.2147   ZZ=            -13.8321
   XY=              2.4473   XZ=              0.0133   YZ=             -0.0203

 Normal termination of Gaussian 09 at Thu Aug 27 00:02:09 2020.
