 Gaussian 09, Revision D.01,
 Gaussian 09:  ES64L-G09RevD.01 24-Apr-2013

 --------------------
 #p B2PLYPD3/Def2QZVP
 --------------------

 --------
 methanol
 --------
 Symbolic Z-matrix:
 Charge =  0 Multiplicity = 1

                         Standard orientation:
 ---------------------------------------------------------------------
 Center     Atomic      Atomic             Coordinates (Angstroms)
 Number     Number       Type             X           Y           Z
 ---------------------------------------------------------------------
      1          6           0        0.662401   -0.005183    0.003486
      2          8           0       -0.754238    0.100300   -0.016649
      3          1           0        1.016231   -0.769568   -0.797464
      4          1           0        1.022657   -0.338176    0.992639
      5          1           0        1.064391    0.998435   -0.192375
      6          1           0       -1.043776   -0.661994    0.109480
 ---------------------------------------------------------------------

 SCF Done:  E(RB2PLYPD3) =  -115.527903338     A.U. after   10 cycles
 E2(B2PLYPD3) =    -0.1454104872D+00 E(B2PLYPD3) =    -0.11567331382478D+03

 The electronic state is 1-A.
 Alpha  occ. eigenvalues --  -19.71362 -10.66876  -1.19961  -0.79328  -0.60304
 Alpha  occ. eigenvalues --   -0.51439  -0.50326  -0.41915  -0.35583
 Alpha virt. eigenvalues --    0.05289   0.08832   0.11946   0.12284   0.14741
 Alpha virt. eigenvalues --    0.17200   0.17810   0.28921   0.32829   0.33046
 Alpha virt. eigenvalues --    0.37127   0.39029   0.39554   0.40536   0.43307

 Mulliken charges:
               1
     1  C    0.064898
     2  O   -0.374302
     3  H    0.039235
     4  H    0.049902
     5  H    0.076761
     6  H    0.143505
 Sum of Mulliken charges =   0.00000

 Dipole moment (field-independent basis, Debye):
    X=              0.9875    Y=             -1.3317    Z=              0.2750  Tot=              1.6806
 Quadrupole moment (field-independent basis, Debye-Ang):
   XX=            -13.4199   YY=            -12.2454   ZZ=            -13.6865
   XY=              2.0439   XZ=             -0.2604   YZ=             -0.1996

 Normal termination of Gaussian 09 at Wed Aug 26 13:35:01 2020.
