 Gaussian 09, Revision D.01,
 Gaussian 09:  ES64L-G09RevD.01 24-Apr-2013

 --------------------
 #p B2PLYPD3/Def2QZVP
 --------------------

 --------
 methanol
 --------
 Symbolic Z-matrix:
 Charge =  0 Multiplicity = 1

                         Standard orientation:
 ---------------------------------------------------------------------
 Center     Atomic      Atomic             Coordinates (Angstroms)
 Number     Number       Type             X           Y           Z
 ---------------------------------------------------------------------
      1          6           0        0.673747    0.024468   -0.006509
      2          8           0       -0.741205   -0.151168    0.007514
      3          1           0        1.014123    0.551939    0.839351
      4          1           0        0.937515    0.544876   -0.833020
      5          1           0        1.118600   -0.915156   -0.013801
      6          1           0       -1.183083    0.880879   -0.013584
 ---------------------------------------------------------------------

 SCF Done:  E(RB2PLYPD3) =  -115.525246847     A.U. after   11 cycles
 E2(B2PLYPD3) =    -0.1497534166D+00 E(B2PLYPD3) =    -0.11567500026329D+03

 The electronic state is 1-A.
 Alpha  occ. eigenvalues --  -19.73434 -10.63519  -1.13253  -0.79019  -0.56731
 Alpha  occ. eigenvalues --   -0.52574  -0.49681  -0.40836  -0.35008
 Alpha virt. eigenvalues --    0.03518   0.07882   0.12633   0.12696   0.14824
 Alpha virt. eigenvalues --    0.17576   0.17934   0.28656   0.29890   0.33250
 Alpha virt. eigenvalues --    0.33761   0.39679   0.40277   0.42214   0.44055

 Mulliken charges:
               1
     1  C    0.090932
     2  O   -0.498111
     3  H    0.043254
     4  H    0.045499
     5  H    0.068051
     6  H    0.250375
 Sum of Mulliken charges =   0.00000

 Dipole moment (field-independent basis, Debye):
    X=              0.9449    Y=              1.6557    Z=             -0.0707  Tot=              1.9077
 Quadrupole moment (field-independent basis, Debye-Ang):
   XX=            -12.9292   YY=            -11.8898   ZZ=            -13.8400
   XY=             -2.4658   XZ=              0.0622   YZ=             -0.0499

 Normal termination of Gaussian 09 at Thu Aug 27 00:01:30 2020.
