 Gaussian 09, Revision D.01,
 Gaussian 09:  ES64L-G09RevD.01 24-Apr-2013

 --------------------
 #p B2PLYPD3/Def2QZVP
 --------------------

 --------
 methanol
 --------
 Symbolic Z-matrix:
 Charge =  0 Multiplicity = 1

                         Standard orientation:
 ---------------------------------------------------------------------
 Center     Atomic      Atomic             Coordinates (Angstroms)
 Number     Number       Type             X           Y           Z
 ---------------------------------------------------------------------
      1          6           0       -0.656103   -0.019191   -0.002526
      2          8           0        0.743609    0.103313   -0.005901
      3          1           0       -1.029722   -0.501751    0.939157
      4          1           0       -0.996504   -0.638531   -0.878042
      5          1           0       -1.120637    1.033044   -0.051363
      6          1           0        1.134606   -0.604122    0.052617
 ---------------------------------------------------------------------

 SCF Done:  E(RB2PLYPD3) =  -115.520986069     A.U. after   10 cycles
 E2(B2PLYPD3) =    -0.1449466677D+00 E(B2PLYPD3) =    -0.11566593273669D+03

 The electronic state is 1-A.
 Alpha  occ. eigenvalues --  -19.71059 -10.67217  -1.20344  -0.79821  -0.60956
 Alpha  occ. eigenvalues --   -0.51730  -0.50193  -0.40606  -0.35580
 Alpha virt. eigenvalues --    0.05376   0.08787   0.12145   0.12207   0.14743
 Alpha virt. eigenvalues --    0.17225   0.17812   0.28988   0.32960   0.33770
 Alpha virt. eigenvalues --    0.36992   0.38787   0.39801   0.40077   0.42887

 Mulliken charges:
               1
     1  C    0.063249
     2  O   -0.361732
     3  H    0.046211
     4  H    0.047463
     5  H    0.072642
     6  H    0.132167
 Sum of Mulliken charges =   0.00000

 Dipole moment (field-independent basis, Debye):
    X=             -0.7921    Y=             -1.3516    Z=              0.1183  Tot=              1.5711
 Quadrupole moment (field-independent basis, Debye-Ang):
   XX=            -12.9364   YY=            -12.4901   ZZ=            -13.7337
   XY=             -2.1212   XZ=              0.1233   YZ=             -0.0479

 Normal termination of Gaussian 09 at Thu Aug 27 00:01:48 2020.
