 Gaussian 09, Revision D.01,
 Gaussian 09:  ES64L-G09RevD.01 24-Apr-2013

 --------------------
 #p B2PLYPD3/Def2QZVP
 --------------------

 --------
 methanol
 --------
 Symbolic Z-matrix:
 Charge =  0 Multiplicity = 1

                         Standard orientation:
 ---------------------------------------------------------------------
 Center     Atomic      Atomic             Coordinates (Angstroms)
 Number     Number       Type             X           Y           Z
 ---------------------------------------------------------------------
      1          6           0        0.658793    0.045091    0.014352
      2          8           0       -0.731888   -0.170568   -0.008916
      3          1           0        0.998251    0.489435    0.805718
      4          1           0        1.100403    0.570125   -0.786456
      5          1           0        1.134171   -0.911712   -0.037780
      6          1           0       -1.330481    0.946152    0.003739
 ---------------------------------------------------------------------

 SCF Done:  E(RB2PLYPD3) =  -115.484610739     A.U. after   11 cycles
 E2(B2PLYPD3) =    -0.1525462102D+00 E(B2PLYPD3) =    -0.11563715694942D+03

 The electronic state is 1-A.
 Alpha  occ. eigenvalues --  -19.74697 -10.63138  -1.12603  -0.79139  -0.55664
 Alpha  occ. eigenvalues --   -0.52271  -0.49266  -0.39496  -0.35144
 Alpha virt. eigenvalues --    0.01212   0.07361   0.12612   0.13097   0.15113
 Alpha virt. eigenvalues --    0.17394   0.18566   0.24590   0.29496   0.33711
 Alpha virt. eigenvalues --    0.34939   0.38435   0.39348   0.42545   0.44391

 Mulliken charges:
               1
     1  C    0.085847
     2  O   -0.491312
     3  H    0.050862
     4  H    0.041256
     5  H    0.058459
     6  H    0.254888
 Sum of Mulliken charges =   0.00000

 Dipole moment (field-independent basis, Debye):
    X=              0.7392    Y=              1.7169    Z=              0.0827  Tot=              1.8711
 Quadrupole moment (field-independent basis, Debye-Ang):
   XX=            -12.2444   YY=            -12.0282   ZZ=            -14.0744
   XY=             -2.5874   XZ=             -0.0273   YZ=              0.0851

 Normal termination of Gaussian 09 at Wed Aug 26 23:53:22 2020.
