 Gaussian 09, Revision D.01,
 Gaussian 09:  ES64L-G09RevD.01 24-Apr-2013

 --------------------
 #p B2PLYPD3/Def2QZVP
 --------------------

 --------
 methanol
 --------
 Symbolic Z-matrix:
 Charge =  0 Multiplicity = 1

                         Standard orientation:
 ---------------------------------------------------------------------
 Center     Atomic      Atomic             Coordinates (Angstroms)
 Number     Number       Type             X           Y           Z
 ---------------------------------------------------------------------
      1          6           0        0.682870    0.033967   -0.014404
      2          8           0       -0.748313   -0.146534    0.015873
      3          1           0        1.065906    0.575211    0.842749
      4          1           0        1.013481    0.474474   -0.828579
      5          1           0        1.055009   -0.961476    0.011891
      6          1           0       -1.245111    0.880259   -0.066621
 ---------------------------------------------------------------------

 SCF Done:  E(RB2PLYPD3) =  -115.518196520     A.U. after   11 cycles
 E2(B2PLYPD3) =    -0.1506404916D+00 E(B2PLYPD3) =    -0.11566883701131D+03

 The electronic state is 1-A.
 Alpha  occ. eigenvalues --  -19.73751 -10.63952  -1.12422  -0.79048  -0.56571
 Alpha  occ. eigenvalues --   -0.52063  -0.48653  -0.40679  -0.35278
 Alpha virt. eigenvalues --    0.03369   0.07646   0.12424   0.12738   0.14999
 Alpha virt. eigenvalues --    0.17022   0.18342   0.28182   0.29622   0.33301
 Alpha virt. eigenvalues --    0.33715   0.38797   0.39298   0.41712   0.44928

 Mulliken charges:
               1
     1  C    0.081053
     2  O   -0.501184
     3  H    0.048461
     4  H    0.053962
     5  H    0.067680
     6  H    0.250028
 Sum of Mulliken charges =   0.00000

 Dipole moment (field-independent basis, Debye):
    X=              0.9077    Y=              1.6395    Z=             -0.2146  Tot=              1.8862
 Quadrupole moment (field-independent basis, Debye-Ang):
   XX=            -12.7006   YY=            -11.9882   ZZ=            -13.8818
   XY=             -2.3964   XZ=              0.1118   YZ=             -0.1418

 Normal termination of Gaussian 09 at Wed Aug 26 11:47:44 2020.
