 Gaussian 09, Revision D.01,
 Gaussian 09:  ES64L-G09RevD.01 24-Apr-2013

 --------------------
 #p B2PLYPD3/Def2QZVP
 --------------------

 --------
 methanol
 --------
 Symbolic Z-matrix:
 Charge =  0 Multiplicity = 1

                         Standard orientation:
 ---------------------------------------------------------------------
 Center     Atomic      Atomic             Coordinates (Angstroms)
 Number     Number       Type             X           Y           Z
 ---------------------------------------------------------------------
      1          6           0        0.675861    0.002918    0.011684
      2          8           0       -0.756455    0.086183   -0.017774
      3          1           0        1.078303   -0.739675   -0.841172
      4          1           0        1.021568   -0.397324    0.990685
      5          1           0        1.018780    1.025600   -0.162003
      6          1           0       -1.122177   -0.595577    0.084575
 ---------------------------------------------------------------------

 SCF Done:  E(RB2PLYPD3) =  -115.500710860     A.U. after   10 cycles
 E2(B2PLYPD3) =    -0.1449451926D+00 E(B2PLYPD3) =    -0.11564565605292D+03

 The electronic state is 1-A.
 Alpha  occ. eigenvalues --  -19.70573 -10.67635  -1.20442  -0.80307  -0.60536
 Alpha  occ. eigenvalues --   -0.50915  -0.50294  -0.41418  -0.35539
 Alpha virt. eigenvalues --    0.05376   0.08839   0.11874   0.12177   0.14725
 Alpha virt. eigenvalues --    0.16844   0.17719   0.28965   0.32359   0.32794
 Alpha virt. eigenvalues --    0.36651   0.39259   0.39814   0.40015   0.42427

 Mulliken charges:
               1
     1  C    0.062286
     2  O   -0.341547
     3  H    0.038214
     4  H    0.054655
     5  H    0.087116
     6  H    0.099276
 Sum of Mulliken charges =   0.00000

 Dipole moment (field-independent basis, Debye):
    X=              0.9220    Y=             -1.2352    Z=              0.2762  Tot=              1.5659
 Quadrupole moment (field-independent basis, Debye-Ang):
   XX=            -13.0906   YY=            -12.3660   ZZ=            -13.6927
   XY=              2.0344   XZ=             -0.2377   YZ=             -0.2292

 Normal termination of Gaussian 09 at Wed Aug 26 13:47:26 2020.
