 Gaussian 09, Revision D.01,
 Gaussian 09:  ES64L-G09RevD.01 24-Apr-2013

 --------------------
 #p B2PLYPD3/Def2QZVP
 --------------------

 --------
 methanol
 --------
 Symbolic Z-matrix:
 Charge =  0 Multiplicity = 1

                         Standard orientation:
 ---------------------------------------------------------------------
 Center     Atomic      Atomic             Coordinates (Angstroms)
 Number     Number       Type             X           Y           Z
 ---------------------------------------------------------------------
      1          6           0        0.674580    0.026216    0.000819
      2          8           0       -0.747096   -0.145612    0.000846
      3          1           0        1.005746    0.506598    0.878569
      4          1           0        1.050557    0.532180   -0.840046
      5          1           0        1.064638   -0.922818   -0.026229
      6          1           0       -1.191649    0.891643   -0.023972
 ---------------------------------------------------------------------

 SCF Done:  E(RB2PLYPD3) =  -115.526220184     A.U. after   11 cycles
 E2(B2PLYPD3) =    -0.1501997891D+00 E(B2PLYPD3) =    -0.11567641997304D+03

 The electronic state is 1-A.
 Alpha  occ. eigenvalues --  -19.73709 -10.63874  -1.13047  -0.78888  -0.56454
 Alpha  occ. eigenvalues --   -0.52239  -0.49336  -0.40846  -0.35231
 Alpha virt. eigenvalues --    0.03500   0.07779   0.12587   0.12681   0.14852
 Alpha virt. eigenvalues --    0.17238   0.18354   0.28389   0.29833   0.33380
 Alpha virt. eigenvalues --    0.33896   0.39066   0.40120   0.42053   0.43864

 Mulliken charges:
               1
     1  C    0.080505
     2  O   -0.495311
     3  H    0.049424
     4  H    0.046806
     5  H    0.067899
     6  H    0.250677
 Sum of Mulliken charges =   0.00000

 Dipole moment (field-independent basis, Debye):
    X=              0.9421    Y=              1.6164    Z=             -0.0465  Tot=              1.8715
 Quadrupole moment (field-independent basis, Debye-Ang):
   XX=            -12.9082   YY=            -11.9671   ZZ=            -13.8256
   XY=             -2.4225   XZ=             -0.0025   YZ=             -0.0208

 Normal termination of Gaussian 09 at Thu Aug 27 00:08:40 2020.
