 Gaussian 09, Revision D.01,
 Gaussian 09:  ES64L-G09RevD.01 24-Apr-2013

 --------------------
 #p B2PLYPD3/Def2QZVP
 --------------------

 --------
 methanol
 --------
 Symbolic Z-matrix:
 Charge =  0 Multiplicity = 1

                         Standard orientation:
 ---------------------------------------------------------------------
 Center     Atomic      Atomic             Coordinates (Angstroms)
 Number     Number       Type             X           Y           Z
 ---------------------------------------------------------------------
      1          6           0       -0.694189   -0.000068   -0.006256
      2          8           0        0.736591   -0.025109    0.051940
      3          1           0       -0.999537   -0.801629   -0.826608
      4          1           0       -0.972685    1.198502   -0.215952
      5          1           0       -0.965497   -0.344211    0.998622
      6          1           0        1.210121    0.148621   -0.334049
 ---------------------------------------------------------------------

 SCF Done:  E(RB2PLYPD3) =  -115.282968258     A.U. after   11 cycles
 E2(B2PLYPD3) =    -0.1438589595D+00 E(B2PLYPD3) =    -0.11542682721745D+03

 The electronic state is 1-A.
 Alpha  occ. eigenvalues --  -19.67516 -10.69891  -1.24791  -0.84067  -0.60189
 Alpha  occ. eigenvalues --   -0.51570  -0.51048  -0.38304  -0.35512
 Alpha virt. eigenvalues --    0.05096   0.09544   0.11100   0.12203   0.13341
 Alpha virt. eigenvalues --    0.16235   0.17677   0.28976   0.30347   0.32268
 Alpha virt. eigenvalues --    0.35007   0.37772   0.39365   0.41269   0.42634

 Mulliken charges:
               1
     1  C    0.057115
     2  O   -0.207232
     3  H    0.061246
     4  H    0.050009
     5  H    0.102742
     6  H   -0.063880
 Sum of Mulliken charges =   0.00000

 Dipole moment (field-independent basis, Debye):
    X=             -0.7916    Y=              0.3246    Z=             -0.8155  Tot=              1.1820
 Quadrupole moment (field-independent basis, Debye-Ang):
   XX=            -12.7714   YY=            -13.1021   ZZ=            -12.9578
   XY=              0.8285   XZ=             -1.6477   YZ=             -0.1767

 Normal termination of Gaussian 09 at Wed Aug 26 22:28:44 2020.
