 Gaussian 09, Revision D.01,
 Gaussian 09:  ES64L-G09RevD.01 24-Apr-2013

 --------------------
 #p B2PLYPD3/Def2QZVP
 --------------------

 --------
 methanol
 --------
 Symbolic Z-matrix:
 Charge =  0 Multiplicity = 1

                         Standard orientation:
 ---------------------------------------------------------------------
 Center     Atomic      Atomic             Coordinates (Angstroms)
 Number     Number       Type             X           Y           Z
 ---------------------------------------------------------------------
      1          6           0       -0.672314   -0.024013    0.008092
      2          8           0        0.743145    0.133369   -0.012678
      3          1           0       -1.017197   -0.410610    0.889123
      4          1           0       -1.021501   -0.656829   -0.810781
      5          1           0       -1.042491    0.970673   -0.096733
      6          1           0        1.169916   -0.826105    0.071265
 ---------------------------------------------------------------------

 SCF Done:  E(RB2PLYPD3) =  -115.540738938     A.U. after   11 cycles
 E2(B2PLYPD3) =    -0.1487479901D+00 E(B2PLYPD3) =    -0.11568948692831D+03

 The electronic state is 1-A.
 Alpha  occ. eigenvalues --  -19.73102 -10.64447  -1.14262  -0.78737  -0.57735
 Alpha  occ. eigenvalues --   -0.52158  -0.49281  -0.41043  -0.35228
 Alpha virt. eigenvalues --    0.04297   0.08029   0.12393   0.12618   0.15012
 Alpha virt. eigenvalues --    0.17080   0.18149   0.29124   0.31856   0.33433
 Alpha virt. eigenvalues --    0.33947   0.38909   0.39543   0.41799   0.44602

 Mulliken charges:
               1
     1  C    0.077603
     2  O   -0.484515
     3  H    0.051527
     4  H    0.043657
     5  H    0.069322
     6  H    0.242407
 Sum of Mulliken charges =   0.00000

 Dipole moment (field-independent basis, Debye):
    X=             -0.8948    Y=             -1.5800    Z=              0.1972  Tot=              1.8264
 Quadrupole moment (field-independent basis, Debye-Ang):
   XX=            -13.0040   YY=            -12.0093   ZZ=            -13.8148
   XY=             -2.2942   XZ=              0.1183   YZ=             -0.1277

 Normal termination of Gaussian 09 at Wed Aug 26 23:47:51 2020.
