 Gaussian 09, Revision D.01,
 Gaussian 09:  ES64L-G09RevD.01 24-Apr-2013

 --------------------
 #p B2PLYPD3/Def2QZVP
 --------------------

 --------
 methanol
 --------
 Symbolic Z-matrix:
 Charge =  0 Multiplicity = 1

                         Standard orientation:
 ---------------------------------------------------------------------
 Center     Atomic      Atomic             Coordinates (Angstroms)
 Number     Number       Type             X           Y           Z
 ---------------------------------------------------------------------
      1          6           0        0.658026    0.002043    0.020217
      2          8           0       -0.752648   -0.063690   -0.045013
      3          1           0        1.053736   -0.068233    1.095306
      4          1           0        1.073092    1.029487   -0.546634
      5          1           0        1.081028   -0.880447   -0.573176
      6          1           0       -1.134831    0.416450    0.263308
 ---------------------------------------------------------------------

 SCF Done:  E(RB2PLYPD3) =  -115.395807652     A.U. after   11 cycles
 E2(B2PLYPD3) =    -0.1440976996D+00 E(B2PLYPD3) =    -0.11553990535142D+03

 The electronic state is 1-A.
 Alpha  occ. eigenvalues --  -19.69829 -10.69178  -1.24674  -0.81837  -0.61667
 Alpha  occ. eigenvalues --   -0.51089  -0.50518  -0.40195  -0.35915
 Alpha virt. eigenvalues --    0.05297   0.09074   0.11523   0.12097   0.14321
 Alpha virt. eigenvalues --    0.16904   0.18048   0.28531   0.32314   0.33072
 Alpha virt. eigenvalues --    0.35373   0.37862   0.38968   0.40656   0.42317

 Mulliken charges:
               1
     1  C    0.047771
     2  O   -0.231889
     3  H    0.057452
     4  H    0.036734
     5  H    0.084255
     6  H    0.005677
 Sum of Mulliken charges =   0.00000

 Dipole moment (field-independent basis, Debye):
    X=              0.8041    Y=              0.8683    Z=              0.6872  Tot=              1.3685
 Quadrupole moment (field-independent basis, Debye-Ang):
   XX=            -12.8778   YY=            -13.0716   ZZ=            -13.2946
   XY=             -1.7558   XZ=             -0.9842   YZ=              0.3842

 Normal termination of Gaussian 09 at Wed Aug 26 13:53:14 2020.
