 Gaussian 09, Revision D.01,
 Gaussian 09:  ES64L-G09RevD.01 24-Apr-2013

 --------------------
 #p B2PLYPD3/Def2QZVP
 --------------------

 --------
 methanol
 --------
 Symbolic Z-matrix:
 Charge =  0 Multiplicity = 1

                         Standard orientation:
 ---------------------------------------------------------------------
 Center     Atomic      Atomic             Coordinates (Angstroms)
 Number     Number       Type             X           Y           Z
 ---------------------------------------------------------------------
      1          6           0        0.654123   -0.027153    0.022895
      2          8           0       -0.742272    0.112471   -0.015355
      3          1           0        1.041795   -0.680877   -0.856675
      4          1           0        1.031414   -0.419321    0.910726
      5          1           0        1.107090    1.029151   -0.135412
      6          1           0       -1.166862   -0.665805    0.066833
 ---------------------------------------------------------------------

 SCF Done:  E(RB2PLYPD3) =  -115.541311579     A.U. after   10 cycles
 E2(B2PLYPD3) =    -0.1461938202D+00 E(B2PLYPD3) =    -0.11568750539916D+03

 The electronic state is 1-A.
 Alpha  occ. eigenvalues --  -19.72061 -10.66619  -1.18178  -0.79062  -0.60421
 Alpha  occ. eigenvalues --   -0.51758  -0.49667  -0.40360  -0.35512
 Alpha virt. eigenvalues --    0.05211   0.08377   0.12102   0.12366   0.14924
 Alpha virt. eigenvalues --    0.17210   0.18159   0.29034   0.33086   0.34089
 Alpha virt. eigenvalues --    0.36272   0.37898   0.38934   0.41459   0.43278

 Mulliken charges:
               1
     1  C    0.063735
     2  O   -0.420407
     3  H    0.037799
     4  H    0.059379
     5  H    0.064588
     6  H    0.194906
 Sum of Mulliken charges =   0.00000

 Dipole moment (field-independent basis, Debye):
    X=              0.7209    Y=             -1.4349    Z=              0.2624  Tot=              1.6271
 Quadrupole moment (field-independent basis, Debye-Ang):
   XX=            -12.8329   YY=            -12.5141   ZZ=            -13.7818
   XY=              2.1719   XZ=             -0.0952   YZ=             -0.2022

 Normal termination of Gaussian 09 at Wed Aug 26 15:15:54 2020.
