 Gaussian 09, Revision D.01,
 Gaussian 09:  ES64L-G09RevD.01 24-Apr-2013

 --------------------
 #p B2PLYPD3/Def2QZVP
 --------------------

 --------
 methanol
 --------
 Symbolic Z-matrix:
 Charge =  0 Multiplicity = 1

                         Standard orientation:
 ---------------------------------------------------------------------
 Center     Atomic      Atomic             Coordinates (Angstroms)
 Number     Number       Type             X           Y           Z
 ---------------------------------------------------------------------
      1          6           0       -0.659583    0.036293   -0.017093
      2          8           0        0.736092   -0.167804    0.013039
      3          1           0       -1.049767    0.429890   -0.795270
      4          1           0       -1.020947    0.609386    0.804120
      5          1           0       -1.100792   -0.896733    0.062008
      6          1           0        1.240265    0.982131   -0.072608
 ---------------------------------------------------------------------

 SCF Done:  E(RB2PLYPD3) =  -115.483036434     A.U. after   11 cycles
 E2(B2PLYPD3) =    -0.1524322019D+00 E(B2PLYPD3) =    -0.11563546863581D+03

 The electronic state is 1-A.
 Alpha  occ. eigenvalues --  -19.74712 -10.62714  -1.12709  -0.79545  -0.55927
 Alpha  occ. eigenvalues --   -0.52390  -0.49369  -0.40100  -0.35188
 Alpha virt. eigenvalues --    0.01384   0.07535   0.12671   0.12943   0.15051
 Alpha virt. eigenvalues --    0.17437   0.18535   0.24828   0.29516   0.33596
 Alpha virt. eigenvalues --    0.34860   0.38949   0.39157   0.42318   0.45254

 Mulliken charges:
               1
     1  C    0.090832
     2  O   -0.486921
     3  H    0.047397
     4  H    0.039219
     5  H    0.058107
     6  H    0.251366
 Sum of Mulliken charges =   0.00000

 Dipole moment (field-independent basis, Debye):
    X=             -0.8845    Y=              1.7031    Z=             -0.2103  Tot=              1.9306
 Quadrupole moment (field-independent basis, Debye-Ang):
   XX=            -12.7013   YY=            -11.8199   ZZ=            -13.9778
   XY=              2.4941   XZ=             -0.0386   YZ=             -0.1541

 Normal termination of Gaussian 09 at Wed Aug 26 10:50:35 2020.
