 Gaussian 09, Revision D.01,
 Gaussian 09:  ES64L-G09RevD.01 24-Apr-2013

 --------------------
 #p B2PLYPD3/Def2QZVP
 --------------------

 --------
 methanol
 --------
 Symbolic Z-matrix:
 Charge =  0 Multiplicity = 1

                         Standard orientation:
 ---------------------------------------------------------------------
 Center     Atomic      Atomic             Coordinates (Angstroms)
 Number     Number       Type             X           Y           Z
 ---------------------------------------------------------------------
      1          6           0        0.667135   -0.014824   -0.005986
      2          8           0       -0.723783    0.085457   -0.003877
      3          1           0        0.916052   -0.666369   -0.898462
      4          1           0        0.898913   -0.539486    0.995940
      5          1           0        1.072696    1.068578   -0.048012
      6          1           0       -1.100209   -0.457436    0.017464
 ---------------------------------------------------------------------

 SCF Done:  E(RB2PLYPD3) =  -115.356913357     A.U. after   11 cycles
 E2(B2PLYPD3) =    -0.1430133448D+00 E(B2PLYPD3) =    -0.11549992670182D+03

 The electronic state is 1-A.
 Alpha  occ. eigenvalues --  -19.68393 -10.68040  -1.25713  -0.82895  -0.61449
 Alpha  occ. eigenvalues --   -0.52487  -0.51232  -0.40077  -0.35387
 Alpha virt. eigenvalues --    0.05332   0.09692   0.11798   0.11936   0.14270
 Alpha virt. eigenvalues --    0.16684   0.17083   0.28733   0.32419   0.33014
 Alpha virt. eigenvalues --    0.37243   0.38679   0.39310   0.40852   0.43823

 Mulliken charges:
               1
     1  C    0.062797
     2  O   -0.215709
     3  H    0.047684
     4  H    0.043611
     5  H    0.085228
     6  H   -0.023610
 Sum of Mulliken charges =   0.00000

 Dipole moment (field-independent basis, Debye):
    X=              0.7911    Y=             -1.1505    Z=              0.0234  Tot=              1.3964
 Quadrupole moment (field-independent basis, Debye-Ang):
   XX=            -13.2181   YY=            -12.4261   ZZ=            -13.4371
   XY=              2.0126   XZ=             -0.1286   YZ=              0.0195

 Normal termination of Gaussian 09 at Wed Aug 26 22:31:53 2020.
