 Gaussian 09, Revision D.01,
 Gaussian 09:  ES64L-G09RevD.01 24-Apr-2013

 --------------------
 #p B2PLYPD3/Def2QZVP
 --------------------

 --------
 methanol
 --------
 Symbolic Z-matrix:
 Charge =  0 Multiplicity = 1

                         Standard orientation:
 ---------------------------------------------------------------------
 Center     Atomic      Atomic             Coordinates (Angstroms)
 Number     Number       Type             X           Y           Z
 ---------------------------------------------------------------------
      1          6           0        0.665144    0.022721   -0.002381
      2          8           0       -0.739997   -0.143253    0.000663
      3          1           0        1.022823    0.519804    0.874125
      4          1           0        1.058258    0.539944   -0.836784
      5          1           0        1.055300   -0.929129   -0.012975
      6          1           0       -1.207274    0.879080   -0.015389
 ---------------------------------------------------------------------

 SCF Done:  E(RB2PLYPD3) =  -115.528286353     A.U. after   11 cycles
 E2(B2PLYPD3) =    -0.1499185986D+00 E(B2PLYPD3) =    -0.11567820495213D+03

 The electronic state is 1-A.
 Alpha  occ. eigenvalues --  -19.73745 -10.64014  -1.13663  -0.78634  -0.56945
 Alpha  occ. eigenvalues --   -0.51792  -0.49772  -0.40738  -0.35059
 Alpha virt. eigenvalues --    0.03504   0.07777   0.12636   0.12707   0.15034
 Alpha virt. eigenvalues --    0.17200   0.18348   0.28507   0.29872   0.33492
 Alpha virt. eigenvalues --    0.34433   0.38958   0.39973   0.41730   0.43908

 Mulliken charges:
               1
     1  C    0.076684
     2  O   -0.488144
     3  H    0.045088
     4  H    0.044983
     5  H    0.069007
     6  H    0.252381
 Sum of Mulliken charges =   0.00000

 Dipole moment (field-independent basis, Debye):
    X=              0.8377    Y=              1.6037    Z=             -0.0376  Tot=              1.8097
 Quadrupole moment (field-independent basis, Debye-Ang):
   XX=            -12.8159   YY=            -11.9941   ZZ=            -13.9110
   XY=             -2.4326   XZ=             -0.0137   YZ=             -0.0284

 Normal termination of Gaussian 09 at Thu Aug 27 00:11:42 2020.
