 Gaussian 09, Revision D.01,
 Gaussian 09:  ES64L-G09RevD.01 24-Apr-2013

 --------------------
 #p B2PLYPD3/Def2QZVP
 --------------------

 --------
 methanol
 --------
 Symbolic Z-matrix:
 Charge =  0 Multiplicity = 1

                         Standard orientation:
 ---------------------------------------------------------------------
 Center     Atomic      Atomic             Coordinates (Angstroms)
 Number     Number       Type             X           Y           Z
 ---------------------------------------------------------------------
      1          6           0       -0.683274    0.001429    0.012744
      2          8           0        0.769986   -0.170913   -0.011754
      3          1           0       -1.241321    0.564232   -0.735578
      4          1           0       -1.027319    0.552574    0.750028
      5          1           0       -1.042458   -0.882616    0.009517
      6          1           0        1.250855    1.124539   -0.006394
 ---------------------------------------------------------------------

 SCF Done:  E(RB2PLYPD3) =  -115.436349459     A.U. after   11 cycles
 E2(B2PLYPD3) =    -0.1566142265D+00 E(B2PLYPD3) =    -0.11559296368576D+03

 The electronic state is 1-A.
 Alpha  occ. eigenvalues --  -19.75835 -10.62959  -1.10543  -0.80461  -0.56374
 Alpha  occ. eigenvalues --   -0.49681  -0.48098  -0.40855  -0.34869
 Alpha virt. eigenvalues --   -0.01003   0.07071   0.12257   0.13296   0.14722
 Alpha virt. eigenvalues --    0.17496   0.18321   0.22464   0.29187   0.32363
 Alpha virt. eigenvalues --    0.33850   0.37720   0.38589   0.41084   0.44457

 Mulliken charges:
               1
     1  C    0.091856
     2  O   -0.488206
     3  H    0.033171
     4  H    0.046291
     5  H    0.073874
     6  H    0.243014
 Sum of Mulliken charges =   0.00000

 Dipole moment (field-independent basis, Debye):
    X=             -1.0956    Y=              1.7490    Z=              0.1142  Tot=              2.0670
 Quadrupole moment (field-independent basis, Debye-Ang):
   XX=            -12.7366   YY=            -11.2466   ZZ=            -14.5122
   XY=              2.4075   XZ=             -0.0058   YZ=              0.1013

 Normal termination of Gaussian 09 at Wed Aug 26 23:32:31 2020.
