 Gaussian 09, Revision D.01,
 Gaussian 09:  ES64L-G09RevD.01 24-Apr-2013

 --------------------
 #p B2PLYPD3/Def2QZVP
 --------------------

 --------
 methanol
 --------
 Symbolic Z-matrix:
 Charge =  0 Multiplicity = 1

                         Standard orientation:
 ---------------------------------------------------------------------
 Center     Atomic      Atomic             Coordinates (Angstroms)
 Number     Number       Type             X           Y           Z
 ---------------------------------------------------------------------
      1          6           0        0.666503   -0.024016    0.006289
      2          8           0       -0.751611    0.102811   -0.006702
      3          1           0        0.987593   -0.676876   -0.852808
      4          1           0        1.043103   -0.436164    0.931385
      5          1           0        1.082882    1.060970   -0.120821
      6          1           0       -1.099712   -0.626318    0.058122
 ---------------------------------------------------------------------

 SCF Done:  E(RB2PLYPD3) =  -115.520122110     A.U. after   10 cycles
 E2(B2PLYPD3) =    -0.1451641083D+00 E(B2PLYPD3) =    -0.11566528621800D+03

 The electronic state is 1-A.
 Alpha  occ. eigenvalues --  -19.71017 -10.67033  -1.19989  -0.79641  -0.60743
 Alpha  occ. eigenvalues --   -0.51998  -0.49366  -0.41135  -0.35865
 Alpha virt. eigenvalues --    0.05337   0.08844   0.11889   0.12232   0.14796
 Alpha virt. eigenvalues --    0.17091   0.17812   0.29001   0.32721   0.33365
 Alpha virt. eigenvalues --    0.36841   0.38494   0.39929   0.40877   0.42765

 Mulliken charges:
               1
     1  C    0.064015
     2  O   -0.366523
     3  H    0.048325
     4  H    0.056594
     5  H    0.068700
     6  H    0.128890
 Sum of Mulliken charges =   0.00000

 Dipole moment (field-independent basis, Debye):
    X=              0.9190    Y=             -1.4055    Z=              0.1639  Tot=              1.6872
 Quadrupole moment (field-independent basis, Debye-Ang):
   XX=            -13.1537   YY=            -12.3506   ZZ=            -13.6708
   XY=              2.0079   XZ=             -0.0735   YZ=             -0.1032

 Normal termination of Gaussian 09 at Thu Aug 27 00:11:27 2020.
