 Gaussian 09, Revision D.01,
 Gaussian 09:  ES64L-G09RevD.01 24-Apr-2013

 --------------------
 #p B2PLYPD3/Def2QZVP
 --------------------

 --------
 methanol
 --------
 Symbolic Z-matrix:
 Charge =  0 Multiplicity = 1

                         Standard orientation:
 ---------------------------------------------------------------------
 Center     Atomic      Atomic             Coordinates (Angstroms)
 Number     Number       Type             X           Y           Z
 ---------------------------------------------------------------------
      1          6           0        0.688981    0.031557    0.010768
      2          8           0       -0.719827   -0.203389   -0.006147
      3          1           0        1.110877    0.370418    0.720365
      4          1           0        0.868924    0.745639   -0.690407
      5          1           0        0.991001   -0.824977   -0.146056
      6          1           0       -1.346074    1.146690    0.100659
 ---------------------------------------------------------------------

 SCF Done:  E(RB2PLYPD3) =  -115.374577555     A.U. after   12 cycles
 E2(B2PLYPD3) =    -0.1576648061D+00 E(B2PLYPD3) =    -0.11553224236084D+03

 The electronic state is 1-A.
 Alpha  occ. eigenvalues --  -19.75378 -10.60422  -1.11313  -0.81576  -0.57657
 Alpha  occ. eigenvalues --   -0.53213  -0.47730  -0.39049  -0.34830
 Alpha virt. eigenvalues --   -0.02941   0.07535   0.12420   0.13247   0.14653
 Alpha virt. eigenvalues --    0.16982   0.18232   0.21390   0.29533   0.32184
 Alpha virt. eigenvalues --    0.34617   0.37575   0.39815   0.43770   0.47121

 Mulliken charges:
               1
     1  C    0.079403
     2  O   -0.474564
     3  H    0.058208
     4  H    0.039309
     5  H    0.082597
     6  H    0.215047
 Sum of Mulliken charges =   0.00000

 Dipole moment (field-independent basis, Debye):
    X=              1.0710    Y=              1.7095    Z=              0.2005  Tot=              2.0272
 Quadrupole moment (field-independent basis, Debye-Ang):
   XX=            -12.6426   YY=            -11.2268   ZZ=            -14.1269
   XY=             -2.5352   XZ=              0.1041   YZ=              0.1746

 Normal termination of Gaussian 09 at Wed Aug 26 23:35:08 2020.
