 Gaussian 09, Revision D.01,
 Gaussian 09:  ES64L-G09RevD.01 24-Apr-2013

 --------------------
 #p B2PLYPD3/Def2QZVP
 --------------------

 --------
 methanol
 --------
 Symbolic Z-matrix:
 Charge =  0 Multiplicity = 1

                         Standard orientation:
 ---------------------------------------------------------------------
 Center     Atomic      Atomic             Coordinates (Angstroms)
 Number     Number       Type             X           Y           Z
 ---------------------------------------------------------------------
      1          6           0       -0.654476    0.006738    0.008801
      2          8           0        0.717175   -0.174025   -0.025865
      3          1           0       -1.022275    0.614091   -0.794316
      4          1           0       -0.871915    0.463665    0.804622
      5          1           0       -1.035069   -0.812713    0.041030
      6          1           0        1.118718    1.086727    0.102775
 ---------------------------------------------------------------------

 SCF Done:  E(RB2PLYPD3) =  -115.433112763     A.U. after   11 cycles
 E2(B2PLYPD3) =    -0.1532835217D+00 E(B2PLYPD3) =    -0.11558639628469D+03

 The electronic state is 1-A.
 Alpha  occ. eigenvalues --  -19.74565 -10.60836  -1.13536  -0.80174  -0.57525
 Alpha  occ. eigenvalues --   -0.53033  -0.49917  -0.40280  -0.34552
 Alpha virt. eigenvalues --   -0.00094   0.07857   0.12719   0.12907   0.14882
 Alpha virt. eigenvalues --    0.17425   0.18186   0.23624   0.29583   0.32874
 Alpha virt. eigenvalues --    0.35528   0.39020   0.41580   0.42225   0.45528

 Mulliken charges:
               1
     1  C    0.081843
     2  O   -0.477491
     3  H    0.035422
     4  H    0.040082
     5  H    0.078707
     6  H    0.241437
 Sum of Mulliken charges =   0.00000

 Dipole moment (field-independent basis, Debye):
    X=             -1.0401    Y=              1.6813    Z=              0.3140  Tot=              2.0018
 Quadrupole moment (field-independent basis, Debye-Ang):
   XX=            -13.4188   YY=            -11.2665   ZZ=            -13.8321
   XY=              2.4073   XZ=              0.1465   YZ=              0.1697

 Normal termination of Gaussian 09 at Wed Aug 26 18:41:58 2020.
