 Gaussian 09, Revision D.01,
 Gaussian 09:  ES64L-G09RevD.01 24-Apr-2013

 --------------------
 #p B2PLYPD3/Def2QZVP
 --------------------

 --------
 methanol
 --------
 Symbolic Z-matrix:
 Charge =  0 Multiplicity = 1

                         Standard orientation:
 ---------------------------------------------------------------------
 Center     Atomic      Atomic             Coordinates (Angstroms)
 Number     Number       Type             X           Y           Z
 ---------------------------------------------------------------------
      1          6           0       -0.692923   -0.021224    0.012026
      2          8           0        0.759603    0.084033   -0.010617
      3          1           0       -1.011484   -0.438680    0.996125
      4          1           0       -0.992158   -0.671754   -0.916707
      5          1           0       -1.068372    1.062980   -0.130284
      6          1           0        1.152727   -0.497467    0.063648
 ---------------------------------------------------------------------

 SCF Done:  E(RB2PLYPD3) =  -115.426672609     A.U. after   11 cycles
 E2(B2PLYPD3) =    -0.1442611126D+00 E(B2PLYPD3) =    -0.11557093372212D+03

 The electronic state is 1-A.
 Alpha  occ. eigenvalues --  -19.69077 -10.68529  -1.22288  -0.81229  -0.60577
 Alpha  occ. eigenvalues --   -0.51606  -0.49708  -0.40279  -0.36030
 Alpha virt. eigenvalues --    0.05375   0.09135   0.11725   0.11928   0.14087
 Alpha virt. eigenvalues --    0.16716   0.17703   0.28853   0.30953   0.33058
 Alpha virt. eigenvalues --    0.36683   0.37951   0.39664   0.40432   0.42431

 Mulliken charges:
               1
     1  C    0.061559
     2  O   -0.280197
     3  H    0.064350
     4  H    0.054826
     5  H    0.084061
     6  H    0.015400
 Sum of Mulliken charges =   0.00000

 Dipole moment (field-independent basis, Debye):
    X=             -1.0076    Y=             -1.1957    Z=              0.2006  Tot=              1.5765
 Quadrupole moment (field-independent basis, Debye-Ang):
   XX=            -12.9408   YY=            -12.6123   ZZ=            -13.3819
   XY=             -1.9938   XZ=              0.1656   YZ=             -0.1415

 Normal termination of Gaussian 09 at Wed Aug 26 13:16:31 2020.
