 Gaussian 09, Revision D.01,
 Gaussian 09:  ES64L-G09RevD.01 24-Apr-2013

 --------------------
 #p B2PLYPD3/Def2QZVP
 --------------------

 --------
 methanol
 --------
 Symbolic Z-matrix:
 Charge =  0 Multiplicity = 1

                         Standard orientation:
 ---------------------------------------------------------------------
 Center     Atomic      Atomic             Coordinates (Angstroms)
 Number     Number       Type             X           Y           Z
 ---------------------------------------------------------------------
      1          6           0        0.669545   -0.024393   -0.002669
      2          8           0       -0.759945    0.099058    0.006187
      3          1           0        1.043138   -0.551238   -0.900798
      4          1           0        1.067952   -0.526467    0.925894
      5          1           0        1.064352    1.064485   -0.030322
      6          1           0       -1.113149   -0.632884   -0.028256
 ---------------------------------------------------------------------

 SCF Done:  E(RB2PLYPD3) =  -115.521836722     A.U. after   10 cycles
 E2(B2PLYPD3) =    -0.1454840556D+00 E(B2PLYPD3) =    -0.11566732077710D+03

 The electronic state is 1-A.
 Alpha  occ. eigenvalues --  -19.71221 -10.67331  -1.19623  -0.79505  -0.60482
 Alpha  occ. eigenvalues --   -0.51528  -0.49250  -0.41145  -0.36022
 Alpha virt. eigenvalues --    0.05365   0.08676   0.11959   0.12157   0.14767
 Alpha virt. eigenvalues --    0.17016   0.18064   0.28921   0.32492   0.33402
 Alpha virt. eigenvalues --    0.36916   0.38665   0.39816   0.40048   0.42448

 Mulliken charges:
               1
     1  C    0.058746
     2  O   -0.370285
     3  H    0.055162
     4  H    0.054577
     5  H    0.069614
     6  H    0.132186
 Sum of Mulliken charges =   0.00000

 Dipole moment (field-independent basis, Debye):
    X=              0.9379    Y=             -1.3917    Z=             -0.0908  Tot=              1.6807
 Quadrupole moment (field-independent basis, Debye-Ang):
   XX=            -13.0627   YY=            -12.4272   ZZ=            -13.6796
   XY=              1.9930   XZ=              0.0724   YZ=              0.0497

 Normal termination of Gaussian 09 at Thu Aug 27 00:02:20 2020.
