 Gaussian 09, Revision D.01,
 Gaussian 09:  ES64L-G09RevD.01 24-Apr-2013

 --------------------
 #p B2PLYPD3/Def2QZVP
 --------------------

 --------
 methanol
 --------
 Symbolic Z-matrix:
 Charge =  0 Multiplicity = 1

                         Standard orientation:
 ---------------------------------------------------------------------
 Center     Atomic      Atomic             Coordinates (Angstroms)
 Number     Number       Type             X           Y           Z
 ---------------------------------------------------------------------
      1          6           0        0.663432   -0.011531    0.006275
      2          8           0       -0.752744    0.096556   -0.010376
      3          1           0        1.092066   -0.654267   -0.871109
      4          1           0        1.036789   -0.451941    0.973257
      5          1           0        1.063112    1.027257   -0.095113
      6          1           0       -1.150607   -0.624311    0.038328
 ---------------------------------------------------------------------

 SCF Done:  E(RB2PLYPD3) =  -115.526121752     A.U. after   10 cycles
 E2(B2PLYPD3) =    -0.1455063308D+00 E(B2PLYPD3) =    -0.11567162808309D+03

 The electronic state is 1-A.
 Alpha  occ. eigenvalues --  -19.71353 -10.67493  -1.19457  -0.79612  -0.60414
 Alpha  occ. eigenvalues --   -0.50947  -0.50166  -0.40843  -0.35598
 Alpha virt. eigenvalues --    0.05369   0.08580   0.12051   0.12241   0.14780
 Alpha virt. eigenvalues --    0.17010   0.18036   0.28957   0.32978   0.33292
 Alpha virt. eigenvalues --    0.36852   0.39009   0.39359   0.39711   0.42412

 Mulliken charges:
               1
     1  C    0.059374
     2  O   -0.377997
     3  H    0.042866
     4  H    0.051580
     5  H    0.077998
     6  H    0.146179
 Sum of Mulliken charges =   0.00000

 Dipole moment (field-independent basis, Debye):
    X=              0.8134    Y=             -1.3116    Z=              0.1305  Tot=              1.5488
 Quadrupole moment (field-independent basis, Debye-Ang):
   XX=            -12.8933   YY=            -12.4986   ZZ=            -13.7724
   XY=              2.1175   XZ=             -0.1411   YZ=             -0.0981

 Normal termination of Gaussian 09 at Wed Aug 26 23:50:52 2020.
