 Gaussian 09, Revision D.01,
 Gaussian 09:  ES64L-G09RevD.01 24-Apr-2013

 --------------------
 #p B2PLYPD3/Def2QZVP
 --------------------

 --------
 methanol
 --------
 Symbolic Z-matrix:
 Charge =  0 Multiplicity = 1

                         Standard orientation:
 ---------------------------------------------------------------------
 Center     Atomic      Atomic             Coordinates (Angstroms)
 Number     Number       Type             X           Y           Z
 ---------------------------------------------------------------------
      1          6           0        0.645956    0.027674   -0.009918
      2          8           0       -0.732076   -0.157108    0.002017
      3          1           0        1.006771    0.569021    0.822757
      4          1           0        1.068864    0.510576   -0.794779
      5          1           0        1.105158   -0.925142    0.039002
      6          1           0       -1.199921    0.936362   -0.023609
 ---------------------------------------------------------------------

 SCF Done:  E(RB2PLYPD3) =  -115.509742747     A.U. after   11 cycles
 E2(B2PLYPD3) =    -0.1509196427D+00 E(B2PLYPD3) =    -0.11566066238977D+03

 The electronic state is 1-A.
 Alpha  occ. eigenvalues --  -19.74421 -10.63443  -1.14053  -0.78666  -0.56914
 Alpha  occ. eigenvalues --   -0.51973  -0.49900  -0.40366  -0.34939
 Alpha virt. eigenvalues --    0.02417   0.07637   0.12596   0.12967   0.15186
 Alpha virt. eigenvalues --    0.17559   0.18350   0.26485   0.29635   0.33520
 Alpha virt. eigenvalues --    0.35443   0.38948   0.39396   0.42227   0.44602

 Mulliken charges:
               1
     1  C    0.084587
     2  O   -0.477885
     3  H    0.036315
     4  H    0.041668
     5  H    0.059882
     6  H    0.255432
 Sum of Mulliken charges =   0.00000

 Dipole moment (field-independent basis, Debye):
    X=              0.7936    Y=              1.7007    Z=             -0.0700  Tot=              1.8781
 Quadrupole moment (field-independent basis, Debye-Ang):
   XX=            -12.8178   YY=            -11.8614   ZZ=            -14.0653
   XY=             -2.4218   XZ=             -0.0310   YZ=             -0.0766

 Normal termination of Gaussian 09 at Wed Aug 26 11:48:12 2020.
