 Gaussian 09, Revision D.01,
 Gaussian 09:  ES64L-G09RevD.01 24-Apr-2013

 --------------------
 #p B2PLYPD3/Def2QZVP
 --------------------

 --------
 methanol
 --------
 Symbolic Z-matrix:
 Charge =  0 Multiplicity = 1

                         Standard orientation:
 ---------------------------------------------------------------------
 Center     Atomic      Atomic             Coordinates (Angstroms)
 Number     Number       Type             X           Y           Z
 ---------------------------------------------------------------------
      1          6           0        0.669587   -0.015836    0.014390
      2          8           0       -0.750932    0.104117   -0.010390
      3          1           0        1.012412   -0.685783   -0.858757
      4          1           0        0.993268   -0.451784    0.939002
      5          1           0        1.098729    1.029067   -0.124937
      6          1           0       -1.114475   -0.629416    0.041475
 ---------------------------------------------------------------------

 SCF Done:  E(RB2PLYPD3) =  -115.525200174     A.U. after   10 cycles
 E2(B2PLYPD3) =    -0.1452255878D+00 E(B2PLYPD3) =    -0.11567042576137D+03

 The electronic state is 1-A.
 Alpha  occ. eigenvalues --  -19.70997 -10.66950  -1.19474  -0.79688  -0.60431
 Alpha  occ. eigenvalues --   -0.51753  -0.49885  -0.41120  -0.35632
 Alpha virt. eigenvalues --    0.05348   0.08806   0.12043   0.12197   0.14712
 Alpha virt. eigenvalues --    0.17176   0.17692   0.29062   0.32811   0.33023
 Alpha virt. eigenvalues --    0.37272   0.38508   0.39444   0.40987   0.43112

 Mulliken charges:
               1
     1  C    0.068854
     2  O   -0.380976
     3  H    0.041222
     4  H    0.056829
     5  H    0.074850
     6  H    0.139221
 Sum of Mulliken charges =   0.00000

 Dipole moment (field-independent basis, Debye):
    X=              0.9170    Y=             -1.3728    Z=              0.1659  Tot=              1.6592
 Quadrupole moment (field-independent basis, Debye-Ang):
   XX=            -13.0987   YY=            -12.3581   ZZ=            -13.6762
   XY=              2.1162   XZ=             -0.0874   YZ=             -0.1459

 Normal termination of Gaussian 09 at Thu Aug 27 00:05:05 2020.
