 Gaussian 09, Revision D.01,
 Gaussian 09:  ES64L-G09RevD.01 24-Apr-2013

 --------------------
 #p B2PLYPD3/Def2QZVP
 --------------------

 --------
 methanol
 --------
 Symbolic Z-matrix:
 Charge =  0 Multiplicity = 1

                         Standard orientation:
 ---------------------------------------------------------------------
 Center     Atomic      Atomic             Coordinates (Angstroms)
 Number     Number       Type             X           Y           Z
 ---------------------------------------------------------------------
      1          6           0        0.666754    0.046818    0.002478
      2          8           0       -0.731266   -0.171632   -0.003879
      3          1           0        0.959030    0.467751    0.822934
      4          1           0        0.967439    0.540470   -0.798533
      5          1           0        1.104891   -0.902474   -0.025812
      6          1           0       -1.181757    0.986404    0.017577
 ---------------------------------------------------------------------

 SCF Done:  E(RB2PLYPD3) =  -115.484612404     A.U. after   11 cycles
 E2(B2PLYPD3) =    -0.1518996201D+00 E(B2PLYPD3) =    -0.11563651202378D+03

 The electronic state is 1-A.
 Alpha  occ. eigenvalues --  -19.74211 -10.62080  -1.12680  -0.79564  -0.55650
 Alpha  occ. eigenvalues --   -0.54489  -0.48847  -0.40068  -0.35333
 Alpha virt. eigenvalues --    0.01768   0.07769   0.12642   0.12789   0.14813
 Alpha virt. eigenvalues --    0.17554   0.18250   0.25349   0.29450   0.33522
 Alpha virt. eigenvalues --    0.34441   0.39175   0.40157   0.44086   0.44433

 Mulliken charges:
               1
     1  C    0.102016
     2  O   -0.494027
     3  H    0.046469
     4  H    0.044563
     5  H    0.055228
     6  H    0.245751
 Sum of Mulliken charges =   0.00000

 Dipole moment (field-independent basis, Debye):
    X=              1.0100    Y=              1.7394    Z=              0.0465  Tot=              2.0119
 Quadrupole moment (field-independent basis, Debye-Ang):
   XX=            -13.0575   YY=            -11.7228   ZZ=            -13.7410
   XY=             -2.4048   XZ=             -0.0310   YZ=              0.0208

 Normal termination of Gaussian 09 at Wed Aug 26 18:33:13 2020.
