 Gaussian 09, Revision D.01,
 Gaussian 09:  ES64L-G09RevD.01 24-Apr-2013

 --------------------
 #p B2PLYPD3/Def2QZVP
 --------------------

 --------
 methanol
 --------
 Symbolic Z-matrix:
 Charge =  0 Multiplicity = 1

                         Standard orientation:
 ---------------------------------------------------------------------
 Center     Atomic      Atomic             Coordinates (Angstroms)
 Number     Number       Type             X           Y           Z
 ---------------------------------------------------------------------
      1          6           0       -0.659587   -0.016438   -0.001869
      2          8           0        0.755112    0.092556   -0.022928
      3          1           0       -1.030887   -0.305468    1.057243
      4          1           0       -0.965175   -0.804799   -0.801674
      5          1           0       -1.181360    0.979320   -0.225855
      6          1           0        1.094049   -0.510874    0.164925
 ---------------------------------------------------------------------

 SCF Done:  E(RB2PLYPD3) =  -115.442932989     A.U. after   11 cycles
 E2(B2PLYPD3) =    -0.1441578347D+00 E(B2PLYPD3) =    -0.11558709082390D+03

 The electronic state is 1-A.
 Alpha  occ. eigenvalues --  -19.70078 -10.68364  -1.23558  -0.80791  -0.61380
 Alpha  occ. eigenvalues --   -0.51756  -0.50514  -0.40544  -0.35966
 Alpha virt. eigenvalues --    0.05372   0.09064   0.11731   0.12252   0.14147
 Alpha virt. eigenvalues --    0.17421   0.17803   0.28566   0.32414   0.33003
 Alpha virt. eigenvalues --    0.36198   0.38276   0.38718   0.40481   0.43501

 Mulliken charges:
               1
     1  C    0.057389
     2  O   -0.269599
     3  H    0.045849
     4  H    0.049009
     5  H    0.079519
     6  H    0.037833
 Sum of Mulliken charges =   0.00000

 Dipole moment (field-independent basis, Debye):
    X=             -0.9363    Y=             -1.1578    Z=              0.3726  Tot=              1.5349
 Quadrupole moment (field-independent basis, Debye-Ang):
   XX=            -13.0209   YY=            -12.7296   ZZ=            -13.5112
   XY=             -2.0714   XZ=              0.5233   YZ=             -0.1812

 Normal termination of Gaussian 09 at Wed Aug 26 14:46:28 2020.
