 Gaussian 09, Revision D.01,
 Gaussian 09:  ES64L-G09RevD.01 24-Apr-2013

 --------------------
 #p B2PLYPD3/Def2QZVP
 --------------------

 --------
 methanol
 --------
 Symbolic Z-matrix:
 Charge =  0 Multiplicity = 1

                         Standard orientation:
 ---------------------------------------------------------------------
 Center     Atomic      Atomic             Coordinates (Angstroms)
 Number     Number       Type             X           Y           Z
 ---------------------------------------------------------------------
      1          6           0       -0.670539    0.009099    0.008952
      2          8           0        0.745584   -0.138267   -0.008513
      3          1           0       -1.039657    0.568543   -0.859801
      4          1           0       -0.992532    0.513134    0.859948
      5          1           0       -1.043785   -0.916259   -0.013890
      6          1           0        1.134540    0.886122    0.028137
 ---------------------------------------------------------------------

 SCF Done:  E(RB2PLYPD3) =  -115.529670148     A.U. after   11 cycles
 E2(B2PLYPD3) =    -0.1494948264D+00 E(B2PLYPD3) =    -0.11567916497439D+03

 The electronic state is 1-A.
 Alpha  occ. eigenvalues --  -19.73480 -10.63895  -1.13825  -0.78956  -0.57317
 Alpha  occ. eigenvalues --   -0.51710  -0.49972  -0.41452  -0.34982
 Alpha virt. eigenvalues --    0.03789   0.07975   0.12534   0.12672   0.14916
 Alpha virt. eigenvalues --    0.17338   0.18066   0.28931   0.30439   0.33300
 Alpha virt. eigenvalues --    0.33903   0.38851   0.40838   0.41344   0.44067

 Mulliken charges:
               1
     1  C    0.082522
     2  O   -0.488081
     3  H    0.039501
     4  H    0.044851
     5  H    0.072981
     6  H    0.248226
 Sum of Mulliken charges =   0.00000

 Dipole moment (field-independent basis, Debye):
    X=             -0.9702    Y=              1.5850    Z=              0.1104  Tot=              1.8617
 Quadrupole moment (field-independent basis, Debye-Ang):
   XX=            -13.1691   YY=            -11.8266   ZZ=            -13.8579
   XY=              2.3597   XZ=              0.0488   YZ=              0.0890

 Normal termination of Gaussian 09 at Thu Aug 27 00:11:41 2020.
