 Gaussian 09, Revision D.01,
 Gaussian 09:  ES64L-G09RevD.01 24-Apr-2013

 --------------------
 #p B2PLYPD3/Def2QZVP
 --------------------

 --------
 methanol
 --------
 Symbolic Z-matrix:
 Charge =  0 Multiplicity = 1

                         Standard orientation:
 ---------------------------------------------------------------------
 Center     Atomic      Atomic             Coordinates (Angstroms)
 Number     Number       Type             X           Y           Z
 ---------------------------------------------------------------------
      1          6           0        0.680770    0.035404    0.002514
      2          8           0       -0.747531   -0.149287   -0.003446
      3          1           0        1.021303    0.463911    0.859730
      4          1           0        0.998161    0.591413   -0.814580
      5          1           0        1.094459   -0.947351   -0.058647
      6          1           0       -1.218291    0.873899    0.025983
 ---------------------------------------------------------------------

 SCF Done:  E(RB2PLYPD3) =  -115.525475217     A.U. after   11 cycles
 E2(B2PLYPD3) =    -0.1501492021D+00 E(B2PLYPD3) =    -0.11567562441948D+03

 The electronic state is 1-A.
 Alpha  occ. eigenvalues --  -19.73553 -10.63858  -1.12692  -0.79004  -0.56372
 Alpha  occ. eigenvalues --   -0.52694  -0.48860  -0.40656  -0.35303
 Alpha virt. eigenvalues --    0.03566   0.07748   0.12486   0.12721   0.14861
 Alpha virt. eigenvalues --    0.17255   0.18213   0.28536   0.29838   0.33268
 Alpha virt. eigenvalues --    0.33667   0.39042   0.39728   0.42658   0.44173

 Mulliken charges:
               1
     1  C    0.086445
     2  O   -0.502078
     3  H    0.051780
     4  H    0.048765
     5  H    0.065607
     6  H    0.249482
 Sum of Mulliken charges =   0.00000

 Dipole moment (field-independent basis, Debye):
    X=              0.9428    Y=              1.6601    Z=              0.0616  Tot=              1.9101
 Quadrupole moment (field-independent basis, Debye-Ang):
   XX=            -12.7897   YY=            -11.9848   ZZ=            -13.8313
   XY=             -2.4174   XZ=             -0.0303   YZ=              0.0343

 Normal termination of Gaussian 09 at Wed Aug 26 10:11:36 2020.
