 Gaussian 09, Revision D.01,
 Gaussian 09:  ES64L-G09RevD.01 24-Apr-2013

 --------------------
 #p B2PLYPD3/Def2QZVP
 --------------------

 --------
 methanol
 --------
 Symbolic Z-matrix:
 Charge =  0 Multiplicity = 1

                         Standard orientation:
 ---------------------------------------------------------------------
 Center     Atomic      Atomic             Coordinates (Angstroms)
 Number     Number       Type             X           Y           Z
 ---------------------------------------------------------------------
      1          6           0        0.689198   -0.023854    0.006720
      2          8           0       -0.777299    0.072006    0.002176
      3          1           0        1.035189   -0.613378   -0.904546
      4          1           0        1.143600   -0.449400    0.921096
      5          1           0        0.945808    1.183182   -0.104969
      6          1           0       -1.041397   -0.553329    0.030691
 ---------------------------------------------------------------------

 SCF Done:  E(RB2PLYPD3) =  -115.382697447     A.U. after   11 cycles
 E2(B2PLYPD3) =    -0.1446983735D+00 E(B2PLYPD3) =    -0.11552739582031D+03

 The electronic state is 1-A.
 Alpha  occ. eigenvalues --  -19.69602 -10.68750  -1.24390  -0.80409  -0.61675
 Alpha  occ. eigenvalues --   -0.51522  -0.47795  -0.41707  -0.36816
 Alpha virt. eigenvalues --    0.05162   0.08845   0.11169   0.11993   0.14808
 Alpha virt. eigenvalues --    0.16534   0.17897   0.28472   0.30199   0.33662
 Alpha virt. eigenvalues --    0.34841   0.38340   0.39184   0.41332   0.41586

 Mulliken charges:
               1
     1  C    0.039601
     2  O   -0.241788
     3  H    0.061461
     4  H    0.070215
     5  H    0.071159
     6  H   -0.000647
 Sum of Mulliken charges =   0.00000

 Dipole moment (field-independent basis, Debye):
    X=              1.1488    Y=             -1.3373    Z=              0.0834  Tot=              1.7650
 Quadrupole moment (field-independent basis, Debye-Ang):
   XX=            -13.3975   YY=            -12.2827   ZZ=            -13.5612
   XY=              1.5370   XZ=              0.0704   YZ=             -0.0685

 Normal termination of Gaussian 09 at Wed Aug 26 23:43:53 2020.
