 Gaussian 09, Revision D.01,
 Gaussian 09:  ES64L-G09RevD.01 24-Apr-2013

 --------------------
 #p B2PLYPD3/Def2QZVP
 --------------------

 --------
 methanol
 --------
 Symbolic Z-matrix:
 Charge =  0 Multiplicity = 1

                         Standard orientation:
 ---------------------------------------------------------------------
 Center     Atomic      Atomic             Coordinates (Angstroms)
 Number     Number       Type             X           Y           Z
 ---------------------------------------------------------------------
      1          6           0        0.681030   -0.014798    0.001528
      2          8           0       -0.756019    0.099944   -0.013587
      3          1           0        1.024936   -0.680650   -0.861189
      4          1           0        1.028607   -0.403146    0.992421
      5          1           0        1.053898    1.002352   -0.119529
      6          1           0       -1.145471   -0.629319    0.087823
 ---------------------------------------------------------------------

 SCF Done:  E(RB2PLYPD3) =  -115.531154227     A.U. after   10 cycles
 E2(B2PLYPD3) =    -0.1455738367D+00 E(B2PLYPD3) =    -0.11567672806389D+03

 The electronic state is 1-A.
 Alpha  occ. eigenvalues --  -19.70996 -10.66980  -1.18421  -0.79732  -0.59590
 Alpha  occ. eigenvalues --   -0.51382  -0.50121  -0.40983  -0.35652
 Alpha virt. eigenvalues --    0.05397   0.08658   0.11991   0.12357   0.14500
 Alpha virt. eigenvalues --    0.16949   0.17975   0.28996   0.32238   0.33201
 Alpha virt. eigenvalues --    0.37272   0.39402   0.39578   0.40060   0.43013

 Mulliken charges:
               1
     1  C    0.066347
     2  O   -0.400903
     3  H    0.050851
     4  H    0.053169
     5  H    0.080272
     6  H    0.150264
 Sum of Mulliken charges =   0.00000

 Dipole moment (field-independent basis, Debye):
    X=              0.9383    Y=             -1.3199    Z=              0.2067  Tot=              1.6326
 Quadrupole moment (field-independent basis, Debye-Ang):
   XX=            -12.9908   YY=            -12.4369   ZZ=            -13.5967
   XY=              2.1504   XZ=             -0.2573   YZ=             -0.1174

 Normal termination of Gaussian 09 at Thu Aug 27 00:07:38 2020.
