 Gaussian 09, Revision D.01,
 Gaussian 09:  ES64L-G09RevD.01 24-Apr-2013

 --------------------
 #p B2PLYPD3/Def2QZVP
 --------------------

 --------
 methanol
 --------
 Symbolic Z-matrix:
 Charge =  0 Multiplicity = 1

                         Standard orientation:
 ---------------------------------------------------------------------
 Center     Atomic      Atomic             Coordinates (Angstroms)
 Number     Number       Type             X           Y           Z
 ---------------------------------------------------------------------
      1          6           0        0.666916   -0.022310   -0.017792
      2          8           0       -0.764163    0.094182    0.011546
      3          1           0        0.974275   -0.567161   -0.924446
      4          1           0        1.127475   -0.498468    0.974138
      5          1           0        1.091399    1.041051   -0.043287
      6          1           0       -1.081342   -0.595018    0.007982
 ---------------------------------------------------------------------

 SCF Done:  E(RB2PLYPD3) =  -115.483898967     A.U. after   10 cycles
 E2(B2PLYPD3) =    -0.1449454070D+00 E(B2PLYPD3) =    -0.11562884437377D+03

 The electronic state is 1-A.
 Alpha  occ. eigenvalues --  -19.70722 -10.67957  -1.21729  -0.79966  -0.60811
 Alpha  occ. eigenvalues --   -0.51645  -0.49608  -0.41214  -0.36131
 Alpha virt. eigenvalues --    0.05385   0.08790   0.11839   0.12072   0.14424
 Alpha virt. eigenvalues --    0.17145   0.18139   0.28638   0.32078   0.33073
 Alpha virt. eigenvalues --    0.36188   0.38312   0.39490   0.40345   0.43035

 Mulliken charges:
               1
     1  C    0.054807
     2  O   -0.312145
     3  H    0.060423
     4  H    0.045933
     5  H    0.073601
     6  H    0.077383
 Sum of Mulliken charges =   0.00000

 Dipole moment (field-independent basis, Debye):
    X=              0.9889    Y=             -1.2926    Z=             -0.1003  Tot=              1.6306
 Quadrupole moment (field-independent basis, Debye-Ang):
   XX=            -13.1563   YY=            -12.5518   ZZ=            -13.5780
   XY=              2.0283   XZ=              0.0333   YZ=              0.0981

 Normal termination of Gaussian 09 at Wed Aug 26 15:13:46 2020.
