 Gaussian 09, Revision D.01,
 Gaussian 09:  ES64L-G09RevD.01 24-Apr-2013

 --------------------
 #p B2PLYPD3/Def2QZVP
 --------------------

 --------
 methanol
 --------
 Symbolic Z-matrix:
 Charge =  0 Multiplicity = 1

                         Standard orientation:
 ---------------------------------------------------------------------
 Center     Atomic      Atomic             Coordinates (Angstroms)
 Number     Number       Type             X           Y           Z
 ---------------------------------------------------------------------
      1          6           0        0.651338    0.030188    0.014669
      2          8           0       -0.727652   -0.163985   -0.003532
      3          1           0        0.975243    0.391384    0.884540
      4          1           0        1.009795    0.553672   -0.815470
      5          1           0        1.017776   -0.859357   -0.122162
      6          1           0       -1.089628    1.045058   -0.006663
 ---------------------------------------------------------------------

 SCF Done:  E(RB2PLYPD3) =  -115.478233887     A.U. after   11 cycles
 E2(B2PLYPD3) =    -0.1524153060D+00 E(B2PLYPD3) =    -0.11563064919301D+03

 The electronic state is 1-A.
 Alpha  occ. eigenvalues --  -19.74524 -10.62018  -1.13649  -0.79229  -0.56238
 Alpha  occ. eigenvalues --   -0.53961  -0.49372  -0.39977  -0.35270
 Alpha virt. eigenvalues --    0.01303   0.07843   0.12521   0.12871   0.14731
 Alpha virt. eigenvalues --    0.17451   0.18580   0.24745   0.29274   0.33460
 Alpha virt. eigenvalues --    0.35484   0.38606   0.40947   0.43692   0.44162

 Mulliken charges:
               1
     1  C    0.088778
     2  O   -0.477035
     3  H    0.046532
     4  H    0.037012
     5  H    0.059296
     6  H    0.245417
 Sum of Mulliken charges =   0.00000

 Dipole moment (field-independent basis, Debye):
    X=              1.0568    Y=              1.6485    Z=              0.0037  Tot=              1.9581
 Quadrupole moment (field-independent basis, Debye-Ang):
   XX=            -13.5129   YY=            -11.6120   ZZ=            -13.6692
   XY=             -2.2991   XZ=             -0.0273   YZ=              0.0580

 Normal termination of Gaussian 09 at Wed Aug 26 22:15:07 2020.
