 Gaussian 09, Revision D.01,
 Gaussian 09:  ES64L-G09RevD.01 24-Apr-2013

 --------------------
 #p B2PLYPD3/Def2QZVP
 --------------------

 --------
 methanol
 --------
 Symbolic Z-matrix:
 Charge =  0 Multiplicity = 1

                         Standard orientation:
 ---------------------------------------------------------------------
 Center     Atomic      Atomic             Coordinates (Angstroms)
 Number     Number       Type             X           Y           Z
 ---------------------------------------------------------------------
      1          6           0        0.669280   -0.033382   -0.010714
      2          8           0       -0.753966    0.133485    0.004637
      3          1           0        1.022260   -0.547807   -0.825935
      4          1           0        1.099479   -0.533139    0.844648
      5          1           0        1.102476    1.014067   -0.001347
      6          1           0       -1.208165   -0.800709    0.009829
 ---------------------------------------------------------------------

 SCF Done:  E(RB2PLYPD3) =  -115.540770878     A.U. after   10 cycles
 E2(B2PLYPD3) =    -0.1488752263D+00 E(B2PLYPD3) =    -0.11568964610464D+03

 The electronic state is 1-A.
 Alpha  occ. eigenvalues --  -19.73365 -10.65245  -1.14259  -0.78663  -0.57985
 Alpha  occ. eigenvalues --   -0.51700  -0.48682  -0.40780  -0.35482
 Alpha virt. eigenvalues --    0.04444   0.07737   0.12147   0.12765   0.15109
 Alpha virt. eigenvalues --    0.17226   0.18275   0.29071   0.32195   0.33401
 Alpha virt. eigenvalues --    0.33820   0.37441   0.39667   0.41473   0.44318

 Mulliken charges:
               1
     1  C    0.073869
     2  O   -0.480845
     3  H    0.054067
     4  H    0.047632
     5  H    0.062730
     6  H    0.242547
 Sum of Mulliken charges =   0.00000

 Dipole moment (field-independent basis, Debye):
    X=              0.8471    Y=             -1.6329    Z=             -0.0314  Tot=              1.8398
 Quadrupole moment (field-independent basis, Debye-Ang):
   XX=            -12.6988   YY=            -12.1599   ZZ=            -13.9842
   XY=              2.2632   XZ=              0.0010   YZ=              0.0550

 Normal termination of Gaussian 09 at Wed Aug 26 14:41:49 2020.
