 Gaussian 09, Revision D.01,
 Gaussian 09:  ES64L-G09RevD.01 24-Apr-2013

 --------------------
 #p B2PLYPD3/Def2QZVP
 --------------------

 --------
 methanol
 --------
 Symbolic Z-matrix:
 Charge =  0 Multiplicity = 1

                         Standard orientation:
 ---------------------------------------------------------------------
 Center     Atomic      Atomic             Coordinates (Angstroms)
 Number     Number       Type             X           Y           Z
 ---------------------------------------------------------------------
      1          6           0        0.658656    0.043429   -0.026329
      2          8           0       -0.750585   -0.189344    0.011301
      3          1           0        1.018392    0.513948    0.846372
      4          1           0        1.044356    0.496208   -0.718247
      5          1           0        1.214281   -0.841251   -0.005767
      6          1           0       -1.224284    1.085274   -0.054791
 ---------------------------------------------------------------------

 SCF Done:  E(RB2PLYPD3) =  -115.440324917     A.U. after   11 cycles
 E2(B2PLYPD3) =    -0.1551000460D+00 E(B2PLYPD3) =    -0.11559542496306D+03

 The electronic state is 1-A.
 Alpha  occ. eigenvalues --  -19.75637 -10.62368  -1.11708  -0.80678  -0.54764
 Alpha  occ. eigenvalues --   -0.52013  -0.49333  -0.39611  -0.35434
 Alpha virt. eigenvalues --   -0.00716   0.07240   0.12729   0.12979   0.14560
 Alpha virt. eigenvalues --    0.18221   0.18714   0.22625   0.29525   0.33118
 Alpha virt. eigenvalues --    0.34450   0.38717   0.39523   0.41449   0.45038

 Mulliken charges:
               1
     1  C    0.090551
     2  O   -0.481242
     3  H    0.042600
     4  H    0.054886
     5  H    0.046583
     6  H    0.246622
 Sum of Mulliken charges =   0.00000

 Dipole moment (field-independent basis, Debye):
    X=              1.0283    Y=              1.7965    Z=             -0.1807  Tot=              2.0779
 Quadrupole moment (field-independent basis, Debye-Ang):
   XX=            -12.7462   YY=            -11.7147   ZZ=            -14.0451
   XY=             -2.5307   XZ=             -0.0192   YZ=             -0.1790

 Normal termination of Gaussian 09 at Wed Aug 26 20:23:39 2020.
