 Gaussian 09, Revision D.01,
 Gaussian 09:  ES64L-G09RevD.01 24-Apr-2013

 --------------------
 #p B2PLYPD3/Def2QZVP
 --------------------

 --------
 methanol
 --------
 Symbolic Z-matrix:
 Charge =  0 Multiplicity = 1

                         Standard orientation:
 ---------------------------------------------------------------------
 Center     Atomic      Atomic             Coordinates (Angstroms)
 Number     Number       Type             X           Y           Z
 ---------------------------------------------------------------------
      1          6           0        0.658084   -0.028334    0.006349
      2          8           0       -0.740775    0.126539   -0.009740
      3          1           0        1.021022   -0.588408   -0.855131
      4          1           0        1.009450   -0.469800    0.879844
      5          1           0        1.057827    1.003752   -0.037379
      6          1           0       -1.110605   -0.787855    0.052493
 ---------------------------------------------------------------------

 SCF Done:  E(RB2PLYPD3) =  -115.549314387     A.U. after   11 cycles
 E2(B2PLYPD3) =    -0.1475744543D+00 E(B2PLYPD3) =    -0.11569688884093D+03

 The electronic state is 1-A.
 Alpha  occ. eigenvalues --  -19.72809 -10.64997  -1.16151  -0.78561  -0.58817
 Alpha  occ. eigenvalues --   -0.52503  -0.49392  -0.41055  -0.35441
 Alpha virt. eigenvalues --    0.04748   0.08287   0.12305   0.12492   0.15002
 Alpha virt. eigenvalues --    0.17250   0.18147   0.29103   0.33297   0.33461
 Alpha virt. eigenvalues --    0.35077   0.38221   0.39995   0.41792   0.44488

 Mulliken charges:
               1
     1  C    0.070615
     2  O   -0.459003
     3  H    0.045690
     4  H    0.050063
     5  H    0.063225
     6  H    0.229410
 Sum of Mulliken charges =   0.00000

 Dipole moment (field-independent basis, Debye):
    X=              0.8761    Y=             -1.5673    Z=              0.1526  Tot=              1.8020
 Quadrupole moment (field-independent basis, Debye-Ang):
   XX=            -13.2094   YY=            -12.1062   ZZ=            -13.7593
   XY=              2.1597   XZ=             -0.0875   YZ=             -0.0941

 Normal termination of Gaussian 09 at Thu Aug 27 00:01:06 2020.
