 Gaussian 09, Revision D.01,
 Gaussian 09:  ES64L-G09RevD.01 24-Apr-2013

 --------------------
 #p B2PLYPD3/Def2QZVP
 --------------------

 --------
 methanol
 --------
 Symbolic Z-matrix:
 Charge =  0 Multiplicity = 1

                         Standard orientation:
 ---------------------------------------------------------------------
 Center     Atomic      Atomic             Coordinates (Angstroms)
 Number     Number       Type             X           Y           Z
 ---------------------------------------------------------------------
      1          6           0        0.654013    0.036219    0.007674
      2          8           0       -0.751274   -0.147667   -0.012318
      3          1           0        1.012663    0.451980    0.849869
      4          1           0        1.036125    0.586411   -0.828035
      5          1           0        1.159590   -0.954658   -0.031735
      6          1           0       -1.122268    0.880288    0.062400
 ---------------------------------------------------------------------

 SCF Done:  E(RB2PLYPD3) =  -115.529547153     A.U. after   11 cycles
 E2(B2PLYPD3) =    -0.1497417149D+00 E(B2PLYPD3) =    -0.11567928886753D+03

 The electronic state is 1-A.
 Alpha  occ. eigenvalues --  -19.73985 -10.64440  -1.14338  -0.78652  -0.57024
 Alpha  occ. eigenvalues --   -0.52617  -0.49246  -0.40607  -0.35585
 Alpha virt. eigenvalues --    0.03773   0.07738   0.12473   0.12628   0.14812
 Alpha virt. eigenvalues --    0.17831   0.18403   0.28664   0.29992   0.33614
 Alpha virt. eigenvalues --    0.34223   0.38070   0.40044   0.42088   0.44045

 Mulliken charges:
               1
     1  C    0.079182
     2  O   -0.477719
     3  H    0.049640
     4  H    0.045260
     5  H    0.053555
     6  H    0.250082
 Sum of Mulliken charges =   0.00000

 Dipole moment (field-independent basis, Debye):
    X=              0.9476    Y=              1.6848    Z=              0.1806  Tot=              1.9414
 Quadrupole moment (field-independent basis, Debye-Ang):
   XX=            -13.0980   YY=            -12.0593   ZZ=            -13.8717
   XY=             -2.2811   XZ=             -0.0944   YZ=              0.1049

 Normal termination of Gaussian 09 at Wed Aug 26 12:03:08 2020.
