 Gaussian 09, Revision D.01,
 Gaussian 09:  ES64L-G09RevD.01 24-Apr-2013

 --------------------
 #p B2PLYPD3/Def2QZVP
 --------------------

 --------
 methanol
 --------
 Symbolic Z-matrix:
 Charge =  0 Multiplicity = 1

                         Standard orientation:
 ---------------------------------------------------------------------
 Center     Atomic      Atomic             Coordinates (Angstroms)
 Number     Number       Type             X           Y           Z
 ---------------------------------------------------------------------
      1          6           0        0.673726    0.032583   -0.038227
      2          8           0       -0.743193   -0.193849    0.029949
      3          1           0        1.250795    0.548188    0.784671
      4          1           0        0.930365    0.520467   -0.705599
      5          1           0        1.096705   -0.833585   -0.046602
      6          1           0       -1.374682    1.120223   -0.042701
 ---------------------------------------------------------------------

 SCF Done:  E(RB2PLYPD3) =  -115.385477056     A.U. after   11 cycles
 E2(B2PLYPD3) =    -0.1574777550D+00 E(B2PLYPD3) =    -0.11554295481110D+03

 The electronic state is 1-A.
 Alpha  occ. eigenvalues --  -19.75951 -10.61909  -1.11108  -0.81376  -0.56729
 Alpha  occ. eigenvalues --   -0.50391  -0.48786  -0.39570  -0.34957
 Alpha virt. eigenvalues --   -0.02605   0.07090   0.12467   0.13303   0.14832
 Alpha virt. eigenvalues --    0.17439   0.18647   0.21379   0.29383   0.32240
 Alpha virt. eigenvalues --    0.34040   0.38217   0.39121   0.40610   0.46040

 Mulliken charges:
               1
     1  C    0.052843
     2  O   -0.479538
     3  H    0.031209
     4  H    0.091816
     5  H    0.068401
     6  H    0.235268
 Sum of Mulliken charges =   0.00000

 Dipole moment (field-independent basis, Debye):
    X=              0.9088    Y=              1.7040    Z=             -0.3181  Tot=              1.9572
 Quadrupole moment (field-independent basis, Debye-Ang):
   XX=            -12.2711   YY=            -11.5474   ZZ=            -14.3055
   XY=             -2.7229   XZ=              0.0519   YZ=             -0.2577

 Normal termination of Gaussian 09 at Wed Aug 26 23:57:20 2020.
