 Gaussian 09, Revision D.01,
 Gaussian 09:  ES64L-G09RevD.01 24-Apr-2013

 --------------------
 #p B2PLYPD3/Def2QZVP
 --------------------

 --------
 methanol
 --------
 Symbolic Z-matrix:
 Charge =  0 Multiplicity = 1

                         Standard orientation:
 ---------------------------------------------------------------------
 Center     Atomic      Atomic             Coordinates (Angstroms)
 Number     Number       Type             X           Y           Z
 ---------------------------------------------------------------------
      1          6           0       -0.663049   -0.022411    0.010067
      2          8           0        0.757539    0.101940   -0.009860
      3          1           0       -0.999348   -0.526832    0.912218
      4          1           0       -1.046834   -0.584474   -0.909776
      5          1           0       -1.115957    1.051881   -0.018995
      6          1           0        1.080117   -0.621625    0.035037
 ---------------------------------------------------------------------

 SCF Done:  E(RB2PLYPD3) =  -115.510885672     A.U. after   10 cycles
 E2(B2PLYPD3) =    -0.1450675696D+00 E(B2PLYPD3) =    -0.11565595324185D+03

 The electronic state is 1-A.
 Alpha  occ. eigenvalues --  -19.71032 -10.67336  -1.20711  -0.79635  -0.60863
 Alpha  occ. eigenvalues --   -0.51796  -0.49603  -0.41284  -0.35975
 Alpha virt. eigenvalues --    0.05354   0.08838   0.11978   0.12107   0.14679
 Alpha virt. eigenvalues --    0.17290   0.17852   0.28882   0.32700   0.33158
 Alpha virt. eigenvalues --    0.36701   0.38447   0.39629   0.40546   0.43060

 Mulliken charges:
               1
     1  C    0.062220
     2  O   -0.347691
     3  H    0.055786
     4  H    0.047732
     5  H    0.068972
     6  H    0.112981
 Sum of Mulliken charges =   0.00000

 Dipole moment (field-independent basis, Debye):
    X=             -0.9620    Y=             -1.3832    Z=              0.1403  Tot=              1.6907
 Quadrupole moment (field-independent basis, Debye-Ang):
   XX=            -13.1798   YY=            -12.4131   ZZ=            -13.6607
   XY=             -2.0170   XZ=              0.0894   YZ=             -0.1031

 Normal termination of Gaussian 09 at Thu Aug 27 00:01:41 2020.
