 Gaussian 09, Revision D.01,
 Gaussian 09:  ES64L-G09RevD.01 24-Apr-2013

 --------------------
 #p B2PLYPD3/Def2QZVP
 --------------------

 --------
 methanol
 --------
 Symbolic Z-matrix:
 Charge =  0 Multiplicity = 1

                         Standard orientation:
 ---------------------------------------------------------------------
 Center     Atomic      Atomic             Coordinates (Angstroms)
 Number     Number       Type             X           Y           Z
 ---------------------------------------------------------------------
      1          6           0        0.675390   -0.032074    0.015325
      2          8           0       -0.749047    0.108243   -0.010010
      3          1           0        1.015451   -0.617188   -0.896395
      4          1           0        0.893098   -0.512865    0.948374
      5          1           0        1.164569    1.036138   -0.057092
      6          1           0       -1.133083   -0.579584   -0.006758
 ---------------------------------------------------------------------

 SCF Done:  E(RB2PLYPD3) =  -115.504309010     A.U. after   10 cycles
 E2(B2PLYPD3) =    -0.1448627351D+00 E(B2PLYPD3) =    -0.11564917174470D+03

 The electronic state is 1-A.
 Alpha  occ. eigenvalues --  -19.70315 -10.67323  -1.20171  -0.80062  -0.60323
 Alpha  occ. eigenvalues --   -0.52726  -0.49469  -0.40319  -0.35824
 Alpha virt. eigenvalues --    0.05391   0.08890   0.11965   0.12108   0.14292
 Alpha virt. eigenvalues --    0.17279   0.17611   0.28976   0.32157   0.33059
 Alpha virt. eigenvalues --    0.36167   0.38715   0.39487   0.41179   0.43723

 Mulliken charges:
               1
     1  C    0.068404
     2  O   -0.355600
     3  H    0.049176
     4  H    0.061512
     5  H    0.071123
     6  H    0.105385
 Sum of Mulliken charges =   0.00000

 Dipole moment (field-independent basis, Debye):
    X=              0.9239    Y=             -1.3711    Z=              0.0570  Tot=              1.6543
 Quadrupole moment (field-independent basis, Debye-Ang):
   XX=            -13.0118   YY=            -12.5451   ZZ=            -13.5168
   XY=              2.1616   XZ=             -0.0951   YZ=             -0.0626

 Normal termination of Gaussian 09 at Wed Aug 26 14:36:00 2020.
