 Gaussian 09, Revision D.01,
 Gaussian 09:  ES64L-G09RevD.01 24-Apr-2013

 --------------------
 #p B2PLYPD3/Def2QZVP
 --------------------

 --------
 methanol
 --------
 Symbolic Z-matrix:
 Charge =  0 Multiplicity = 1

                         Standard orientation:
 ---------------------------------------------------------------------
 Center     Atomic      Atomic             Coordinates (Angstroms)
 Number     Number       Type             X           Y           Z
 ---------------------------------------------------------------------
      1          6           0        0.665590   -0.022387   -0.006575
      2          8           0       -0.746379    0.104995    0.003049
      3          1           0        1.043048   -0.513511   -0.902649
      4          1           0        0.986139   -0.585411    0.912785
      5          1           0        1.065146    1.039639    0.041858
      6          1           0       -1.116840   -0.646357   -0.036935
 ---------------------------------------------------------------------

 SCF Done:  E(RB2PLYPD3) =  -115.534053250     A.U. after   10 cycles
 E2(B2PLYPD3) =    -0.1453928997D+00 E(B2PLYPD3) =    -0.11567944614955D+03

 The electronic state is 1-A.
 Alpha  occ. eigenvalues --  -19.71239 -10.66655  -1.19161  -0.79502  -0.60345
 Alpha  occ. eigenvalues --   -0.51963  -0.49741  -0.41023  -0.35658
 Alpha virt. eigenvalues --    0.05350   0.08763   0.12135   0.12208   0.14770
 Alpha virt. eigenvalues --    0.17062   0.17915   0.29042   0.32919   0.33573
 Alpha virt. eigenvalues --    0.37541   0.38464   0.39913   0.40676   0.43048

 Mulliken charges:
               1
     1  C    0.064222
     2  O   -0.391945
     3  H    0.053660
     4  H    0.047990
     5  H    0.071083
     6  H    0.154989
 Sum of Mulliken charges =   0.00000

 Dipole moment (field-independent basis, Debye):
    X=              0.8712    Y=             -1.4021    Z=             -0.1054  Tot=              1.6541
 Quadrupole moment (field-independent basis, Debye-Ang):
   XX=            -13.1000   YY=            -12.3650   ZZ=            -13.6577
   XY=              2.0798   XZ=              0.0095   YZ=              0.0871

 Normal termination of Gaussian 09 at Wed Aug 26 10:34:58 2020.
