 Gaussian 09, Revision D.01,
 Gaussian 09:  ES64L-G09RevD.01 24-Apr-2013

 --------------------
 #p B2PLYPD3/Def2QZVP
 --------------------

 --------
 methanol
 --------
 Symbolic Z-matrix:
 Charge =  0 Multiplicity = 1

                         Standard orientation:
 ---------------------------------------------------------------------
 Center     Atomic      Atomic             Coordinates (Angstroms)
 Number     Number       Type             X           Y           Z
 ---------------------------------------------------------------------
      1          6           0        0.673392    0.022384   -0.002993
      2          8           0       -0.750784   -0.142189    0.000285
      3          1           0        1.016713    0.535317    0.875126
      4          1           0        1.058580    0.511381   -0.860607
      5          1           0        1.082220   -0.915590    0.016031
      6          1           0       -1.191596    0.872103   -0.014871
 ---------------------------------------------------------------------

 SCF Done:  E(RB2PLYPD3) =  -115.531380866     A.U. after   11 cycles
 E2(B2PLYPD3) =    -0.1498421019D+00 E(B2PLYPD3) =    -0.11568122296755D+03

 The electronic state is 1-A.
 Alpha  occ. eigenvalues --  -19.73645 -10.64214  -1.13269  -0.78884  -0.56554
 Alpha  occ. eigenvalues --   -0.51819  -0.49707  -0.40898  -0.35235
 Alpha virt. eigenvalues --    0.03761   0.07758   0.12544   0.12730   0.14813
 Alpha virt. eigenvalues --    0.17335   0.18377   0.28740   0.30177   0.33320
 Alpha virt. eigenvalues --    0.33758   0.38984   0.40360   0.41571   0.43661

 Mulliken charges:
               1
     1  C    0.078386
     2  O   -0.493453
     3  H    0.046576
     4  H    0.048241
     5  H    0.069115
     6  H    0.251135
 Sum of Mulliken charges =   0.00000

 Dipole moment (field-independent basis, Debye):
    X=              0.9301    Y=              1.5904    Z=             -0.0322  Tot=              1.8427
 Quadrupole moment (field-independent basis, Debye-Ang):
   XX=            -12.8489   YY=            -12.0425   ZZ=            -13.8471
   XY=             -2.4512   XZ=             -0.0137   YZ=             -0.0341

 Normal termination of Gaussian 09 at Wed Aug 26 20:59:49 2020.
