 Gaussian 09, Revision D.01,
 Gaussian 09:  ES64L-G09RevD.01 24-Apr-2013

 --------------------
 #p B2PLYPD3/Def2QZVP
 --------------------

 --------
 methanol
 --------
 Symbolic Z-matrix:
 Charge =  0 Multiplicity = 1

                         Standard orientation:
 ---------------------------------------------------------------------
 Center     Atomic      Atomic             Coordinates (Angstroms)
 Number     Number       Type             X           Y           Z
 ---------------------------------------------------------------------
      1          6           0        0.663585    0.018191    0.046203
      2          8           0       -0.755498   -0.144334   -0.036127
      3          1           0        0.984828    0.377551    0.855179
      4          1           0        1.219999    0.630739   -0.849325
      5          1           0        1.071211   -0.893269   -0.088027
      6          1           0       -1.213560    0.930508    0.093971
 ---------------------------------------------------------------------

 SCF Done:  E(RB2PLYPD3) =  -115.488119260     A.U. after   11 cycles
 E2(B2PLYPD3) =    -0.1517677301D+00 E(B2PLYPD3) =    -0.11563988699057D+03

 The electronic state is 1-A.
 Alpha  occ. eigenvalues --  -19.74717 -10.64211  -1.12986  -0.79490  -0.57013
 Alpha  occ. eigenvalues --   -0.51037  -0.49246  -0.40806  -0.35094
 Alpha virt. eigenvalues --    0.02729   0.07267   0.12427   0.12689   0.14969
 Alpha virt. eigenvalues --    0.17289   0.18854   0.26697   0.29317   0.32644
 Alpha virt. eigenvalues --    0.33739   0.36622   0.40000   0.40949   0.44895

 Mulliken charges:
               1
     1  C    0.076022
     2  O   -0.484594
     3  H    0.059700
     4  H    0.023778
     5  H    0.067209
     6  H    0.257885
 Sum of Mulliken charges =   0.00000

 Dipole moment (field-independent basis, Debye):
    X=              0.8349    Y=              1.5186    Z=              0.4436  Tot=              1.7889
 Quadrupole moment (field-independent basis, Debye-Ang):
   XX=            -12.7985   YY=            -12.1016   ZZ=            -13.9696
   XY=             -2.5743   XZ=             -0.1412   YZ=              0.3725

 Normal termination of Gaussian 09 at Wed Aug 26 23:57:06 2020.
