 Gaussian 09, Revision D.01,
 Gaussian 09:  ES64L-G09RevD.01 24-Apr-2013

 --------------------
 #p B2PLYPD3/Def2QZVP
 --------------------

 --------
 methanol
 --------
 Symbolic Z-matrix:
 Charge =  0 Multiplicity = 1

                         Standard orientation:
 ---------------------------------------------------------------------
 Center     Atomic      Atomic             Coordinates (Angstroms)
 Number     Number       Type             X           Y           Z
 ---------------------------------------------------------------------
      1          6           0        0.667152    0.020755   -0.023262
      2          8           0       -0.734996   -0.149929    0.014306
      3          1           0        1.034343    0.536849    0.898874
      4          1           0        0.973128    0.523267   -0.819792
      5          1           0        1.064993   -0.889876   -0.008518
      6          1           0       -1.195407    0.904661   -0.045445
 ---------------------------------------------------------------------

 SCF Done:  E(RB2PLYPD3) =  -115.512110475     A.U. after   11 cycles
 E2(B2PLYPD3) =    -0.1502607019D+00 E(B2PLYPD3) =    -0.11566237117661D+03

 The electronic state is 1-A.
 Alpha  occ. eigenvalues --  -19.73747 -10.63348  -1.13436  -0.79081  -0.57051
 Alpha  occ. eigenvalues --   -0.51916  -0.50107  -0.40792  -0.34824
 Alpha virt. eigenvalues --    0.03105   0.07830   0.12534   0.12858   0.14883
 Alpha virt. eigenvalues --    0.17353   0.18262   0.27829   0.29649   0.33119
 Alpha virt. eigenvalues --    0.34370   0.38816   0.40907   0.41395   0.44805

 Mulliken charges:
               1
     1  C    0.085550
     2  O   -0.491484
     3  H    0.037526
     4  H    0.046210
     5  H    0.069215
     6  H    0.252982
 Sum of Mulliken charges =   0.00000

 Dipole moment (field-independent basis, Debye):
    X=              0.8689    Y=              1.6001    Z=             -0.2071  Tot=              1.8325
 Quadrupole moment (field-independent basis, Debye-Ang):
   XX=            -12.9266   YY=            -11.9167   ZZ=            -13.8290
   XY=             -2.5129   XZ=              0.0234   YZ=             -0.1801

 Normal termination of Gaussian 09 at Wed Aug 26 14:33:44 2020.
