 Gaussian 09, Revision D.01,
 Gaussian 09:  ES64L-G09RevD.01 24-Apr-2013

 --------------------
 #p B2PLYPD3/Def2QZVP
 --------------------

 --------
 methanol
 --------
 Symbolic Z-matrix:
 Charge =  0 Multiplicity = 1

                         Standard orientation:
 ---------------------------------------------------------------------
 Center     Atomic      Atomic             Coordinates (Angstroms)
 Number     Number       Type             X           Y           Z
 ---------------------------------------------------------------------
      1          6           0        0.680979    0.007603   -0.005153
      2          8           0       -0.755606   -0.148339    0.007461
      3          1           0        1.132740    0.515326    0.808375
      4          1           0        0.996198    0.570519   -0.799615
      5          1           0        0.997119   -0.931224   -0.044702
      6          1           0       -1.167082    0.986471    0.007178
 ---------------------------------------------------------------------

 SCF Done:  E(RB2PLYPD3) =  -115.499584007     A.U. after   11 cycles
 E2(B2PLYPD3) =    -0.1521760154D+00 E(B2PLYPD3) =    -0.11565176002234D+03

 The electronic state is 1-A.
 Alpha  occ. eigenvalues --  -19.74391 -10.63336  -1.12054  -0.79306  -0.56945
 Alpha  occ. eigenvalues --   -0.51105  -0.48572  -0.41577  -0.35010
 Alpha virt. eigenvalues --    0.02319   0.07616   0.12404   0.12905   0.15034
 Alpha virt. eigenvalues --    0.17094   0.18135   0.26304   0.29554   0.32936
 Alpha virt. eigenvalues --    0.33956   0.38625   0.39585   0.41546   0.44465

 Mulliken charges:
               1
     1  C    0.087788
     2  O   -0.495763
     3  H    0.042540
     4  H    0.042905
     5  H    0.074278
     6  H    0.248252
 Sum of Mulliken charges =   0.00000

 Dipole moment (field-independent basis, Debye):
    X=              1.0633    Y=              1.6783    Z=             -0.0433  Tot=              1.9873
 Quadrupole moment (field-independent basis, Debye-Ang):
   XX=            -13.1052   YY=            -11.5003   ZZ=            -14.1021
   XY=             -2.2701   XZ=              0.0511   YZ=             -0.0156

 Normal termination of Gaussian 09 at Wed Aug 26 16:39:22 2020.
