 Gaussian 09, Revision D.01,
 Gaussian 09:  ES64L-G09RevD.01 24-Apr-2013

 --------------------
 #p B2PLYPD3/Def2QZVP
 --------------------

 --------
 methanol
 --------
 Symbolic Z-matrix:
 Charge =  0 Multiplicity = 1

                         Standard orientation:
 ---------------------------------------------------------------------
 Center     Atomic      Atomic             Coordinates (Angstroms)
 Number     Number       Type             X           Y           Z
 ---------------------------------------------------------------------
      1          6           0       -0.654622    0.021401   -0.000848
      2          8           0        0.740772   -0.138635   -0.003371
      3          1           0       -1.046653    0.566870   -0.821833
      4          1           0       -1.015170    0.521863    0.852177
      5          1           0       -1.082569   -0.965915   -0.008802
      6          1           0        1.145948    0.857853    0.010515
 ---------------------------------------------------------------------

 SCF Done:  E(RB2PLYPD3) =  -115.538434412     A.U. after   11 cycles
 E2(B2PLYPD3) =    -0.1490131453D+00 E(B2PLYPD3) =    -0.11568744755753D+03

 The electronic state is 1-A.
 Alpha  occ. eigenvalues --  -19.73598 -10.64358  -1.14824  -0.78481  -0.57923
 Alpha  occ. eigenvalues --   -0.51881  -0.49704  -0.41061  -0.35120
 Alpha virt. eigenvalues --    0.03977   0.07931   0.12442   0.12745   0.15146
 Alpha virt. eigenvalues --    0.17426   0.18141   0.29082   0.30815   0.33466
 Alpha virt. eigenvalues --    0.34752   0.38883   0.39694   0.41748   0.44343

 Mulliken charges:
               1
     1  C    0.078050
     2  O   -0.475058
     3  H    0.041855
     4  H    0.042566
     5  H    0.064892
     6  H    0.247696
 Sum of Mulliken charges =   0.00000

 Dipole moment (field-independent basis, Debye):
    X=             -0.8569    Y=              1.6327    Z=              0.0337  Tot=              1.8442
 Quadrupole moment (field-independent basis, Debye-Ang):
   XX=            -13.0360   YY=            -11.9430   ZZ=            -13.9612
   XY=              2.2886   XZ=              0.0417   YZ=              0.0111

 Normal termination of Gaussian 09 at Wed Aug 26 23:59:37 2020.
