 Gaussian 09, Revision D.01,
 Gaussian 09:  ES64L-G09RevD.01 24-Apr-2013

 --------------------
 #p B2PLYPD3/Def2QZVP
 --------------------

 --------
 methanol
 --------
 Symbolic Z-matrix:
 Charge =  0 Multiplicity = 1

                         Standard orientation:
 ---------------------------------------------------------------------
 Center     Atomic      Atomic             Coordinates (Angstroms)
 Number     Number       Type             X           Y           Z
 ---------------------------------------------------------------------
      1          6           0       -0.635956   -0.039287    0.002964
      2          8           0        0.728853    0.078600   -0.008683
      3          1           0       -0.966027   -0.473168    1.008228
      4          1           0       -0.910605   -0.751557   -0.877188
      5          1           0       -1.239761    1.138615   -0.138628
      6          1           0        1.101306   -0.306966    0.059268
 ---------------------------------------------------------------------

 SCF Done:  E(RB2PLYPD3) =  -114.973275833     A.U. after   11 cycles
 E2(B2PLYPD3) =    -0.1430092352D+00 E(B2PLYPD3) =    -0.11511628506831D+03

 The electronic state is 1-A.
 Alpha  occ. eigenvalues --  -19.68499 -10.70333  -1.32289  -0.86210  -0.63135
 Alpha  occ. eigenvalues --   -0.53067  -0.50143  -0.38363  -0.36405
 Alpha virt. eigenvalues --    0.04726   0.09661   0.11205   0.11824   0.14138
 Alpha virt. eigenvalues --    0.17009   0.17247   0.28188   0.31169   0.32212
 Alpha virt. eigenvalues --    0.34151   0.38662   0.39165   0.41040   0.43081

 Mulliken charges:
               1
     1  C    0.057104
     2  O   -0.067248
     3  H    0.052600
     4  H    0.052050
     5  H    0.062138
     6  H   -0.156644
 Sum of Mulliken charges =   0.00000

 Dipole moment (field-independent basis, Debye):
    X=             -0.6680    Y=             -1.0915    Z=              0.2128  Tot=              1.2972
 Quadrupole moment (field-independent basis, Debye-Ang):
   XX=            -12.8706   YY=            -12.8695   ZZ=            -13.4033
   XY=             -1.6890   XZ=              0.1835   YZ=             -0.0480

 Normal termination of Gaussian 09 at Wed Aug 26 21:43:57 2020.
