 Gaussian 09, Revision D.01,
 Gaussian 09:  ES64L-G09RevD.01 24-Apr-2013

 --------------------
 #p B2PLYPD3/Def2QZVP
 --------------------

 --------
 methanol
 --------
 Symbolic Z-matrix:
 Charge =  0 Multiplicity = 1

                         Standard orientation:
 ---------------------------------------------------------------------
 Center     Atomic      Atomic             Coordinates (Angstroms)
 Number     Number       Type             X           Y           Z
 ---------------------------------------------------------------------
      1          6           0        0.661836   -0.010853    0.024176
      2          8           0       -0.757723   -0.071881   -0.036113
      3          1           0        1.056890    0.143146    1.053000
      4          1           0        1.095127    0.934903   -0.710376
      5          1           0        1.042068   -0.955950   -0.405141
      6          1           0       -1.103313    0.518070    0.206366
 ---------------------------------------------------------------------

 SCF Done:  E(RB2PLYPD3) =  -115.446136975     A.U. after   11 cycles
 E2(B2PLYPD3) =    -0.1445188134D+00 E(B2PLYPD3) =    -0.11559065578853D+03

 The electronic state is 1-A.
 Alpha  occ. eigenvalues --  -19.70421 -10.68560  -1.23183  -0.81026  -0.61477
 Alpha  occ. eigenvalues --   -0.51227  -0.50172  -0.41303  -0.35592
 Alpha virt. eigenvalues --    0.05290   0.08916   0.11489   0.12170   0.14617
 Alpha virt. eigenvalues --    0.16944   0.17935   0.28632   0.31832   0.32883
 Alpha virt. eigenvalues --    0.35286   0.38895   0.39940   0.40384   0.42192

 Mulliken charges:
               1
     1  C    0.050813
     2  O   -0.269642
     3  H    0.060023
     4  H    0.025679
     5  H    0.087980
     6  H    0.045147
 Sum of Mulliken charges =   0.00000

 Dipole moment (field-independent basis, Debye):
    X=              0.8646    Y=              0.9936    Z=              0.6068  Tot=              1.4502
 Quadrupole moment (field-independent basis, Debye-Ang):
   XX=            -13.0944   YY=            -12.7791   ZZ=            -13.4783
   XY=             -1.9603   XZ=             -0.5867   YZ=              0.4840

 Normal termination of Gaussian 09 at Wed Aug 26 15:20:32 2020.
