 Gaussian 09, Revision D.01,
 Gaussian 09:  ES64L-G09RevD.01 24-Apr-2013

 --------------------
 #p B2PLYPD3/Def2QZVP
 --------------------

 --------
 methanol
 --------
 Symbolic Z-matrix:
 Charge =  0 Multiplicity = 1

                         Standard orientation:
 ---------------------------------------------------------------------
 Center     Atomic      Atomic             Coordinates (Angstroms)
 Number     Number       Type             X           Y           Z
 ---------------------------------------------------------------------
      1          6           0        0.674648    0.027528    0.017959
      2          8           0       -0.754856   -0.141304   -0.014677
      3          1           0        1.014538    0.407599    0.903674
      4          1           0        1.076163    0.620215   -0.841174
      5          1           0        1.116578   -0.909512   -0.101663
      6          1           0       -1.216319    0.846965    0.048823
 ---------------------------------------------------------------------

 SCF Done:  E(RB2PLYPD3) =  -115.531743389     A.U. after   11 cycles
 E2(B2PLYPD3) =    -0.1497576596D+00 E(B2PLYPD3) =    -0.11568150104836D+03

 The electronic state is 1-A.
 Alpha  occ. eigenvalues --  -19.73619 -10.64595  -1.13209  -0.78915  -0.56456
 Alpha  occ. eigenvalues --   -0.51927  -0.49540  -0.40528  -0.35391
 Alpha virt. eigenvalues --    0.03947   0.07644   0.12456   0.12761   0.14696
 Alpha virt. eigenvalues --    0.17397   0.18540   0.28778   0.30381   0.33126
 Alpha virt. eigenvalues --    0.33675   0.38456   0.40253   0.41645   0.43754

 Mulliken charges:
               1
     1  C    0.077014
     2  O   -0.494946
     3  H    0.056094
     4  H    0.043092
     5  H    0.066881
     6  H    0.251864
 Sum of Mulliken charges =   0.00000

 Dipole moment (field-independent basis, Debye):
    X=              0.9038    Y=              1.5627    Z=              0.1732  Tot=              1.8136
 Quadrupole moment (field-independent basis, Debye-Ang):
   XX=            -12.6843   YY=            -12.2355   ZZ=            -13.8061
   XY=             -2.5058   XZ=             -0.1238   YZ=              0.1445

 Normal termination of Gaussian 09 at Wed Aug 26 11:35:13 2020.
