 Gaussian 09, Revision D.01,
 Gaussian 09:  ES64L-G09RevD.01 24-Apr-2013

 --------------------
 #p B2PLYPD3/Def2QZVP
 --------------------

 --------
 methanol
 --------
 Symbolic Z-matrix:
 Charge =  0 Multiplicity = 1

                         Standard orientation:
 ---------------------------------------------------------------------
 Center     Atomic      Atomic             Coordinates (Angstroms)
 Number     Number       Type             X           Y           Z
 ---------------------------------------------------------------------
      1          6           0       -0.676232   -0.020638   -0.003393
      2          8           0        0.761921    0.105462   -0.000767
      3          1           0       -1.004928   -0.599045    0.904428
      4          1           0       -1.119555   -0.507685   -0.899993
      5          1           0       -1.091282    1.036807    0.058956
      6          1           0        1.177790   -0.649943   -0.036897
 ---------------------------------------------------------------------

 SCF Done:  E(RB2PLYPD3) =  -115.538847583     A.U. after   10 cycles
 E2(B2PLYPD3) =    -0.1462764621D+00 E(B2PLYPD3) =    -0.11568512404476D+03

 The electronic state is 1-A.
 Alpha  occ. eigenvalues --  -19.71642 -10.67226  -1.17585  -0.79199  -0.59739
 Alpha  occ. eigenvalues --   -0.51055  -0.49319  -0.40859  -0.35707
 Alpha virt. eigenvalues --    0.05328   0.08323   0.12105   0.12246   0.14746
 Alpha virt. eigenvalues --    0.17057   0.18086   0.29010   0.32129   0.33590
 Alpha virt. eigenvalues --    0.36910   0.38526   0.39300   0.39833   0.42433

 Mulliken charges:
               1
     1  C    0.064035
     2  O   -0.420124
     3  H    0.051198
     4  H    0.055250
     5  H    0.073936
     6  H    0.175706
 Sum of Mulliken charges =   0.00000

 Dipole moment (field-independent basis, Debye):
    X=             -0.8909    Y=             -1.4042    Z=             -0.0740  Tot=              1.6646
 Quadrupole moment (field-independent basis, Debye-Ang):
   XX=            -12.7612   YY=            -12.4596   ZZ=            -13.8038
   XY=             -2.1543   XZ=              0.0123   YZ=              0.0640

 Normal termination of Gaussian 09 at Wed Aug 26 13:02:45 2020.
