 Gaussian 09, Revision D.01,
 Gaussian 09:  ES64L-G09RevD.01 24-Apr-2013

 --------------------
 #p B2PLYPD3/Def2QZVP
 --------------------

 --------
 methanol
 --------
 Symbolic Z-matrix:
 Charge =  0 Multiplicity = 1

                         Standard orientation:
 ---------------------------------------------------------------------
 Center     Atomic      Atomic             Coordinates (Angstroms)
 Number     Number       Type             X           Y           Z
 ---------------------------------------------------------------------
      1          6           0       -0.663492    0.011023    0.009486
      2          8           0        0.749147   -0.139175   -0.012331
      3          1           0       -1.037499    0.603217   -0.858882
      4          1           0       -1.007503    0.488857    0.872950
      5          1           0       -1.115772   -0.904384   -0.030166
      6          1           0        1.148549    0.859569    0.057827
 ---------------------------------------------------------------------

 SCF Done:  E(RB2PLYPD3) =  -115.535351196     A.U. after   11 cycles
 E2(B2PLYPD3) =    -0.1492072279D+00 E(B2PLYPD3) =    -0.11568455842377D+03

 The electronic state is 1-A.
 Alpha  occ. eigenvalues --  -19.73568 -10.64451  -1.14198  -0.78799  -0.57175
 Alpha  occ. eigenvalues --   -0.51444  -0.50420  -0.41139  -0.35048
 Alpha virt. eigenvalues --    0.03962   0.07864   0.12485   0.12752   0.14821
 Alpha virt. eigenvalues --    0.17694   0.18148   0.29060   0.30687   0.33232
 Alpha virt. eigenvalues --    0.33859   0.38945   0.40856   0.40991   0.43784

 Mulliken charges:
               1
     1  C    0.080228
     2  O   -0.483178
     3  H    0.037477
     4  H    0.044658
     5  H    0.070449
     6  H    0.250366
 Sum of Mulliken charges =   0.00000

 Dipole moment (field-independent basis, Debye):
    X=             -0.9198    Y=              1.5684    Z=              0.1811  Tot=              1.8273
 Quadrupole moment (field-independent basis, Debye-Ang):
   XX=            -12.9996   YY=            -12.0195   ZZ=            -13.8966
   XY=              2.4445   XZ=              0.0917   YZ=              0.1329

 Normal termination of Gaussian 09 at Thu Aug 27 00:14:47 2020.
