 Gaussian 09, Revision D.01,
 Gaussian 09:  ES64L-G09RevD.01 24-Apr-2013

 --------------------
 #p B2PLYPD3/Def2QZVP
 --------------------

 --------
 methanol
 --------
 Symbolic Z-matrix:
 Charge =  0 Multiplicity = 1

                         Standard orientation:
 ---------------------------------------------------------------------
 Center     Atomic      Atomic             Coordinates (Angstroms)
 Number     Number       Type             X           Y           Z
 ---------------------------------------------------------------------
      1          6           0       -0.663957    0.022677    0.005195
      2          8           0        0.749813   -0.141641   -0.001760
      3          1           0       -1.012109    0.556449   -0.861712
      4          1           0       -1.047785    0.479269    0.871407
      5          1           0       -1.093028   -0.918487   -0.046003
      6          1           0        1.138165    0.879834    0.019215
 ---------------------------------------------------------------------

 SCF Done:  E(RB2PLYPD3) =  -115.534137705     A.U. after   11 cycles
 E2(B2PLYPD3) =    -0.1495659791D+00 E(B2PLYPD3) =    -0.11568370368405D+03

 The electronic state is 1-A.
 Alpha  occ. eigenvalues --  -19.73702 -10.64199  -1.13967  -0.78784  -0.56872
 Alpha  occ. eigenvalues --   -0.52113  -0.49750  -0.41021  -0.35319
 Alpha virt. eigenvalues --    0.03855   0.07855   0.12506   0.12714   0.14805
 Alpha virt. eigenvalues --    0.17525   0.18373   0.28801   0.30326   0.33454
 Alpha virt. eigenvalues --    0.34014   0.38988   0.40422   0.41741   0.43739

 Mulliken charges:
               1
     1  C    0.077765
     2  O   -0.484069
     3  H    0.043610
     4  H    0.047712
     5  H    0.065308
     6  H    0.249672
 Sum of Mulliken charges =   0.00000

 Dipole moment (field-independent basis, Debye):
    X=             -0.9611    Y=              1.5992    Z=              0.0470  Tot=              1.8663
 Quadrupole moment (field-independent basis, Debye-Ang):
   XX=            -13.0663   YY=            -12.0083   ZZ=            -13.8230
   XY=              2.3758   XZ=              0.0004   YZ=              0.0514

 Normal termination of Gaussian 09 at Wed Aug 26 23:58:13 2020.
