 Gaussian 09, Revision D.01,
 Gaussian 09:  ES64L-G09RevD.01 24-Apr-2013

 --------------------
 #p B2PLYPD3/Def2QZVP
 --------------------

 --------
 methanol
 --------
 Symbolic Z-matrix:
 Charge =  0 Multiplicity = 1

                         Standard orientation:
 ---------------------------------------------------------------------
 Center     Atomic      Atomic             Coordinates (Angstroms)
 Number     Number       Type             X           Y           Z
 ---------------------------------------------------------------------
      1          6           0       -0.693488    0.036097    0.001771
      2          8           0        0.731314   -0.187937   -0.000574
      3          1           0       -1.065129    0.501069   -0.733045
      4          1           0       -0.826102    0.642781    0.750206
      5          1           0       -1.118269   -0.871797    0.049093
      6          1           0        1.319913    1.014861   -0.072286
 ---------------------------------------------------------------------

 SCF Done:  E(RB2PLYPD3) =  -115.443661967     A.U. after   12 cycles
 E2(B2PLYPD3) =    -0.1541364978D+00 E(B2PLYPD3) =    -0.11559779846451D+03

 The electronic state is 1-A.
 Alpha  occ. eigenvalues --  -19.74392 -10.61435  -1.10956  -0.80491  -0.56164
 Alpha  occ. eigenvalues --   -0.53425  -0.48083  -0.39926  -0.34686
 Alpha virt. eigenvalues --    0.00019   0.07571   0.12402   0.13202   0.14706
 Alpha virt. eigenvalues --    0.17431   0.17845   0.23464   0.29675   0.32276
 Alpha virt. eigenvalues --    0.34316   0.38741   0.39638   0.43788   0.45377

 Mulliken charges:
               1
     1  C    0.105170
     2  O   -0.504243
     3  H    0.043019
     4  H    0.048120
     5  H    0.068274
     6  H    0.239660
 Sum of Mulliken charges =   0.00000

 Dipole moment (field-independent basis, Debye):
    X=             -0.9968    Y=              1.7670    Z=             -0.1240  Tot=              2.0326
 Quadrupole moment (field-independent basis, Debye-Ang):
   XX=            -12.4996   YY=            -11.5103   ZZ=            -14.0500
   XY=              2.6375   XZ=              0.0867   YZ=             -0.0680

 Normal termination of Gaussian 09 at Wed Aug 26 23:28:16 2020.
