 Gaussian 09, Revision D.01,
 Gaussian 09:  ES64L-G09RevD.01 24-Apr-2013

 --------------------
 #p B2PLYPD3/Def2QZVP
 --------------------

 --------
 methanol
 --------
 Symbolic Z-matrix:
 Charge =  0 Multiplicity = 1

                         Standard orientation:
 ---------------------------------------------------------------------
 Center     Atomic      Atomic             Coordinates (Angstroms)
 Number     Number       Type             X           Y           Z
 ---------------------------------------------------------------------
      1          6           0       -0.666052   -0.002643    0.019737
      2          8           0        0.749682   -0.142245   -0.026293
      3          1           0       -1.233850    0.619154   -0.844657
      4          1           0       -1.039140    0.460846    0.886619
      5          1           0       -1.031528   -0.851927   -0.021670
      6          1           0        1.303375    0.925739    0.071629
 ---------------------------------------------------------------------

 SCF Done:  E(RB2PLYPD3) =  -115.480668056     A.U. after   11 cycles
 E2(B2PLYPD3) =    -0.1521911120D+00 E(B2PLYPD3) =    -0.11563285916794D+03

 The electronic state is 1-A.
 Alpha  occ. eigenvalues --  -19.74727 -10.64379  -1.12724  -0.79284  -0.56125
 Alpha  occ. eigenvalues --   -0.51255  -0.49204  -0.40645  -0.34578
 Alpha virt. eigenvalues --    0.02133   0.07187   0.12543   0.12916   0.15032
 Alpha virt. eigenvalues --    0.17236   0.18622   0.25980   0.29268   0.32665
 Alpha virt. eigenvalues --    0.34172   0.37063   0.38832   0.41327   0.43326

 Mulliken charges:
               1
     1  C    0.064512
     2  O   -0.489832
     3  H    0.024591
     4  H    0.047799
     5  H    0.088724
     6  H    0.264206
 Sum of Mulliken charges =   0.00000

 Dipole moment (field-independent basis, Debye):
    X=             -0.6765    Y=              1.5000    Z=              0.3323  Tot=              1.6787
 Quadrupole moment (field-independent basis, Debye-Ang):
   XX=            -12.3700   YY=            -12.0579   ZZ=            -14.2100
   XY=              2.7184   XZ=              0.1153   YZ=              0.2344

 Normal termination of Gaussian 09 at Wed Aug 26 22:02:35 2020.
