 Gaussian 09, Revision D.01,
 Gaussian 09:  ES64L-G09RevD.01 24-Apr-2013

 --------------------
 #p B2PLYPD3/Def2QZVP
 --------------------

 --------
 methanol
 --------
 Symbolic Z-matrix:
 Charge =  0 Multiplicity = 1

                         Standard orientation:
 ---------------------------------------------------------------------
 Center     Atomic      Atomic             Coordinates (Angstroms)
 Number     Number       Type             X           Y           Z
 ---------------------------------------------------------------------
      1          6           0        0.656724    0.032150    0.006124
      2          8           0       -0.739586   -0.151929   -0.015831
      3          1           0        1.020981    0.399172    0.897100
      4          1           0        1.072639    0.631033   -0.804885
      5          1           0        1.120635   -0.898656   -0.073450
      6          1           0       -1.237905    0.890982    0.071138
 ---------------------------------------------------------------------

 SCF Done:  E(RB2PLYPD3) =  -115.519190281     A.U. after   11 cycles
 E2(B2PLYPD3) =    -0.1505847323D+00 E(B2PLYPD3) =    -0.11566977501362D+03

 The electronic state is 1-A.
 Alpha  occ. eigenvalues --  -19.74154 -10.64014  -1.13540  -0.78605  -0.56221
 Alpha  occ. eigenvalues --   -0.51979  -0.49957  -0.40049  -0.35192
 Alpha virt. eigenvalues --    0.02990   0.07565   0.12616   0.12887   0.14916
 Alpha virt. eigenvalues --    0.17457   0.18623   0.27395   0.29488   0.33647
 Alpha virt. eigenvalues --    0.34587   0.38933   0.40093   0.41799   0.43601

 Mulliken charges:
               1
     1  C    0.075880
     2  O   -0.487378
     3  H    0.049140
     4  H    0.042541
     5  H    0.062130
     6  H    0.257687
 Sum of Mulliken charges =   0.00000

 Dipole moment (field-independent basis, Debye):
    X=              0.7837    Y=              1.6110    Z=              0.1922  Tot=              1.8018
 Quadrupole moment (field-independent basis, Debye-Ang):
   XX=            -12.6052   YY=            -12.1577   ZZ=            -13.9190
   XY=             -2.5497   XZ=             -0.1708   YZ=              0.1012

 Normal termination of Gaussian 09 at Wed Aug 26 10:44:47 2020.
