 Gaussian 09, Revision D.01,
 Gaussian 09:  ES64L-G09RevD.01 24-Apr-2013

 --------------------
 #p B2PLYPD3/Def2QZVP
 --------------------

 --------
 methanol
 --------
 Symbolic Z-matrix:
 Charge =  0 Multiplicity = 1

                         Standard orientation:
 ---------------------------------------------------------------------
 Center     Atomic      Atomic             Coordinates (Angstroms)
 Number     Number       Type             X           Y           Z
 ---------------------------------------------------------------------
      1          6           0        0.690631    0.011052    0.011751
      2          8           0       -0.757059   -0.057121   -0.021065
      3          1           0        1.135542   -0.077271    1.035699
      4          1           0        0.928148    1.098294   -0.547157
      5          1           0        0.970594   -0.970467   -0.613002
      6          1           0       -1.121600    0.340102    0.222480
 ---------------------------------------------------------------------

 SCF Done:  E(RB2PLYPD3) =  -115.174205738     A.U. after   11 cycles
 E2(B2PLYPD3) =    -0.1437608774D+00 E(B2PLYPD3) =    -0.11531796661491D+03

 The electronic state is 1-A.
 Alpha  occ. eigenvalues --  -19.67934 -10.70071  -1.27776  -0.83186  -0.61712
 Alpha  occ. eigenvalues --   -0.51237  -0.49353  -0.40055  -0.36213
 Alpha virt. eigenvalues --    0.05001   0.09398   0.11142   0.11706   0.14040
 Alpha virt. eigenvalues --    0.16304   0.17724   0.28582   0.30157   0.32947
 Alpha virt. eigenvalues --    0.35359   0.36223   0.38659   0.41043   0.42336

 Mulliken charges:
               1
     1  C    0.046227
     2  O   -0.157946
     3  H    0.070586
     4  H    0.050807
     5  H    0.089032
     6  H   -0.098706
 Sum of Mulliken charges =   0.00000

 Dipole moment (field-independent basis, Debye):
    X=              0.9955    Y=              0.8501    Z=              0.6462  Tot=              1.4599
 Quadrupole moment (field-independent basis, Debye-Ang):
   XX=            -13.0473   YY=            -12.6817   ZZ=            -13.2449
   XY=             -1.6508   XZ=             -0.5703   YZ=              0.3065

 Normal termination of Gaussian 09 at Wed Aug 26 20:49:03 2020.
