 Gaussian 09, Revision D.01,
 Gaussian 09:  ES64L-G09RevD.01 24-Apr-2013

 --------------------
 #p B2PLYPD3/Def2QZVP
 --------------------

 --------
 methanol
 --------
 Symbolic Z-matrix:
 Charge =  0 Multiplicity = 1

                         Standard orientation:
 ---------------------------------------------------------------------
 Center     Atomic      Atomic             Coordinates (Angstroms)
 Number     Number       Type             X           Y           Z
 ---------------------------------------------------------------------
      1          6           0       -0.668884    0.011554   -0.016728
      2          8           0        0.753030   -0.145245    0.005533
      3          1           0       -1.056152    0.505772   -0.844034
      4          1           0       -1.002146    0.558608    0.900992
      5          1           0       -1.117457   -0.868620    0.038548
      6          1           0        1.164815    0.896875   -0.039403
 ---------------------------------------------------------------------

 SCF Done:  E(RB2PLYPD3) =  -115.521547933     A.U. after   11 cycles
 E2(B2PLYPD3) =    -0.1501493384D+00 E(B2PLYPD3) =    -0.11567169727165D+03

 The electronic state is 1-A.
 Alpha  occ. eigenvalues --  -19.73887 -10.64086  -1.13301  -0.79166  -0.56426
 Alpha  occ. eigenvalues --   -0.51369  -0.50448  -0.41019  -0.35027
 Alpha virt. eigenvalues --    0.03474   0.07721   0.12411   0.12919   0.14676
 Alpha virt. eigenvalues --    0.17732   0.18357   0.28416   0.29841   0.32894
 Alpha virt. eigenvalues --    0.33881   0.38510   0.40968   0.41496   0.43561

 Mulliken charges:
               1
     1  C    0.081215
     2  O   -0.489728
     3  H    0.046847
     4  H    0.037114
     5  H    0.069701
     6  H    0.254852
 Sum of Mulliken charges =   0.00000

 Dipole moment (field-independent basis, Debye):
    X=             -0.9554    Y=              1.5774    Z=             -0.1344  Tot=              1.8490
 Quadrupole moment (field-independent basis, Debye-Ang):
   XX=            -12.9312   YY=            -12.0047   ZZ=            -13.8814
   XY=              2.5253   XZ=              0.0309   YZ=             -0.1474

 Normal termination of Gaussian 09 at Wed Aug 26 13:25:43 2020.
