 Gaussian 09, Revision D.01,
 Gaussian 09:  ES64L-G09RevD.01 24-Apr-2013

 --------------------
 #p B2PLYPD3/Def2QZVP
 --------------------

 --------
 methanol
 --------
 Symbolic Z-matrix:
 Charge =  0 Multiplicity = 1

                         Standard orientation:
 ---------------------------------------------------------------------
 Center     Atomic      Atomic             Coordinates (Angstroms)
 Number     Number       Type             X           Y           Z
 ---------------------------------------------------------------------
      1          6           0        0.681176   -0.002141   -0.011247
      2          8           0       -0.739847   -0.174203    0.013578
      3          1           0        1.079518    0.553786    0.801385
      4          1           0        1.018467    0.498232   -0.766368
      5          1           0        0.919105   -0.811326   -0.023063
      6          1           0       -1.185374    1.165778   -0.053097
 ---------------------------------------------------------------------

 SCF Done:  E(RB2PLYPD3) =  -115.387148008     A.U. after   11 cycles
 E2(B2PLYPD3) =    -0.1562722056D+00 E(B2PLYPD3) =    -0.11554342021384D+03

 The electronic state is 1-A.
 Alpha  occ. eigenvalues --  -19.75310 -10.60882  -1.11648  -0.81202  -0.58432
 Alpha  occ. eigenvalues --   -0.51551  -0.48298  -0.40418  -0.34923
 Alpha virt. eigenvalues --   -0.01483   0.07516   0.12770   0.12978   0.14784
 Alpha virt. eigenvalues --    0.17028   0.18213   0.22377   0.29506   0.33459
 Alpha virt. eigenvalues --    0.33954   0.37396   0.40968   0.41530   0.45361

 Mulliken charges:
               1
     1  C    0.022115
     2  O   -0.484709
     3  H    0.043969
     4  H    0.043399
     5  H    0.146380
     6  H    0.228846
 Sum of Mulliken charges =   0.00000

 Dipole moment (field-independent basis, Debye):
    X=              1.1792    Y=              1.6886    Z=             -0.1778  Tot=              2.0672
 Quadrupole moment (field-independent basis, Debye-Ang):
   XX=            -13.2206   YY=            -11.0615   ZZ=            -14.0312
   XY=             -2.2761   XZ=              0.0276   YZ=             -0.1081

 Normal termination of Gaussian 09 at Wed Aug 26 20:29:35 2020.
