 Gaussian 09, Revision D.01,
 Gaussian 09:  ES64L-G09RevD.01 24-Apr-2013

 --------------------
 #p B2PLYPD3/Def2QZVP
 --------------------

 --------
 methanol
 --------
 Symbolic Z-matrix:
 Charge =  0 Multiplicity = 1

                         Standard orientation:
 ---------------------------------------------------------------------
 Center     Atomic      Atomic             Coordinates (Angstroms)
 Number     Number       Type             X           Y           Z
 ---------------------------------------------------------------------
      1          6           0        0.662587    0.008972   -0.025693
      2          8           0       -0.725196   -0.155858    0.022033
      3          1           0        1.036265    0.590238    0.878530
      4          1           0        0.941156    0.496939   -0.828340
      5          1           0        1.051036   -0.839582    0.005432
      6          1           0       -1.202410    0.945434   -0.077734
 ---------------------------------------------------------------------

 SCF Done:  E(RB2PLYPD3) =  -115.484551667     A.U. after   11 cycles
 E2(B2PLYPD3) =    -0.1509573828D+00 E(B2PLYPD3) =    -0.11563550904974D+03

 The electronic state is 1-A.
 Alpha  occ. eigenvalues --  -19.73966 -10.62583  -1.13507  -0.79504  -0.57271
 Alpha  occ. eigenvalues --   -0.51646  -0.50830  -0.40668  -0.34468
 Alpha virt. eigenvalues --    0.02224   0.07827   0.12570   0.12993   0.14913
 Alpha virt. eigenvalues --    0.17484   0.18146   0.26357   0.29567   0.32819
 Alpha virt. eigenvalues --    0.34880   0.38428   0.40995   0.41969   0.45026

 Mulliken charges:
               1
     1  C    0.083865
     2  O   -0.488723
     3  H    0.031207
     4  H    0.042155
     5  H    0.076327
     6  H    0.255169
 Sum of Mulliken charges =   0.00000

 Dipole moment (field-independent basis, Debye):
    X=              0.8290    Y=              1.5877    Z=             -0.3039  Tot=              1.8167
 Quadrupole moment (field-independent basis, Debye-Ang):
   XX=            -12.9439   YY=            -11.7865   ZZ=            -13.8517
   XY=             -2.6113   XZ=              0.0805   YZ=             -0.2376

 Normal termination of Gaussian 09 at Wed Aug 26 12:56:31 2020.
