 Gaussian 09, Revision D.01,
 Gaussian 09:  ES64L-G09RevD.01 24-Apr-2013

 --------------------
 #p B2PLYPD3/Def2QZVP
 --------------------

 --------
 methanol
 --------
 Symbolic Z-matrix:
 Charge =  0 Multiplicity = 1

                         Standard orientation:
 ---------------------------------------------------------------------
 Center     Atomic      Atomic             Coordinates (Angstroms)
 Number     Number       Type             X           Y           Z
 ---------------------------------------------------------------------
      1          6           0       -0.669586    0.018935   -0.018299
      2          8           0        0.734428   -0.191175   -0.010359
      3          1           0       -1.179515    0.597973   -0.637685
      4          1           0       -0.996265    0.498952    0.756050
      5          1           0       -0.971447   -0.880500    0.047500
      6          1           0        1.289316    1.199359    0.026802
 ---------------------------------------------------------------------

 SCF Done:  E(RB2PLYPD3) =  -115.394858664     A.U. after   12 cycles
 E2(B2PLYPD3) =    -0.1583249715D+00 E(B2PLYPD3) =    -0.11555318363553D+03

 The electronic state is 1-A.
 Alpha  occ. eigenvalues --  -19.76045 -10.61249  -1.11769  -0.81206  -0.57465
 Alpha  occ. eigenvalues --   -0.50816  -0.48636  -0.39365  -0.34782
 Alpha virt. eigenvalues --   -0.03234   0.07297   0.12164   0.13612   0.14884
 Alpha virt. eigenvalues --    0.16948   0.18533   0.21169   0.29851   0.32944
 Alpha virt. eigenvalues --    0.34946   0.37328   0.39105   0.42288   0.45947

 Mulliken charges:
               1
     1  C    0.094841
     2  O   -0.462045
     3  H    0.041744
     4  H    0.040093
     5  H    0.068002
     6  H    0.217365
 Sum of Mulliken charges =   0.00000

 Dipole moment (field-independent basis, Debye):
    X=             -1.0885    Y=              1.7691    Z=              0.1334  Tot=              2.0814
 Quadrupole moment (field-independent basis, Debye-Ang):
   XX=            -12.8014   YY=            -11.0504   ZZ=            -14.4289
   XY=              2.2452   XZ=              0.0397   YZ=             -0.0014

 Normal termination of Gaussian 09 at Wed Aug 26 20:24:04 2020.
