 Gaussian 09, Revision D.01,
 Gaussian 09:  ES64L-G09RevD.01 24-Apr-2013

 --------------------
 #p B2PLYPD3/Def2QZVP
 --------------------

 --------
 methanol
 --------
 Symbolic Z-matrix:
 Charge =  0 Multiplicity = 1

                         Standard orientation:
 ---------------------------------------------------------------------
 Center     Atomic      Atomic             Coordinates (Angstroms)
 Number     Number       Type             X           Y           Z
 ---------------------------------------------------------------------
      1          6           0        0.701853    0.019839    0.005300
      2          8           0       -0.766796   -0.039783   -0.033148
      3          1           0        1.102561   -0.255247    1.107250
      4          1           0        0.922187    1.156629   -0.374179
      5          1           0        1.055387   -0.870192   -0.759171
      6          1           0       -1.156883    0.168041    0.259479
 ---------------------------------------------------------------------

 SCF Done:  E(RB2PLYPD3) =  -114.917251892     A.U. after   12 cycles
 E2(B2PLYPD3) =    -0.1441521759D+00 E(B2PLYPD3) =    -0.11506140406760D+03

 The electronic state is 1-A.
 Alpha  occ. eigenvalues --  -19.67183 -10.71783  -1.29786  -0.84072  -0.61081
 Alpha  occ. eigenvalues --   -0.51075  -0.49199  -0.38799  -0.36361
 Alpha virt. eigenvalues --    0.04689   0.09620   0.11117   0.11182   0.13283
 Alpha virt. eigenvalues --    0.16394   0.17419   0.28354   0.29422   0.32505
 Alpha virt. eigenvalues --    0.34389   0.34784   0.36908   0.41212   0.42304

 Mulliken charges:
               1
     1  C    0.060394
     2  O   -0.120958
     3  H    0.062095
     4  H    0.074310
     5  H    0.092933
     6  H   -0.168774
 Sum of Mulliken charges =   0.00000

 Dipole moment (field-independent basis, Debye):
    X=              1.1148    Y=              0.5303    Z=              0.7623  Tot=              1.4509
 Quadrupole moment (field-independent basis, Debye-Ang):
   XX=            -12.8259   YY=            -12.8953   ZZ=            -13.0095
   XY=             -1.1581   XZ=             -1.1595   YZ=              0.1902

 Normal termination of Gaussian 09 at Wed Aug 26 22:41:49 2020.
