 Gaussian 09, Revision D.01,
 Gaussian 09:  ES64L-G09RevD.01 24-Apr-2013

 --------------------
 #p B2PLYPD3/Def2QZVP
 --------------------

 --------
 methanol
 --------
 Symbolic Z-matrix:
 Charge =  0 Multiplicity = 1

                         Standard orientation:
 ---------------------------------------------------------------------
 Center     Atomic      Atomic             Coordinates (Angstroms)
 Number     Number       Type             X           Y           Z
 ---------------------------------------------------------------------
      1          6           0        0.658833    0.003413    0.015290
      2          8           0       -0.722651   -0.148526   -0.015903
      3          1           0        0.953285    0.350898    0.907950
      4          1           0        0.910257    0.729074   -0.798161
      5          1           0        1.033796   -0.844769   -0.176340
      6          1           0       -1.069126    0.932525    0.102030
 ---------------------------------------------------------------------

 SCF Done:  E(RB2PLYPD3) =  -115.503023929     A.U. after   11 cycles
 E2(B2PLYPD3) =    -0.1497683912D+00 E(B2PLYPD3) =    -0.11565279232029D+03

 The electronic state is 1-A.
 Alpha  occ. eigenvalues --  -19.73423 -10.62756  -1.14633  -0.79037  -0.57759
 Alpha  occ. eigenvalues --   -0.52923  -0.50561  -0.41004  -0.34515
 Alpha virt. eigenvalues --    0.03053   0.08229   0.12323   0.12878   0.14694
 Alpha virt. eigenvalues --    0.17575   0.17841   0.27973   0.29594   0.32891
 Alpha virt. eigenvalues --    0.34711   0.38551   0.42219   0.42592   0.44477

 Mulliken charges:
               1
     1  C    0.082784
     2  O   -0.477139
     3  H    0.043198
     4  H    0.027900
     5  H    0.072637
     6  H    0.250620
 Sum of Mulliken charges =   0.00000

 Dipole moment (field-independent basis, Debye):
    X=              0.9634    Y=              1.5624    Z=              0.2530  Tot=              1.8529
 Quadrupole moment (field-independent basis, Debye-Ang):
   XX=            -13.5712   YY=            -11.6869   ZZ=            -13.6770
   XY=             -2.4231   XZ=             -0.1176   YZ=              0.2620

 Normal termination of Gaussian 09 at Wed Aug 26 23:31:22 2020.
