 Gaussian 09, Revision D.01,
 Gaussian 09:  ES64L-G09RevD.01 24-Apr-2013

 --------------------
 #p B2PLYPD3/Def2QZVP
 --------------------

 --------
 methanol
 --------
 Symbolic Z-matrix:
 Charge =  0 Multiplicity = 1

                         Standard orientation:
 ---------------------------------------------------------------------
 Center     Atomic      Atomic             Coordinates (Angstroms)
 Number     Number       Type             X           Y           Z
 ---------------------------------------------------------------------
      1          6           0        0.647797    0.019842    0.019415
      2          8           0       -0.742345   -0.146200   -0.022714
      3          1           0        0.970182    0.364844    0.899948
      4          1           0        1.075335    0.656694   -0.808661
      5          1           0        1.112608   -0.889417   -0.109393
      6          1           0       -1.106153    0.918431    0.083326
 ---------------------------------------------------------------------

 SCF Done:  E(RB2PLYPD3) =  -115.519446344     A.U. after   11 cycles
 E2(B2PLYPD3) =    -0.1500939086D+00 E(B2PLYPD3) =    -0.11566954025289D+03

 The electronic state is 1-A.
 Alpha  occ. eigenvalues --  -19.74126 -10.63876  -1.14505  -0.78732  -0.56886
 Alpha  occ. eigenvalues --   -0.52338  -0.50197  -0.40638  -0.35223
 Alpha virt. eigenvalues --    0.03295   0.07787   0.12443   0.12835   0.14793
 Alpha virt. eigenvalues --    0.17824   0.18460   0.27976   0.29548   0.33313
 Alpha virt. eigenvalues --    0.34801   0.38333   0.40801   0.41854   0.43894

 Mulliken charges:
               1
     1  C    0.079244
     2  O   -0.475286
     3  H    0.048149
     4  H    0.032635
     5  H    0.060517
     6  H    0.254741
 Sum of Mulliken charges =   0.00000

 Dipole moment (field-independent basis, Debye):
    X=              0.9238    Y=              1.5897    Z=              0.2719  Tot=              1.8586
 Quadrupole moment (field-independent basis, Debye-Ang):
   XX=            -13.2179   YY=            -11.9782   ZZ=            -13.8249
   XY=             -2.3949   XZ=             -0.1782   YZ=              0.2043

 Normal termination of Gaussian 09 at Wed Aug 26 12:41:42 2020.
