 Gaussian 09, Revision D.01,
 Gaussian 09:  ES64L-G09RevD.01 24-Apr-2013

 --------------------
 #p B2PLYPD3/Def2QZVP
 --------------------

 --------
 methanol
 --------
 Symbolic Z-matrix:
 Charge =  0 Multiplicity = 1

                         Standard orientation:
 ---------------------------------------------------------------------
 Center     Atomic      Atomic             Coordinates (Angstroms)
 Number     Number       Type             X           Y           Z
 ---------------------------------------------------------------------
      1          6           0        0.662859    0.047546    0.005672
      2          8           0       -0.723929   -0.195036   -0.008957
      3          1           0        1.125957    0.400733    0.761314
      4          1           0        0.969138    0.674856   -0.728042
      5          1           0        1.119250   -0.851293   -0.087314
      6          1           0       -1.400061    1.050714    0.091668
 ---------------------------------------------------------------------

 SCF Done:  E(RB2PLYPD3) =  -115.432716204     A.U. after   12 cycles
 E2(B2PLYPD3) =    -0.1557343533D+00 E(B2PLYPD3) =    -0.11558845055769D+03

 The electronic state is 1-A.
 Alpha  occ. eigenvalues --  -19.75420 -10.61849  -1.11909  -0.80390  -0.54912
 Alpha  occ. eigenvalues --   -0.52668  -0.49057  -0.38932  -0.35010
 Alpha virt. eigenvalues --   -0.01784   0.07305   0.12604   0.13315   0.15017
 Alpha virt. eigenvalues --    0.17312   0.18679   0.21895   0.29587   0.33303
 Alpha virt. eigenvalues --    0.35204   0.38411   0.38991   0.43160   0.45426

 Mulliken charges:
               1
     1  C    0.099458
     2  O   -0.480166
     3  H    0.043289
     4  H    0.039731
     5  H    0.059126
     6  H    0.238562
 Sum of Mulliken charges =   0.00000

 Dipole moment (field-independent basis, Debye):
    X=              0.8229    Y=              1.7268    Z=              0.1893  Tot=              1.9222
 Quadrupole moment (field-independent basis, Debye-Ang):
   XX=            -12.0715   YY=            -11.7628   ZZ=            -14.1992
   XY=             -2.6864   XZ=             -0.0149   YZ=              0.0835

 Normal termination of Gaussian 09 at Wed Aug 26 19:52:29 2020.
