 Gaussian 09, Revision D.01,
 Gaussian 09:  ES64L-G09RevD.01 24-Apr-2013

 --------------------
 #p B2PLYPD3/Def2QZVP
 --------------------

 --------
 methanol
 --------
 Symbolic Z-matrix:
 Charge =  0 Multiplicity = 1

                         Standard orientation:
 ---------------------------------------------------------------------
 Center     Atomic      Atomic             Coordinates (Angstroms)
 Number     Number       Type             X           Y           Z
 ---------------------------------------------------------------------
      1          6           0        0.669071   -0.016401   -0.004434
      2          8           0       -0.759292    0.101319   -0.002612
      3          1           0        1.018344   -0.637402   -0.879542
      4          1           0        1.090718   -0.440135    0.970059
      5          1           0        1.063386    1.018856   -0.095733
      6          1           0       -1.112538   -0.653464    0.052714
 ---------------------------------------------------------------------

 SCF Done:  E(RB2PLYPD3) =  -115.531817291     A.U. after   10 cycles
 E2(B2PLYPD3) =    -0.1457714980D+00 E(B2PLYPD3) =    -0.11567758878915D+03

 The electronic state is 1-A.
 Alpha  occ. eigenvalues --  -19.71472 -10.67191  -1.18991  -0.79324  -0.59956
 Alpha  occ. eigenvalues --   -0.51287  -0.49796  -0.41274  -0.35781
 Alpha virt. eigenvalues --    0.05350   0.08576   0.12037   0.12246   0.14654
 Alpha virt. eigenvalues --    0.17081   0.18108   0.28896   0.32576   0.33294
 Alpha virt. eigenvalues --    0.37025   0.38909   0.39621   0.39738   0.42814

 Mulliken charges:
               1
     1  C    0.060560
     2  O   -0.390089
     3  H    0.051314
     4  H    0.049591
     5  H    0.075357
     6  H    0.153267
 Sum of Mulliken charges =   0.00000

 Dipole moment (field-independent basis, Debye):
    X=              0.9332    Y=             -1.3563    Z=              0.0811  Tot=              1.6483
 Quadrupole moment (field-independent basis, Debye-Ang):
   XX=            -13.0874   YY=            -12.4154   ZZ=            -13.6989
   XY=              2.1057   XZ=             -0.1095   YZ=             -0.0430

 Normal termination of Gaussian 09 at Wed Aug 26 10:41:28 2020.
