 Gaussian 09, Revision D.01,
 Gaussian 09:  ES64L-G09RevD.01 24-Apr-2013

 --------------------
 #p B2PLYPD3/Def2QZVP
 --------------------

 --------
 methanol
 --------
 Symbolic Z-matrix:
 Charge =  0 Multiplicity = 1

                         Standard orientation:
 ---------------------------------------------------------------------
 Center     Atomic      Atomic             Coordinates (Angstroms)
 Number     Number       Type             X           Y           Z
 ---------------------------------------------------------------------
      1          6           0        0.670115    0.009264   -0.001499
      2          8           0       -0.754980   -0.138793    0.003541
      3          1           0        1.078347    0.530827    0.858115
      4          1           0        1.042109    0.536759   -0.854548
      5          1           0        1.053692   -0.915534   -0.015324
      6          1           0       -1.154995    0.902704   -0.007575
 ---------------------------------------------------------------------

 SCF Done:  E(RB2PLYPD3) =  -115.527000356     A.U. after   11 cycles
 E2(B2PLYPD3) =    -0.1501804750D+00 E(B2PLYPD3) =    -0.11567718083082D+03

 The electronic state is 1-A.
 Alpha  occ. eigenvalues --  -19.73912 -10.64208  -1.13354  -0.78919  -0.56836
 Alpha  occ. eigenvalues --   -0.51113  -0.49830  -0.41450  -0.35123
 Alpha virt. eigenvalues --    0.03576   0.07738   0.12597   0.12663   0.14959
 Alpha virt. eigenvalues --    0.17351   0.18280   0.28527   0.30029   0.33475
 Alpha virt. eigenvalues --    0.33681   0.38657   0.40434   0.40950   0.43689

 Mulliken charges:
               1
     1  C    0.078919
     2  O   -0.488766
     3  H    0.042859
     4  H    0.043106
     5  H    0.072295
     6  H    0.251587
 Sum of Mulliken charges =   0.00000

 Dipole moment (field-independent basis, Debye):
    X=              0.9714    Y=              1.5937    Z=             -0.0370  Tot=              1.8668
 Quadrupole moment (field-independent basis, Debye-Ang):
   XX=            -13.0215   YY=            -11.8643   ZZ=            -13.9653
   XY=             -2.3751   XZ=              0.0257   YZ=             -0.0163

 Normal termination of Gaussian 09 at Thu Aug 27 00:15:06 2020.
