 Gaussian 09, Revision D.01,
 Gaussian 09:  ES64L-G09RevD.01 24-Apr-2013

 --------------------
 #p B2PLYPD3/Def2QZVP
 --------------------

 --------
 methanol
 --------
 Symbolic Z-matrix:
 Charge =  0 Multiplicity = 1

                         Standard orientation:
 ---------------------------------------------------------------------
 Center     Atomic      Atomic             Coordinates (Angstroms)
 Number     Number       Type             X           Y           Z
 ---------------------------------------------------------------------
      1          6           0        0.674343   -0.011193    0.004260
      2          8           0       -0.745955    0.079913   -0.004083
      3          1           0        1.089555   -0.621935   -0.885264
      4          1           0        0.999092   -0.525498    0.955023
      5          1           0        0.994591    1.109855   -0.048232
      6          1           0       -1.161658   -0.534565   -0.014427
 ---------------------------------------------------------------------

 SCF Done:  E(RB2PLYPD3) =  -115.467274146     A.U. after   11 cycles
 E2(B2PLYPD3) =    -0.1444243018D+00 E(B2PLYPD3) =    -0.11561169844729D+03

 The electronic state is 1-A.
 Alpha  occ. eigenvalues --  -19.69839 -10.68191  -1.21721  -0.81017  -0.61192
 Alpha  occ. eigenvalues --   -0.51196  -0.49703  -0.40430  -0.35685
 Alpha virt. eigenvalues --    0.05377   0.09042   0.11703   0.12104   0.14782
 Alpha virt. eigenvalues --    0.16573   0.17652   0.29046   0.32459   0.33177
 Alpha virt. eigenvalues --    0.37047   0.38287   0.39394   0.40169   0.42079

 Mulliken charges:
               1
     1  C    0.055641
     2  O   -0.294818
     3  H    0.048335
     4  H    0.055129
     5  H    0.082311
     6  H    0.053401
 Sum of Mulliken charges =   0.00000

 Dipole moment (field-independent basis, Debye):
    X=              0.8049    Y=             -1.2506    Z=              0.0033  Tot=              1.4872
 Quadrupole moment (field-independent basis, Debye-Ang):
   XX=            -12.9172   YY=            -12.4255   ZZ=            -13.6953
   XY=              1.8718   XZ=             -0.0264   YZ=             -0.0169

 Normal termination of Gaussian 09 at Wed Aug 26 12:04:30 2020.
