 Gaussian 09, Revision D.01,
 Gaussian 09:  ES64L-G09RevD.01 24-Apr-2013

 --------------------
 #p B2PLYPD3/Def2QZVP
 --------------------

 --------
 methanol
 --------
 Symbolic Z-matrix:
 Charge =  0 Multiplicity = 1

                         Standard orientation:
 ---------------------------------------------------------------------
 Center     Atomic      Atomic             Coordinates (Angstroms)
 Number     Number       Type             X           Y           Z
 ---------------------------------------------------------------------
      1          6           0       -0.670903    0.015943   -0.002264
      2          8           0        0.760318   -0.136753   -0.015804
      3          1           0       -1.128433    0.627744   -0.780087
      4          1           0       -1.010955    0.410988    0.904714
      5          1           0       -1.057473   -0.940214   -0.047254
      6          1           0        1.139733    0.899848    0.062640
 ---------------------------------------------------------------------

 SCF Done:  E(RB2PLYPD3) =  -115.529411507     A.U. after   11 cycles
 E2(B2PLYPD3) =    -0.1502702217D+00 E(B2PLYPD3) =    -0.11567968172922D+03

 The electronic state is 1-A.
 Alpha  occ. eigenvalues --  -19.73973 -10.64395  -1.13347  -0.78858  -0.56802
 Alpha  occ. eigenvalues --   -0.51309  -0.49275  -0.41503  -0.35327
 Alpha virt. eigenvalues --    0.03707   0.07700   0.12406   0.12738   0.14950
 Alpha virt. eigenvalues --    0.17267   0.18431   0.28527   0.30186   0.33074
 Alpha virt. eigenvalues --    0.34010   0.38696   0.39975   0.40982   0.43897

 Mulliken charges:
               1
     1  C    0.076979
     2  O   -0.486232
     3  H    0.044268
     4  H    0.047318
     5  H    0.067938
     6  H    0.249728
 Sum of Mulliken charges =   0.00000

 Dipole moment (field-independent basis, Debye):
    X=             -1.0121    Y=              1.6040    Z=              0.1756  Tot=              1.9047
 Quadrupole moment (field-independent basis, Debye-Ang):
   XX=            -13.0699   YY=            -11.8787   ZZ=            -13.9619
   XY=              2.2848   XZ=              0.1888   YZ=              0.0767

 Normal termination of Gaussian 09 at Wed Aug 26 11:57:46 2020.
