 Gaussian 09, Revision D.01,
 Gaussian 09:  ES64L-G09RevD.01 24-Apr-2013

 --------------------
 #p B2PLYPD3/Def2QZVP
 --------------------

 --------
 methanol
 --------
 Symbolic Z-matrix:
 Charge =  0 Multiplicity = 1

                         Standard orientation:
 ---------------------------------------------------------------------
 Center     Atomic      Atomic             Coordinates (Angstroms)
 Number     Number       Type             X           Y           Z
 ---------------------------------------------------------------------
      1          6           0        0.673980    0.018742    0.000375
      2          8           0       -0.737683   -0.163528   -0.008033
      3          1           0        1.069569    0.394900    0.892527
      4          1           0        0.974596    0.652435   -0.805942
      5          1           0        1.088036   -0.808362   -0.105558
      6          1           0       -1.274620    0.956797    0.080983
 ---------------------------------------------------------------------

 SCF Done:  E(RB2PLYPD3) =  -115.481537619     A.U. after   11 cycles
 E2(B2PLYPD3) =    -0.1521023286D+00 E(B2PLYPD3) =    -0.11563363994791D+03

 The electronic state is 1-A.
 Alpha  occ. eigenvalues --  -19.74274 -10.62736  -1.12139  -0.79751  -0.55314
 Alpha  occ. eigenvalues --   -0.51995  -0.50392  -0.40087  -0.34865
 Alpha virt. eigenvalues --    0.01626   0.07592   0.12655   0.13091   0.14739
 Alpha virt. eigenvalues --    0.17467   0.18487   0.25280   0.29471   0.33228
 Alpha virt. eigenvalues --    0.34119   0.38528   0.41324   0.42318   0.43293

 Mulliken charges:
               1
     1  C    0.079613
     2  O   -0.500939
     3  H    0.045545
     4  H    0.041933
     5  H    0.076764
     6  H    0.257084
 Sum of Mulliken charges =   0.00000

 Dipole moment (field-independent basis, Debye):
    X=              0.8677    Y=              1.6057    Z=              0.1333  Tot=              1.8300
 Quadrupole moment (field-independent basis, Debye-Ang):
   XX=            -12.5328   YY=            -11.9250   ZZ=            -13.8800
   XY=             -2.7306   XZ=             -0.1238   YZ=              0.1044

 Normal termination of Gaussian 09 at Wed Aug 26 13:53:53 2020.
