 Gaussian 09, Revision D.01,
 Gaussian 09:  ES64L-G09RevD.01 24-Apr-2013

 --------------------
 #p B2PLYPD3/Def2QZVP
 --------------------

 --------
 methanol
 --------
 Symbolic Z-matrix:
 Charge =  0 Multiplicity = 1

                         Standard orientation:
 ---------------------------------------------------------------------
 Center     Atomic      Atomic             Coordinates (Angstroms)
 Number     Number       Type             X           Y           Z
 ---------------------------------------------------------------------
      1          6           0       -0.653444    0.025561   -0.016488
      2          8           0        0.743220   -0.155062    0.003612
      3          1           0       -1.075142    0.527806   -0.758255
      4          1           0       -1.146580    0.516143    0.788790
      5          1           0       -0.986439   -0.981953    0.020129
      6          1           0        1.183069    1.025136    0.019372
 ---------------------------------------------------------------------

 SCF Done:  E(RB2PLYPD3) =  -115.484748447     A.U. after   11 cycles
 E2(B2PLYPD3) =    -0.1532253478D+00 E(B2PLYPD3) =    -0.11563797379467D+03

 The electronic state is 1-A.
 Alpha  occ. eigenvalues --  -19.75226 -10.63487  -1.13160  -0.78945  -0.57011
 Alpha  occ. eigenvalues --   -0.51135  -0.48793  -0.40497  -0.35096
 Alpha virt. eigenvalues --    0.01300   0.07451   0.12076   0.13197   0.15471
 Alpha virt. eigenvalues --    0.16996   0.18475   0.24703   0.29532   0.33969
 Alpha virt. eigenvalues --    0.34438   0.37816   0.38672   0.41883   0.45458

 Mulliken charges:
               1
     1  C    0.078312
     2  O   -0.468142
     3  H    0.046423
     4  H    0.036410
     5  H    0.060866
     6  H    0.246130
 Sum of Mulliken charges =   0.00000

 Dipole moment (field-independent basis, Debye):
    X=             -0.9141    Y=              1.7331    Z=             -0.0286  Tot=              1.9596
 Quadrupole moment (field-independent basis, Debye-Ang):
   XX=            -13.0431   YY=            -11.5413   ZZ=            -14.2786
   XY=              2.1557   XZ=              0.0486   YZ=             -0.0748

 Normal termination of Gaussian 09 at Wed Aug 26 21:01:52 2020.
