 Gaussian 09, Revision D.01,
 Gaussian 09:  ES64L-G09RevD.01 24-Apr-2013

 --------------------
 #p B2PLYPD3/Def2QZVP
 --------------------

 --------
 methanol
 --------
 Symbolic Z-matrix:
 Charge =  0 Multiplicity = 1

                         Standard orientation:
 ---------------------------------------------------------------------
 Center     Atomic      Atomic             Coordinates (Angstroms)
 Number     Number       Type             X           Y           Z
 ---------------------------------------------------------------------
      1          6           0        0.664880   -0.000763    0.000006
      2          8           0       -0.721503   -0.172233   -0.006339
      3          1           0        1.058840    0.373583    0.839518
      4          1           0        0.867898    0.735206   -0.753731
      5          1           0        1.005309   -0.793754   -0.144673
      6          1           0       -1.149304    1.067403    0.109564
 ---------------------------------------------------------------------

 SCF Done:  E(RB2PLYPD3) =  -115.434425288     A.U. after   11 cycles
 E2(B2PLYPD3) =    -0.1533351430D+00 E(B2PLYPD3) =    -0.11558776043125D+03

 The electronic state is 1-A.
 Alpha  occ. eigenvalues --  -19.74499 -10.61397  -1.13050  -0.80103  -0.57660
 Alpha  occ. eigenvalues --   -0.52477  -0.49662  -0.40498  -0.34319
 Alpha virt. eigenvalues --    0.00149   0.07848   0.12690   0.12902   0.14807
 Alpha virt. eigenvalues --    0.17393   0.18029   0.23824   0.29610   0.32600
 Alpha virt. eigenvalues --    0.34972   0.38069   0.41297   0.43228   0.44701

 Mulliken charges:
               1
     1  C    0.061761
     2  O   -0.481019
     3  H    0.038266
     4  H    0.033079
     5  H    0.103609
     6  H    0.244305
 Sum of Mulliken charges =   0.00000

 Dipole moment (field-independent basis, Debye):
    X=              1.0081    Y=              1.6560    Z=              0.1949  Tot=              1.9485
 Quadrupole moment (field-independent basis, Debye-Ang):
   XX=            -13.3025   YY=            -11.2980   ZZ=            -13.9358
   XY=             -2.5176   XZ=             -0.0070   YZ=              0.2130

 Normal termination of Gaussian 09 at Wed Aug 26 21:04:39 2020.
