 Gaussian 09, Revision D.01,
 Gaussian 09:  ES64L-G09RevD.01 24-Apr-2013

 --------------------
 #p B2PLYPD3/Def2QZVP
 --------------------

 --------
 methanol
 --------
 Symbolic Z-matrix:
 Charge =  0 Multiplicity = 1

                         Standard orientation:
 ---------------------------------------------------------------------
 Center     Atomic      Atomic             Coordinates (Angstroms)
 Number     Number       Type             X           Y           Z
 ---------------------------------------------------------------------
      1          6           0        0.661991   -0.049368    0.005715
      2          8           0       -0.755246    0.084111   -0.011681
      3          1           0        1.048492   -0.854462   -0.724985
      4          1           0        1.199973   -0.194864    0.972592
      5          1           0        1.081876    1.144976   -0.314974
      6          1           0       -1.260320   -0.472330    0.126520
 ---------------------------------------------------------------------

 SCF Done:  E(RB2PLYPD3) =  -115.463109965     A.U. after   11 cycles
 E2(B2PLYPD3) =    -0.1458002073D+00 E(B2PLYPD3) =    -0.11560891017212D+03

 The electronic state is 1-A.
 Alpha  occ. eigenvalues --  -19.70814 -10.69611  -1.20990  -0.80633  -0.62015
 Alpha  occ. eigenvalues --   -0.51374  -0.47959  -0.38450  -0.36143
 Alpha virt. eigenvalues --    0.05087   0.08377   0.10874   0.12263   0.14904
 Alpha virt. eigenvalues --    0.16602   0.18534   0.28596   0.31964   0.33068
 Alpha virt. eigenvalues --    0.33825   0.38217   0.38938   0.39590   0.41946

 Mulliken charges:
               1
     1  C    0.039448
     2  O   -0.302589
     3  H    0.059775
     4  H    0.068459
     5  H    0.055683
     6  H    0.079225
 Sum of Mulliken charges =   0.00000

 Dipole moment (field-independent basis, Debye):
    X=              0.6041    Y=             -1.2911    Z=              0.3742  Tot=              1.4737
 Quadrupole moment (field-independent basis, Debye-Ang):
   XX=            -12.2354   YY=            -12.9510   ZZ=            -13.9252
   XY=              1.7141   XZ=             -0.2063   YZ=             -0.0135

 Normal termination of Gaussian 09 at Wed Aug 26 20:46:26 2020.
