 Gaussian 09, Revision D.01,
 Gaussian 09:  ES64L-G09RevD.01 24-Apr-2013

 --------------------
 #p B2PLYPD3/Def2QZVP
 --------------------

 --------
 methanol
 --------
 Symbolic Z-matrix:
 Charge =  0 Multiplicity = 1

                         Standard orientation:
 ---------------------------------------------------------------------
 Center     Atomic      Atomic             Coordinates (Angstroms)
 Number     Number       Type             X           Y           Z
 ---------------------------------------------------------------------
      1          6           0        0.673342    0.017508   -0.019644
      2          8           0       -0.721745   -0.192110    0.020570
      3          1           0        1.151659    0.562518    0.761572
      4          1           0        0.945703    0.537631   -0.723762
      5          1           0        0.971647   -0.820813   -0.046518
      6          1           0       -1.335100    1.152498   -0.037993
 ---------------------------------------------------------------------

 SCF Done:  E(RB2PLYPD3) =  -115.381856818     A.U. after   12 cycles
 E2(B2PLYPD3) =    -0.1571868009D+00 E(B2PLYPD3) =    -0.11553904361874D+03

 The electronic state is 1-A.
 Alpha  occ. eigenvalues --  -19.75539 -10.60715  -1.12007  -0.81093  -0.58251
 Alpha  occ. eigenvalues --   -0.51327  -0.48939  -0.39425  -0.34730
 Alpha virt. eigenvalues --   -0.02812   0.07424   0.12594   0.13370   0.14922
 Alpha virt. eigenvalues --    0.17101   0.18241   0.21450   0.29649   0.32979
 Alpha virt. eigenvalues --    0.34900   0.37816   0.39907   0.41695   0.46526

 Mulliken charges:
               1
     1  C    0.059872
     2  O   -0.474730
     3  H    0.037547
     4  H    0.053530
     5  H    0.100520
     6  H    0.223261
 Sum of Mulliken charges =   0.00000

 Dipole moment (field-independent basis, Debye):
    X=              0.9809    Y=              1.7031    Z=             -0.2195  Tot=              1.9776
 Quadrupole moment (field-independent basis, Debye-Ang):
   XX=            -12.6233   YY=            -11.2278   ZZ=            -14.1952
   XY=             -2.5021   XZ=              0.0508   YZ=             -0.1345

 Normal termination of Gaussian 09 at Wed Aug 26 23:21:51 2020.
