 Gaussian 09, Revision D.01,
 Gaussian 09:  ES64L-G09RevD.01 24-Apr-2013

 --------------------
 #p B2PLYPD3/Def2QZVP
 --------------------

 --------
 methanol
 --------
 Symbolic Z-matrix:
 Charge =  0 Multiplicity = 1

                         Standard orientation:
 ---------------------------------------------------------------------
 Center     Atomic      Atomic             Coordinates (Angstroms)
 Number     Number       Type             X           Y           Z
 ---------------------------------------------------------------------
      1          6           0        0.643505    0.013853    0.009890
      2          8           0       -0.740150   -0.152231   -0.004202
      3          1           0        1.028100    0.490674    0.854842
      4          1           0        1.107266    0.552201   -0.820266
      5          1           0        1.069169   -0.888018   -0.046388
      6          1           0       -1.144365    0.979873   -0.013910
 ---------------------------------------------------------------------

 SCF Done:  E(RB2PLYPD3) =  -115.504415112     A.U. after   11 cycles
 E2(B2PLYPD3) =    -0.1514846098D+00 E(B2PLYPD3) =    -0.11565589972199D+03

 The electronic state is 1-A.
 Alpha  occ. eigenvalues --  -19.74735 -10.63540  -1.14047  -0.78696  -0.56574
 Alpha  occ. eigenvalues --   -0.51649  -0.50172  -0.40663  -0.34957
 Alpha virt. eigenvalues --    0.02175   0.07603   0.12742   0.12775   0.15121
 Alpha virt. eigenvalues --    0.17584   0.18494   0.26053   0.29531   0.33481
 Alpha virt. eigenvalues --    0.35343   0.38316   0.40262   0.41715   0.43699

 Mulliken charges:
               1
     1  C    0.079087
     2  O   -0.473735
     3  H    0.041764
     4  H    0.031938
     5  H    0.064207
     6  H    0.256739
 Sum of Mulliken charges =   0.00000

 Dipole moment (field-independent basis, Debye):
    X=              0.8757    Y=              1.6397    Z=              0.0225  Tot=              1.8591
 Quadrupole moment (field-independent basis, Debye-Ang):
   XX=            -13.0787   YY=            -11.7752   ZZ=            -14.0598
   XY=             -2.4143   XZ=              0.0006   YZ=              0.0542

 Normal termination of Gaussian 09 at Wed Aug 26 15:59:36 2020.
