 Gaussian 09, Revision D.01,
 Gaussian 09:  ES64L-G09RevD.01 24-Apr-2013

 --------------------
 #p B2PLYPD3/Def2QZVP
 --------------------

 --------
 methanol
 --------
 Symbolic Z-matrix:
 Charge =  0 Multiplicity = 1

                         Standard orientation:
 ---------------------------------------------------------------------
 Center     Atomic      Atomic             Coordinates (Angstroms)
 Number     Number       Type             X           Y           Z
 ---------------------------------------------------------------------
      1          6           0       -0.667435   -0.021909    0.003502
      2          8           0        0.749771    0.100834   -0.011619
      3          1           0       -0.973670   -0.498996    0.953311
      4          1           0       -1.039659   -0.574275   -0.915117
      5          1           0       -1.060737    1.030040   -0.011234
      6          1           0        1.080505   -0.631985    0.044979
 ---------------------------------------------------------------------

 SCF Done:  E(RB2PLYPD3) =  -115.520158899     A.U. after   10 cycles
 E2(B2PLYPD3) =    -0.1450374674D+00 E(B2PLYPD3) =    -0.11566519636671D+03

 The electronic state is 1-A.
 Alpha  occ. eigenvalues --  -19.70883 -10.66889  -1.20202  -0.79706  -0.60306
 Alpha  occ. eigenvalues --   -0.52128  -0.49914  -0.41190  -0.35848
 Alpha virt. eigenvalues --    0.05397   0.08910   0.12000   0.12219   0.14512
 Alpha virt. eigenvalues --    0.17094   0.17949   0.28884   0.32878   0.33153
 Alpha virt. eigenvalues --    0.37405   0.38812   0.40048   0.40406   0.43395

 Mulliken charges:
               1
     1  C    0.061746
     2  O   -0.362221
     3  H    0.052610
     4  H    0.051216
     5  H    0.072522
     6  H    0.124127
 Sum of Mulliken charges =   0.00000

 Dipole moment (field-independent basis, Debye):
    X=             -0.9449    Y=             -1.3508    Z=              0.1378  Tot=              1.6542
 Quadrupole moment (field-independent basis, Debye-Ang):
   XX=            -13.2670   YY=            -12.4040   ZZ=            -13.5288
   XY=             -2.0501   XZ=              0.1670   YZ=             -0.0657

 Normal termination of Gaussian 09 at Wed Aug 26 10:45:11 2020.
