 Gaussian 09, Revision D.01,
 Gaussian 09:  ES64L-G09RevD.01 24-Apr-2013

 --------------------
 #p B2PLYPD3/Def2QZVP
 --------------------

 --------
 methanol
 --------
 Symbolic Z-matrix:
 Charge =  0 Multiplicity = 1

                         Standard orientation:
 ---------------------------------------------------------------------
 Center     Atomic      Atomic             Coordinates (Angstroms)
 Number     Number       Type             X           Y           Z
 ---------------------------------------------------------------------
      1          6           0        0.652703    0.036543   -0.008497
      2          8           0       -0.753960   -0.164501   -0.002327
      3          1           0        1.055870    0.446030    0.824868
      4          1           0        1.044788    0.556855   -0.757557
      5          1           0        1.126682   -0.930824   -0.025768
      6          1           0       -1.111877    1.024688    0.028056
 ---------------------------------------------------------------------

 SCF Done:  E(RB2PLYPD3) =  -115.488834489     A.U. after   11 cycles
 E2(B2PLYPD3) =    -0.1527584747D+00 E(B2PLYPD3) =    -0.11564159296374D+03

 The electronic state is 1-A.
 Alpha  occ. eigenvalues --  -19.75096 -10.63157  -1.12868  -0.79486  -0.55646
 Alpha  occ. eigenvalues --   -0.52608  -0.49008  -0.40402  -0.35585
 Alpha virt. eigenvalues --    0.01565   0.07496   0.12434   0.12927   0.14911
 Alpha virt. eigenvalues --    0.17779   0.18566   0.24928   0.29447   0.33896
 Alpha virt. eigenvalues --    0.34282   0.38060   0.39909   0.42765   0.43910

 Mulliken charges:
               1
     1  C    0.096131
     2  O   -0.479865
     3  H    0.042052
     4  H    0.042363
     5  H    0.049028
     6  H    0.250291
 Sum of Mulliken charges =   0.00000

 Dipole moment (field-independent basis, Debye):
    X=              1.0701    Y=              1.7770    Z=              0.0448  Tot=              2.0748
 Quadrupole moment (field-independent basis, Debye-Ang):
   XX=            -13.2175   YY=            -11.6469   ZZ=            -14.0302
   XY=             -2.2151   XZ=             -0.0401   YZ=             -0.0201

 Normal termination of Gaussian 09 at Wed Aug 26 12:43:07 2020.
