 Gaussian 09, Revision D.01,
 Gaussian 09:  ES64L-G09RevD.01 24-Apr-2013

 --------------------
 #p B2PLYPD3/Def2QZVP
 --------------------

 --------
 methanol
 --------
 Symbolic Z-matrix:
 Charge =  0 Multiplicity = 1

                         Standard orientation:
 ---------------------------------------------------------------------
 Center     Atomic      Atomic             Coordinates (Angstroms)
 Number     Number       Type             X           Y           Z
 ---------------------------------------------------------------------
      1          6           0        0.705921    0.029557    0.008266
      2          8           0       -0.759782   -0.151957   -0.020249
      3          1           0        0.991553    0.271740    0.956841
      4          1           0        1.076595    0.677543   -0.762929
      5          1           0        1.018895   -0.855830   -0.170958
      6          1           0       -1.244311    0.944866    0.089443
 ---------------------------------------------------------------------

 SCF Done:  E(RB2PLYPD3) =  -115.494079476     A.U. after   11 cycles
 E2(B2PLYPD3) =    -0.1523008896D+00 E(B2PLYPD3) =    -0.11564638036519D+03

 The electronic state is 1-A.
 Alpha  occ. eigenvalues --  -19.73920 -10.63256  -1.10777  -0.79816  -0.55044
 Alpha  occ. eigenvalues --   -0.52736  -0.48412  -0.40606  -0.35319
 Alpha virt. eigenvalues --    0.02626   0.07558   0.12373   0.12878   0.14428
 Alpha virt. eigenvalues --    0.16828   0.18649   0.26601   0.29098   0.32111
 Alpha virt. eigenvalues --    0.33893   0.38374   0.40563   0.42477   0.43497

 Mulliken charges:
               1
     1  C    0.079116
     2  O   -0.517487
     3  H    0.059953
     4  H    0.053234
     5  H    0.076044
     6  H    0.249141
 Sum of Mulliken charges =   0.00000

 Dipole moment (field-independent basis, Debye):
    X=              1.0963    Y=              1.5788    Z=              0.1833  Tot=              1.9308
 Quadrupole moment (field-independent basis, Debye-Ang):
   XX=            -12.8112   YY=            -11.9283   ZZ=            -13.6746
   XY=             -2.5170   XZ=             -0.2999   YZ=              0.1101

 Normal termination of Gaussian 09 at Wed Aug 26 22:27:14 2020.
