 Gaussian 09, Revision D.01,
 Gaussian 09:  ES64L-G09RevD.01 24-Apr-2013

 --------------------
 #p B2PLYPD3/Def2QZVP
 --------------------

 --------
 methanol
 --------
 Symbolic Z-matrix:
 Charge =  0 Multiplicity = 1

                         Standard orientation:
 ---------------------------------------------------------------------
 Center     Atomic      Atomic             Coordinates (Angstroms)
 Number     Number       Type             X           Y           Z
 ---------------------------------------------------------------------
      1          6           0        0.676413   -0.001291    0.006313
      2          8           0       -0.747508    0.089582   -0.015550
      3          1           0        1.088126   -0.669186   -0.883972
      4          1           0        1.025883   -0.406122    1.018226
      5          1           0        0.962494    0.995979   -0.121113
      6          1           0       -1.154916   -0.629581    0.073382
 ---------------------------------------------------------------------

 SCF Done:  E(RB2PLYPD3) =  -115.524594693     A.U. after   10 cycles
 E2(B2PLYPD3) =    -0.1455461014D+00 E(B2PLYPD3) =    -0.11567014079469D+03

 The electronic state is 1-A.
 Alpha  occ. eigenvalues --  -19.71018 -10.67095  -1.18821  -0.80064  -0.59635
 Alpha  occ. eigenvalues --   -0.51046  -0.50571  -0.40988  -0.35374
 Alpha virt. eigenvalues --    0.05370   0.08645   0.11858   0.12471   0.14605
 Alpha virt. eigenvalues --    0.16652   0.18081   0.28958   0.32813   0.32982
 Alpha virt. eigenvalues --    0.36317   0.39031   0.39702   0.40456   0.43524

 Mulliken charges:
               1
     1  C    0.059299
     2  O   -0.390041
     3  H    0.043229
     4  H    0.050500
     5  H    0.086900
     6  H    0.150113
 Sum of Mulliken charges =   0.00000

 Dipole moment (field-independent basis, Debye):
    X=              0.8188    Y=             -1.2462    Z=              0.1995  Tot=              1.5044
 Quadrupole moment (field-independent basis, Debye-Ang):
   XX=            -13.0252   YY=            -12.4370   ZZ=            -13.6259
   XY=              2.1114   XZ=             -0.2602   YZ=             -0.1556

 Normal termination of Gaussian 09 at Wed Aug 26 14:12:40 2020.
