 Gaussian 09, Revision D.01,
 Gaussian 09:  ES64L-G09RevD.01 24-Apr-2013

 --------------------
 #p B2PLYPD3/Def2QZVP
 --------------------

 --------
 methanol
 --------
 Symbolic Z-matrix:
 Charge =  0 Multiplicity = 1

                         Standard orientation:
 ---------------------------------------------------------------------
 Center     Atomic      Atomic             Coordinates (Angstroms)
 Number     Number       Type             X           Y           Z
 ---------------------------------------------------------------------
      1          6           0        0.648674   -0.013613    0.018669
      2          8           0       -0.756907    0.079647   -0.016273
      3          1           0        1.085734   -0.829309   -0.765348
      4          1           0        1.004700   -0.269573    1.037382
      5          1           0        1.107870    1.058800   -0.301108
      6          1           0       -1.035093   -0.515413    0.047247
 ---------------------------------------------------------------------

 SCF Done:  E(RB2PLYPD3) =  -115.353263806     A.U. after   11 cycles
 E2(B2PLYPD3) =    -0.1437621203D+00 E(B2PLYPD3) =    -0.11549702592656D+03

 The electronic state is 1-A.
 Alpha  occ. eigenvalues --  -19.69851 -10.68894  -1.26891  -0.81308  -0.62387
 Alpha  occ. eigenvalues --   -0.51786  -0.50101  -0.40922  -0.36412
 Alpha virt. eigenvalues --    0.05239   0.09260   0.11410   0.11991   0.14626
 Alpha virt. eigenvalues --    0.17108   0.17761   0.28470   0.32472   0.33125
 Alpha virt. eigenvalues --    0.35206   0.36850   0.40009   0.40794   0.42879

 Mulliken charges:
               1
     1  C    0.049047
     2  O   -0.210750
     3  H    0.036794
     4  H    0.062297
     5  H    0.070196
     6  H   -0.007585
 Sum of Mulliken charges =   0.00000

 Dipole moment (field-independent basis, Debye):
    X=              0.9432    Y=             -1.1987    Z=              0.2206  Tot=              1.5411
 Quadrupole moment (field-independent basis, Debye-Ang):
   XX=            -13.2752   YY=            -12.5779   ZZ=            -13.5590
   XY=              1.8153   XZ=             -0.1903   YZ=             -0.1612

 Normal termination of Gaussian 09 at Wed Aug 26 13:52:25 2020.
