 Gaussian 09, Revision D.01,
 Gaussian 09:  ES64L-G09RevD.01 24-Apr-2013

 --------------------
 #p B2PLYPD3/Def2QZVP
 --------------------

 --------
 methanol
 --------
 Symbolic Z-matrix:
 Charge =  0 Multiplicity = 1

                         Standard orientation:
 ---------------------------------------------------------------------
 Center     Atomic      Atomic             Coordinates (Angstroms)
 Number     Number       Type             X           Y           Z
 ---------------------------------------------------------------------
      1          6           0       -0.655027   -0.021162   -0.013707
      2          8           0        0.735560    0.116980   -0.000131
      3          1           0       -0.946129   -0.597800    0.919517
      4          1           0       -1.046894   -0.512536   -0.887527
      5          1           0       -1.096719    0.992768    0.076389
      6          1           0        1.135422   -0.691300   -0.025088
 ---------------------------------------------------------------------

 SCF Done:  E(RB2PLYPD3) =  -115.548078663     A.U. after   10 cycles
 E2(B2PLYPD3) =    -0.1460698097D+00 E(B2PLYPD3) =    -0.11569414847299D+03

 The electronic state is 1-A.
 Alpha  occ. eigenvalues --  -19.71927 -10.66063  -1.18086  -0.78939  -0.59878
 Alpha  occ. eigenvalues --   -0.52061  -0.50367  -0.40672  -0.35212
 Alpha virt. eigenvalues --    0.05169   0.08531   0.12248   0.12431   0.14757
 Alpha virt. eigenvalues --    0.17284   0.18014   0.29082   0.32890   0.34307
 Alpha virt. eigenvalues --    0.36352   0.38999   0.39621   0.41114   0.43615

 Mulliken charges:
               1
     1  C    0.065627
     2  O   -0.426406
     3  H    0.038754
     4  H    0.051359
     5  H    0.069828
     6  H    0.200839
 Sum of Mulliken charges =   0.00000

 Dipole moment (field-independent basis, Debye):
    X=             -0.7647    Y=             -1.4357    Z=             -0.0920  Tot=              1.6293
 Quadrupole moment (field-independent basis, Debye-Ang):
   XX=            -13.0263   YY=            -12.3789   ZZ=            -13.7294
   XY=             -2.2510   XZ=              0.0811   YZ=              0.1258

 Normal termination of Gaussian 09 at Wed Aug 26 12:16:39 2020.
