 Gaussian 09, Revision D.01,
 Gaussian 09:  ES64L-G09RevD.01 24-Apr-2013

 --------------------
 #p B2PLYPD3/Def2QZVP
 --------------------

 --------
 methanol
 --------
 Symbolic Z-matrix:
 Charge =  0 Multiplicity = 1

                         Standard orientation:
 ---------------------------------------------------------------------
 Center     Atomic      Atomic             Coordinates (Angstroms)
 Number     Number       Type             X           Y           Z
 ---------------------------------------------------------------------
      1          6           0        0.654802    0.048323    0.000618
      2          8           0       -0.737411   -0.163391   -0.009123
      3          1           0        1.009031    0.446359    0.845101
      4          1           0        1.023020    0.585179   -0.792409
      5          1           0        1.171914   -0.923122   -0.032372
      6          1           0       -1.233487    0.908777    0.048961
 ---------------------------------------------------------------------

 SCF Done:  E(RB2PLYPD3) =  -115.508678540     A.U. after   11 cycles
 E2(B2PLYPD3) =    -0.1509165039D+00 E(B2PLYPD3) =    -0.11565959504436D+03

 The electronic state is 1-A.
 Alpha  occ. eigenvalues --  -19.74271 -10.63524  -1.13362  -0.78914  -0.56003
 Alpha  occ. eigenvalues --   -0.53124  -0.49275  -0.39752  -0.35417
 Alpha virt. eigenvalues --    0.02638   0.07520   0.12636   0.12867   0.14899
 Alpha virt. eigenvalues --    0.17686   0.18545   0.26685   0.29456   0.33771
 Alpha virt. eigenvalues --    0.34557   0.38348   0.40132   0.43105   0.43715

 Mulliken charges:
               1
     1  C    0.085949
     2  O   -0.488844
     3  H    0.048586
     4  H    0.047006
     5  H    0.051932
     6  H    0.255370
 Sum of Mulliken charges =   0.00000

 Dipole moment (field-independent basis, Debye):
    X=              0.8211    Y=              1.7295    Z=              0.1245  Tot=              1.9186
 Quadrupole moment (field-independent basis, Debye-Ang):
   XX=            -12.6337   YY=            -12.0953   ZZ=            -13.9038
   XY=             -2.4711   XZ=             -0.0926   YZ=              0.0375

 Normal termination of Gaussian 09 at Wed Aug 26 16:01:12 2020.
