 Gaussian 09, Revision D.01,
 Gaussian 09:  ES64L-G09RevD.01 24-Apr-2013

 --------------------
 #p B2PLYPD3/Def2QZVP
 --------------------

 --------
 methanol
 --------
 Symbolic Z-matrix:
 Charge =  0 Multiplicity = 1

                         Standard orientation:
 ---------------------------------------------------------------------
 Center     Atomic      Atomic             Coordinates (Angstroms)
 Number     Number       Type             X           Y           Z
 ---------------------------------------------------------------------
      1          6           0        0.652218    0.021367   -0.001922
      2          8           0       -0.738463   -0.145152    0.006631
      3          1           0        0.998627    0.560535    0.879093
      4          1           0        1.066770    0.520058   -0.841719
      5          1           0        1.123601   -0.911273   -0.011871
      6          1           0       -1.194601    0.863698   -0.067026
 ---------------------------------------------------------------------

 SCF Done:  E(RB2PLYPD3) =  -115.531573223     A.U. after   11 cycles
 E2(B2PLYPD3) =    -0.1495712162D+00 E(B2PLYPD3) =    -0.11568114443967D+03

 The electronic state is 1-A.
 Alpha  occ. eigenvalues --  -19.73845 -10.64379  -1.14425  -0.78394  -0.57118
 Alpha  occ. eigenvalues --   -0.51850  -0.50168  -0.40473  -0.34980
 Alpha virt. eigenvalues --    0.03585   0.07728   0.12612   0.12778   0.14951
 Alpha virt. eigenvalues --    0.17607   0.18349   0.28617   0.29950   0.33235
 Alpha virt. eigenvalues --    0.34922   0.39238   0.39953   0.41485   0.43762

 Mulliken charges:
               1
     1  C    0.074511
     2  O   -0.479401
     3  H    0.041991
     4  H    0.041269
     5  H    0.066115
     6  H    0.255516
 Sum of Mulliken charges =   0.00000

 Dipole moment (field-independent basis, Debye):
    X=              0.7788    Y=              1.5971    Z=             -0.1553  Tot=              1.7836
 Quadrupole moment (field-independent basis, Debye-Ang):
   XX=            -12.7826   YY=            -12.1215   ZZ=            -13.9497
   XY=             -2.4950   XZ=              0.0500   YZ=             -0.0854

 Normal termination of Gaussian 09 at Wed Aug 26 15:01:44 2020.
