 Gaussian 09, Revision D.01,
 Gaussian 09:  ES64L-G09RevD.01 24-Apr-2013

 --------------------
 #p B2PLYPD3/Def2QZVP
 --------------------

 --------
 methanol
 --------
 Symbolic Z-matrix:
 Charge =  0 Multiplicity = 1

                         Standard orientation:
 ---------------------------------------------------------------------
 Center     Atomic      Atomic             Coordinates (Angstroms)
 Number     Number       Type             X           Y           Z
 ---------------------------------------------------------------------
      1          6           0        0.663658    0.017362   -0.002633
      2          8           0       -0.750708   -0.196776    0.010034
      3          1           0        1.032907    0.516795    0.825847
      4          1           0        0.962484    0.487033   -0.808653
      5          1           0        1.226656   -0.698891   -0.041992
      6          1           0       -1.198327    1.165097   -0.039680
 ---------------------------------------------------------------------

 SCF Done:  E(RB2PLYPD3) =  -115.410531789     A.U. after   11 cycles
 E2(B2PLYPD3) =    -0.1564610603D+00 E(B2PLYPD3) =    -0.11556699284920D+03

 The electronic state is 1-A.
 Alpha  occ. eigenvalues --  -19.75688 -10.61339  -1.11264  -0.81663  -0.53445
 Alpha  occ. eigenvalues --   -0.52789  -0.50186  -0.38933  -0.35382
 Alpha virt. eigenvalues --   -0.02275   0.07310   0.12713   0.12987   0.14313
 Alpha virt. eigenvalues --    0.18468   0.18990   0.22115   0.29549   0.33122
 Alpha virt. eigenvalues --    0.33345   0.39194   0.40092   0.42484   0.44449

 Mulliken charges:
               1
     1  C    0.094768
     2  O   -0.482246
     3  H    0.040481
     4  H    0.039813
     5  H    0.062896
     6  H    0.244289
 Sum of Mulliken charges =   0.00000

 Dipole moment (field-independent basis, Debye):
    X=              1.1510    Y=              1.7377    Z=             -0.1319  Tot=              2.0885
 Quadrupole moment (field-independent basis, Debye-Ang):
   XX=            -12.8434   YY=            -11.5528   ZZ=            -13.9099
   XY=             -2.6904   XZ=              0.0346   YZ=             -0.0597

 Normal termination of Gaussian 09 at Wed Aug 26 18:15:24 2020.
