 Gaussian 09, Revision D.01,
 Gaussian 09:  ES64L-G09RevD.01 24-Apr-2013

 --------------------
 #p B2PLYPD3/Def2QZVP
 --------------------

 --------
 methanol
 --------
 Symbolic Z-matrix:
 Charge =  0 Multiplicity = 1

                         Standard orientation:
 ---------------------------------------------------------------------
 Center     Atomic      Atomic             Coordinates (Angstroms)
 Number     Number       Type             X           Y           Z
 ---------------------------------------------------------------------
      1          6           0        0.673321    0.030266   -0.001987
      2          8           0       -0.744948   -0.147898   -0.008746
      3          1           0        0.965538    0.472618    0.849016
      4          1           0        1.008764    0.578484   -0.797161
      5          1           0        1.063007   -0.962508   -0.011985
      6          1           0       -1.117657    0.912992    0.042018
 ---------------------------------------------------------------------

 SCF Done:  E(RB2PLYPD3) =  -115.521555808     A.U. after   11 cycles
 E2(B2PLYPD3) =    -0.1500996183D+00 E(B2PLYPD3) =    -0.11567165542617D+03

 The electronic state is 1-A.
 Alpha  occ. eigenvalues --  -19.73607 -10.63371  -1.13353  -0.79086  -0.56958
 Alpha  occ. eigenvalues --   -0.53216  -0.48604  -0.41216  -0.35309
 Alpha virt. eigenvalues --    0.03486   0.07980   0.12358   0.12712   0.14932
 Alpha virt. eigenvalues --    0.17314   0.18052   0.28404   0.29863   0.33479
 Alpha virt. eigenvalues --    0.33893   0.38946   0.39980   0.42911   0.44525

 Mulliken charges:
               1
     1  C    0.091626
     2  O   -0.492160
     3  H    0.046064
     4  H    0.045694
     5  H    0.063573
     6  H    0.245202
 Sum of Mulliken charges =   0.00000

 Dipole moment (field-independent basis, Debye):
    X=              1.0505    Y=              1.6893    Z=              0.1072  Tot=              1.9921
 Quadrupole moment (field-independent basis, Debye-Ang):
   XX=            -13.2941   YY=            -11.7213   ZZ=            -13.8009
   XY=             -2.2244   XZ=             -0.1014   YZ=              0.0341

 Normal termination of Gaussian 09 at Wed Aug 26 12:50:22 2020.
