 Gaussian 09, Revision D.01,
 Gaussian 09:  ES64L-G09RevD.01 24-Apr-2013

 --------------------
 #p B2PLYPD3/Def2QZVP
 --------------------

 --------
 methanol
 --------
 Symbolic Z-matrix:
 Charge =  0 Multiplicity = 1

                         Standard orientation:
 ---------------------------------------------------------------------
 Center     Atomic      Atomic             Coordinates (Angstroms)
 Number     Number       Type             X           Y           Z
 ---------------------------------------------------------------------
      1          6           0       -0.676767    0.019765    0.013777
      2          8           0        0.743807   -0.157033   -0.014014
      3          1           0       -1.119386    0.537510   -0.817764
      4          1           0       -0.963235    0.499196    0.819901
      5          1           0       -0.997703   -0.903493    0.008601
      6          1           0        1.190470    1.004463    0.018713
 ---------------------------------------------------------------------

 SCF Done:  E(RB2PLYPD3) =  -115.484967145     A.U. after   11 cycles
 E2(B2PLYPD3) =    -0.1525542857D+00 E(B2PLYPD3) =    -0.11563752143100D+03

 The electronic state is 1-A.
 Alpha  occ. eigenvalues --  -19.74459 -10.62659  -1.12174  -0.79482  -0.56678
 Alpha  occ. eigenvalues --   -0.52031  -0.48700  -0.40911  -0.35106
 Alpha virt. eigenvalues --    0.01745   0.07654   0.12592   0.12831   0.14990
 Alpha virt. eigenvalues --    0.17038   0.18329   0.25384   0.29476   0.33184
 Alpha virt. eigenvalues --    0.34170   0.38736   0.39854   0.41950   0.44878

 Mulliken charges:
               1
     1  C    0.087065
     2  O   -0.494043
     3  H    0.041858
     4  H    0.046981
     5  H    0.071719
     6  H    0.246419
 Sum of Mulliken charges =   0.00000

 Dipole moment (field-independent basis, Debye):
    X=             -1.0233    Y=              1.6637    Z=              0.1312  Tot=              1.9576
 Quadrupole moment (field-independent basis, Debye-Ang):
   XX=            -13.0558   YY=            -11.5809   ZZ=            -13.9404
   XY=              2.3611   XZ=              0.0784   YZ=              0.0951

 Normal termination of Gaussian 09 at Wed Aug 26 15:17:37 2020.
