 Gaussian 09, Revision D.01,
 Gaussian 09:  ES64L-G09RevD.01 24-Apr-2013

 --------------------
 #p B2PLYPD3/Def2QZVP
 --------------------

 --------
 methanol
 --------
 Symbolic Z-matrix:
 Charge =  0 Multiplicity = 1

                         Standard orientation:
 ---------------------------------------------------------------------
 Center     Atomic      Atomic             Coordinates (Angstroms)
 Number     Number       Type             X           Y           Z
 ---------------------------------------------------------------------
      1          6           0        0.654627    0.010812   -0.022311
      2          8           0       -0.721520   -0.172713    0.018583
      3          1           0        1.099684    0.528139    0.771403
      4          1           0        0.837187    0.590793   -0.719337
      5          1           0        1.009021   -0.898732   -0.059147
      6          1           0       -1.101498    1.096636   -0.007717
 ---------------------------------------------------------------------

 SCF Done:  E(RB2PLYPD3) =  -115.443467606     A.U. after   11 cycles
 E2(B2PLYPD3) =    -0.1536317930D+00 E(B2PLYPD3) =    -0.11559709939929D+03

 The electronic state is 1-A.
 Alpha  occ. eigenvalues --  -19.74746 -10.61332  -1.13528  -0.79694  -0.58575
 Alpha  occ. eigenvalues --   -0.52441  -0.48919  -0.40705  -0.34442
 Alpha virt. eigenvalues --   -0.00042   0.07799   0.12307   0.13181   0.15155
 Alpha virt. eigenvalues --    0.17394   0.17743   0.23530   0.29723   0.32405
 Alpha virt. eigenvalues --    0.35606   0.39114   0.39788   0.42359   0.46359

 Mulliken charges:
               1
     1  C    0.094185
     2  O   -0.473949
     3  H    0.028047
     4  H    0.048229
     5  H    0.068230
     6  H    0.235258
 Sum of Mulliken charges =   0.00000

 Dipole moment (field-independent basis, Debye):
    X=              1.0641    Y=              1.7465    Z=             -0.1370  Tot=              2.0497
 Quadrupole moment (field-independent basis, Debye-Ang):
   XX=            -13.5371   YY=            -11.0640   ZZ=            -14.1039
   XY=             -2.2153   XZ=              0.1075   YZ=             -0.1176

 Normal termination of Gaussian 09 at Wed Aug 26 18:43:24 2020.
