 Gaussian 09, Revision D.01,
 Gaussian 09:  ES64L-G09RevD.01 24-Apr-2013

 --------------------
 #p B2PLYPD3/Def2QZVP
 --------------------

 --------
 methanol
 --------
 Symbolic Z-matrix:
 Charge =  0 Multiplicity = 1

                         Standard orientation:
 ---------------------------------------------------------------------
 Center     Atomic      Atomic             Coordinates (Angstroms)
 Number     Number       Type             X           Y           Z
 ---------------------------------------------------------------------
      1          6           0        0.664716   -0.014885   -0.004014
      2          8           0       -0.750027    0.114568   -0.003418
      3          1           0        1.023988   -0.623454   -0.862614
      4          1           0        1.095972   -0.466059    0.923595
      5          1           0        1.058680    0.989489   -0.064965
      6          1           0       -1.166718   -0.727209    0.055410
 ---------------------------------------------------------------------

 SCF Done:  E(RB2PLYPD3) =  -115.551723595     A.U. after   10 cycles
 E2(B2PLYPD3) =    -0.1470906494D+00 E(B2PLYPD3) =    -0.11569881424492D+03

 The electronic state is 1-A.
 Alpha  occ. eigenvalues --  -19.72483 -10.66110  -1.16449  -0.78750  -0.59038
 Alpha  occ. eigenvalues --   -0.51226  -0.49918  -0.41040  -0.35325
 Alpha virt. eigenvalues --    0.05064   0.08172   0.12339   0.12428   0.14950
 Alpha virt. eigenvalues --    0.17104   0.18189   0.29088   0.33148   0.33764
 Alpha virt. eigenvalues --    0.35614   0.38634   0.39589   0.40363   0.43247

 Mulliken charges:
               1
     1  C    0.066029
     2  O   -0.451492
     3  H    0.046759
     4  H    0.045727
     5  H    0.074536
     6  H    0.218440
 Sum of Mulliken charges =   0.00000

 Dipole moment (field-independent basis, Debye):
    X=              0.8179    Y=             -1.4469    Z=              0.0948  Tot=              1.6648
 Quadrupole moment (field-independent basis, Debye-Ang):
   XX=            -12.8739   YY=            -12.2990   ZZ=            -13.8658
   XY=              2.2551   XZ=             -0.0974   YZ=             -0.0497

 Normal termination of Gaussian 09 at Thu Aug 27 00:12:34 2020.
