 Gaussian 09, Revision D.01,
 Gaussian 09:  ES64L-G09RevD.01 24-Apr-2013

 --------------------
 #p B2PLYPD3/Def2QZVP
 --------------------

 --------
 methanol
 --------
 Symbolic Z-matrix:
 Charge =  0 Multiplicity = 1

                         Standard orientation:
 ---------------------------------------------------------------------
 Center     Atomic      Atomic             Coordinates (Angstroms)
 Number     Number       Type             X           Y           Z
 ---------------------------------------------------------------------
      1          6           0       -0.660775    0.011082   -0.002682
      2          8           0        0.729887   -0.205984    0.001814
      3          1           0       -1.014196    0.520458   -0.770602
      4          1           0       -0.884307    0.615221    0.786954
      5          1           0       -1.256950   -0.688604    0.034648
      6          1           0        1.281003    1.134304   -0.049421
 ---------------------------------------------------------------------

 SCF Done:  E(RB2PLYPD3) =  -115.409296542     A.U. after   11 cycles
 E2(B2PLYPD3) =    -0.1561447978D+00 E(B2PLYPD3) =    -0.11556544133947D+03

 The electronic state is 1-A.
 Alpha  occ. eigenvalues --  -19.75390 -10.61125  -1.11868  -0.81108  -0.54383
 Alpha  occ. eigenvalues --   -0.52462  -0.50537  -0.38824  -0.34622
 Alpha virt. eigenvalues --   -0.02777   0.07392   0.12957   0.13053   0.14340
 Alpha virt. eigenvalues --    0.17990   0.19205   0.21997   0.29882   0.32821
 Alpha virt. eigenvalues --    0.34042   0.39344   0.40047   0.42804   0.44922

 Mulliken charges:
               1
     1  C    0.105186
     2  O   -0.478780
     3  H    0.032728
     4  H    0.033970
     5  H    0.061984
     6  H    0.244913
 Sum of Mulliken charges =   0.00000

 Dipole moment (field-independent basis, Debye):
    X=             -0.9640    Y=              1.7898    Z=             -0.0902  Tot=              2.0349
 Quadrupole moment (field-independent basis, Debye-Ang):
   XX=            -12.5138   YY=            -11.5248   ZZ=            -14.0933
   XY=              2.8507   XZ=              0.0363   YZ=             -0.0649

 Normal termination of Gaussian 09 at Wed Aug 26 22:07:55 2020.
