 Gaussian 09, Revision D.01,
 Gaussian 09:  ES64L-G09RevD.01 24-Apr-2013

 --------------------
 #p B2PLYPD3/Def2QZVP
 --------------------

 --------
 methanol
 --------
 Symbolic Z-matrix:
 Charge =  0 Multiplicity = 1

                         Standard orientation:
 ---------------------------------------------------------------------
 Center     Atomic      Atomic             Coordinates (Angstroms)
 Number     Number       Type             X           Y           Z
 ---------------------------------------------------------------------
      1          6           0       -0.659085   -0.016971    0.013928
      2          8           0        0.748882    0.103055   -0.011658
      3          1           0       -1.020130   -0.482970    0.935719
      4          1           0       -1.077160   -0.598689   -0.908617
      5          1           0       -1.061231    1.019114   -0.055095
      6          1           0        1.121975   -0.660069    0.037688
 ---------------------------------------------------------------------

 SCF Done:  E(RB2PLYPD3) =  -115.536722587     A.U. after   10 cycles
 E2(B2PLYPD3) =    -0.1457224962D+00 E(B2PLYPD3) =    -0.11568244508321D+03

 The electronic state is 1-A.
 Alpha  occ. eigenvalues --  -19.71669 -10.66892  -1.19074  -0.79306  -0.60246
 Alpha  occ. eigenvalues --   -0.51471  -0.50082  -0.40997  -0.35604
 Alpha virt. eigenvalues --    0.05327   0.08581   0.12115   0.12282   0.14784
 Alpha virt. eigenvalues --    0.17103   0.18131   0.28925   0.33113   0.33554
 Alpha virt. eigenvalues --    0.36880   0.38881   0.39426   0.40402   0.43003

 Mulliken charges:
               1
     1  C    0.060083
     2  O   -0.395551
     3  H    0.054161
     4  H    0.041112
     5  H    0.073037
     6  H    0.167157
 Sum of Mulliken charges =   0.00000

 Dipole moment (field-independent basis, Debye):
    X=             -0.8283    Y=             -1.3610    Z=              0.1632  Tot=              1.6016
 Quadrupole moment (field-independent basis, Debye-Ang):
   XX=            -13.0492   YY=            -12.4450   ZZ=            -13.7143
   XY=             -2.1290   XZ=              0.0898   YZ=             -0.1331

 Normal termination of Gaussian 09 at Wed Aug 26 18:31:18 2020.
