 Gaussian 09, Revision D.01,
 Gaussian 09:  ES64L-G09RevD.01 24-Apr-2013

 --------------------
 #p B2PLYPD3/Def2QZVP
 --------------------

 --------
 methanol
 --------
 Symbolic Z-matrix:
 Charge =  0 Multiplicity = 1

                         Standard orientation:
 ---------------------------------------------------------------------
 Center     Atomic      Atomic             Coordinates (Angstroms)
 Number     Number       Type             X           Y           Z
 ---------------------------------------------------------------------
      1          6           0        0.662281    0.034030    0.005119
      2          8           0       -0.740859   -0.144922   -0.008724
      3          1           0        1.004513    0.457491    0.858332
      4          1           0        1.012639    0.582612   -0.827397
      5          1           0        1.087038   -0.956829   -0.038884
      6          1           0       -1.151005    0.871917    0.047031
 ---------------------------------------------------------------------

 SCF Done:  E(RB2PLYPD3) =  -115.531583635     A.U. after   11 cycles
 E2(B2PLYPD3) =    -0.1494269272D+00 E(B2PLYPD3) =    -0.11568101056215D+03

 The electronic state is 1-A.
 Alpha  occ. eigenvalues --  -19.73578 -10.63910  -1.14136  -0.78743  -0.57197
 Alpha  occ. eigenvalues --   -0.52870  -0.49214  -0.40753  -0.35357
 Alpha virt. eigenvalues --    0.03811   0.07925   0.12497   0.12658   0.14956
 Alpha virt. eigenvalues --    0.17395   0.18278   0.28832   0.30255   0.33552
 Alpha virt. eigenvalues --    0.34386   0.38749   0.39933   0.42545   0.44430

 Mulliken charges:
               1
     1  C    0.081397
     2  O   -0.483809
     3  H    0.048429
     4  H    0.045540
     5  H    0.060862
     6  H    0.247580
 Sum of Mulliken charges =   0.00000

 Dipole moment (field-independent basis, Debye):
    X=              0.9162    Y=              1.6514    Z=              0.1290  Tot=              1.8930
 Quadrupole moment (field-independent basis, Debye-Ang):
   XX=            -13.0627   YY=            -11.9754   ZZ=            -13.8028
   XY=             -2.3068   XZ=             -0.0743   YZ=              0.0733

 Normal termination of Gaussian 09 at Wed Aug 26 10:38:11 2020.
