 Gaussian 09, Revision D.01,
 Gaussian 09:  ES64L-G09RevD.01 24-Apr-2013

 --------------------
 #p B2PLYPD3/Def2QZVP
 --------------------

 --------
 methanol
 --------
 Symbolic Z-matrix:
 Charge =  0 Multiplicity = 1

                         Standard orientation:
 ---------------------------------------------------------------------
 Center     Atomic      Atomic             Coordinates (Angstroms)
 Number     Number       Type             X           Y           Z
 ---------------------------------------------------------------------
      1          6           0        0.683720    0.007436   -0.016650
      2          8           0       -0.748879   -0.152194    0.015798
      3          1           0        1.088464    0.536731    0.876751
      4          1           0        0.969089    0.513020   -0.841056
      5          1           0        1.017619   -0.851842   -0.022719
      6          1           0       -1.186464    0.975021   -0.039462
 ---------------------------------------------------------------------

 SCF Done:  E(RB2PLYPD3) =  -115.484296702     A.U. after   11 cycles
 E2(B2PLYPD3) =    -0.1519000107D+00 E(B2PLYPD3) =    -0.11563619671320D+03

 The electronic state is 1-A.
 Alpha  occ. eigenvalues --  -19.74143 -10.62909  -1.12023  -0.79834  -0.56560
 Alpha  occ. eigenvalues --   -0.51450  -0.49584  -0.41109  -0.34932
 Alpha virt. eigenvalues --    0.02290   0.07675   0.12533   0.12882   0.14731
 Alpha virt. eigenvalues --    0.17224   0.18277   0.26302   0.29486   0.33107
 Alpha virt. eigenvalues --    0.33421   0.38276   0.40655   0.41728   0.44193

 Mulliken charges:
               1
     1  C    0.077141
     2  O   -0.501997
     3  H    0.041924
     4  H    0.046951
     5  H    0.084617
     6  H    0.251364
 Sum of Mulliken charges =   0.00000

 Dipole moment (field-independent basis, Debye):
    X=              1.0275    Y=              1.6067    Z=             -0.1848  Tot=              1.9161
 Quadrupole moment (field-independent basis, Debye-Ang):
   XX=            -13.0402   YY=            -11.6854   ZZ=            -13.8524
   XY=             -2.4969   XZ=              0.0717   YZ=             -0.1265

 Normal termination of Gaussian 09 at Wed Aug 26 10:52:14 2020.
