 Gaussian 09, Revision D.01,
 Gaussian 09:  ES64L-G09RevD.01 24-Apr-2013

 --------------------
 #p B2PLYPD3/Def2QZVP
 --------------------

 --------
 methanol
 --------
 Symbolic Z-matrix:
 Charge =  0 Multiplicity = 1

                         Standard orientation:
 ---------------------------------------------------------------------
 Center     Atomic      Atomic             Coordinates (Angstroms)
 Number     Number       Type             X           Y           Z
 ---------------------------------------------------------------------
      1          6           0        0.669334   -0.002820   -0.011553
      2          8           0       -0.767564    0.095871   -0.010104
      3          1           0        1.093514   -0.747477   -0.775030
      4          1           0        1.089513   -0.337081    1.014029
      5          1           0        1.042819    1.004154   -0.172933
      6          1           0       -1.101339   -0.669641    0.084078
 ---------------------------------------------------------------------

 SCF Done:  E(RB2PLYPD3) =  -115.531270517     A.U. after   11 cycles
 E2(B2PLYPD3) =    -0.1461029321D+00 E(B2PLYPD3) =    -0.11567737344917D+03

 The electronic state is 1-A.
 Alpha  occ. eigenvalues --  -19.71771 -10.67351  -1.18806  -0.79268  -0.59982
 Alpha  occ. eigenvalues --   -0.50516  -0.49909  -0.41966  -0.35576
 Alpha virt. eigenvalues --    0.05301   0.08437   0.11947   0.12315   0.14878
 Alpha virt. eigenvalues --    0.17006   0.18102   0.28947   0.32313   0.33152
 Alpha virt. eigenvalues --    0.36835   0.38717   0.39051   0.39910   0.42662

 Mulliken charges:
               1
     1  C    0.061951
     2  O   -0.392247
     3  H    0.046595
     4  H    0.044322
     5  H    0.080695
     6  H    0.158683
 Sum of Mulliken charges =   0.00000

 Dipole moment (field-independent basis, Debye):
    X=              0.9691    Y=             -1.3380    Z=              0.1463  Tot=              1.6585
 Quadrupole moment (field-independent basis, Debye-Ang):
   XX=            -13.1114   YY=            -12.2778   ZZ=            -13.8809
   XY=              2.0535   XZ=             -0.2785   YZ=             -0.0956

 Normal termination of Gaussian 09 at Wed Aug 26 14:51:40 2020.
