 Gaussian 09, Revision D.01,
 Gaussian 09:  ES64L-G09RevD.01 24-Apr-2013

 --------------------
 #p B2PLYPD3/Def2QZVP
 --------------------

 --------
 methanol
 --------
 Symbolic Z-matrix:
 Charge =  0 Multiplicity = 1

                         Standard orientation:
 ---------------------------------------------------------------------
 Center     Atomic      Atomic             Coordinates (Angstroms)
 Number     Number       Type             X           Y           Z
 ---------------------------------------------------------------------
      1          6           0       -0.643222   -0.008883   -0.006657
      2          8           0        0.746693    0.106460    0.000181
      3          1           0       -1.097207   -0.536334    0.884197
      4          1           0       -1.002363   -0.608169   -0.868651
      5          1           0       -1.084721    1.038927   -0.022331
      6          1           0        1.070075   -0.692808    0.045279
 ---------------------------------------------------------------------

 SCF Done:  E(RB2PLYPD3) =  -115.539583975     A.U. after   10 cycles
 E2(B2PLYPD3) =    -0.1458383459D+00 E(B2PLYPD3) =    -0.11568542232100D+03

 The electronic state is 1-A.
 Alpha  occ. eigenvalues --  -19.72140 -10.66725  -1.19722  -0.78865  -0.60931
 Alpha  occ. eigenvalues --   -0.51461  -0.50103  -0.41524  -0.35341
 Alpha virt. eigenvalues --    0.05197   0.08586   0.12051   0.12384   0.15149
 Alpha virt. eigenvalues --    0.17353   0.17858   0.29057   0.32898   0.34281
 Alpha virt. eigenvalues --    0.37312   0.37998   0.39599   0.40206   0.42786

 Mulliken charges:
               1
     1  C    0.063422
     2  O   -0.390292
     3  H    0.037790
     4  H    0.043104
     5  H    0.068996
     6  H    0.176980
 Sum of Mulliken charges =   0.00000

 Dipole moment (field-independent basis, Debye):
    X=             -0.8272    Y=             -1.4360    Z=              0.0639  Tot=              1.6585
 Quadrupole moment (field-independent basis, Debye-Ang):
   XX=            -13.2312   YY=            -12.2156   ZZ=            -13.9500
   XY=             -2.0410   XZ=              0.0479   YZ=             -0.0189

 Normal termination of Gaussian 09 at Wed Aug 26 13:10:37 2020.
