 Gaussian 09, Revision D.01,
 Gaussian 09:  ES64L-G09RevD.01 24-Apr-2013

 --------------------
 #p B2PLYPD3/Def2QZVP
 --------------------

 --------
 methanol
 --------
 Symbolic Z-matrix:
 Charge =  0 Multiplicity = 1

                         Standard orientation:
 ---------------------------------------------------------------------
 Center     Atomic      Atomic             Coordinates (Angstroms)
 Number     Number       Type             X           Y           Z
 ---------------------------------------------------------------------
      1          6           0       -0.670352   -0.020752    0.022626
      2          8           0        0.740884   -0.153666   -0.025072
      3          1           0       -1.028359    0.733269   -0.764881
      4          1           0       -0.923158    0.366879    0.859979
      5          1           0       -1.011860   -0.797747   -0.134753
      6          1           0        1.058419    1.051441    0.104477
 ---------------------------------------------------------------------

 SCF Done:  E(RB2PLYPD3) =  -115.435916132     A.U. after   11 cycles
 E2(B2PLYPD3) =    -0.1525259676D+00 E(B2PLYPD3) =    -0.11558844209975D+03

 The electronic state is 1-A.
 Alpha  occ. eigenvalues --  -19.74349 -10.61863  -1.12822  -0.80624  -0.58463
 Alpha  occ. eigenvalues --   -0.51540  -0.49787  -0.41335  -0.34505
 Alpha virt. eigenvalues --    0.01294   0.07838   0.12482   0.12836   0.14721
 Alpha virt. eigenvalues --    0.17592   0.17973   0.25171   0.29647   0.32856
 Alpha virt. eigenvalues --    0.33959   0.37110   0.41097   0.42368   0.45574

 Mulliken charges:
               1
     1  C    0.054162
     2  O   -0.488962
     3  H    0.023891
     4  H    0.048196
     5  H    0.112761
     6  H    0.249951
 Sum of Mulliken charges =   0.00000

 Dipole moment (field-independent basis, Debye):
    X=             -1.1371    Y=              1.5984    Z=              0.3290  Tot=              1.9890
 Quadrupole moment (field-independent basis, Debye-Ang):
   XX=            -13.6284   YY=            -11.2830   ZZ=            -13.8559
   XY=              2.3741   XZ=              0.1259   YZ=              0.3387

 Normal termination of Gaussian 09 at Wed Aug 26 22:32:19 2020.
