 Gaussian 09, Revision D.01,
 Gaussian 09:  ES64L-G09RevD.01 24-Apr-2013

 --------------------
 #p B2PLYPD3/Def2QZVP
 --------------------

 --------
 methanol
 --------
 Symbolic Z-matrix:
 Charge =  0 Multiplicity = 1

                         Standard orientation:
 ---------------------------------------------------------------------
 Center     Atomic      Atomic             Coordinates (Angstroms)
 Number     Number       Type             X           Y           Z
 ---------------------------------------------------------------------
      1          6           0       -0.651909    0.011700   -0.008048
      2          8           0        0.733281   -0.162123    0.005973
      3          1           0       -1.033380    0.473127   -0.839327
      4          1           0       -0.962107    0.574034    0.859421
      5          1           0       -1.101528   -0.816870    0.037719
      6          1           0        1.142219    0.996491   -0.057307
 ---------------------------------------------------------------------

 SCF Done:  E(RB2PLYPD3) =  -115.486060198     A.U. after   11 cycles
 E2(B2PLYPD3) =    -0.1515859060D+00 E(B2PLYPD3) =    -0.11563764610395D+03

 The electronic state is 1-A.
 Alpha  occ. eigenvalues --  -19.74427 -10.62502  -1.13545  -0.79522  -0.56067
 Alpha  occ. eigenvalues --   -0.52392  -0.50699  -0.40471  -0.34804
 Alpha virt. eigenvalues --    0.01721   0.07756   0.12591   0.13048   0.14773
 Alpha virt. eigenvalues --    0.17960   0.18336   0.25520   0.29525   0.33093
 Alpha virt. eigenvalues --    0.34971   0.38855   0.41290   0.42633   0.43660

 Mulliken charges:
               1
     1  C    0.086012
     2  O   -0.482165
     3  H    0.037934
     4  H    0.035182
     5  H    0.066833
     6  H    0.256205
 Sum of Mulliken charges =   0.00000

 Dipole moment (field-independent basis, Debye):
    X=             -0.9448    Y=              1.6343    Z=             -0.1368  Tot=              1.8927
 Quadrupole moment (field-independent basis, Debye-Ang):
   XX=            -13.1099   YY=            -11.7221   ZZ=            -13.8640
   XY=              2.5525   XZ=             -0.0042   YZ=             -0.1194

 Normal termination of Gaussian 09 at Wed Aug 26 11:55:15 2020.
