 Gaussian 09, Revision D.01,
 Gaussian 09:  ES64L-G09RevD.01 24-Apr-2013

 --------------------
 #p B2PLYPD3/Def2QZVP
 --------------------

 --------
 methanol
 --------
 Symbolic Z-matrix:
 Charge =  0 Multiplicity = 1

                         Standard orientation:
 ---------------------------------------------------------------------
 Center     Atomic      Atomic             Coordinates (Angstroms)
 Number     Number       Type             X           Y           Z
 ---------------------------------------------------------------------
      1          6           0       -0.663928    0.021563   -0.006798
      2          8           0        0.747880   -0.147619    0.004516
      3          1           0       -0.983776    0.531051   -0.843375
      4          1           0       -1.045823    0.526291    0.851805
      5          1           0       -1.104896   -0.914542   -0.005055
      6          1           0        1.135025    0.908771    0.001285
 ---------------------------------------------------------------------

 SCF Done:  E(RB2PLYPD3) =  -115.526267433     A.U. after   11 cycles
 E2(B2PLYPD3) =    -0.1500574348D+00 E(B2PLYPD3) =    -0.11567632486794D+03

 The electronic state is 1-A.
 Alpha  occ. eigenvalues --  -19.73859 -10.63800  -1.13621  -0.78872  -0.56699
 Alpha  occ. eigenvalues --   -0.52259  -0.49640  -0.41060  -0.35212
 Alpha virt. eigenvalues --    0.03443   0.07827   0.12609   0.12677   0.14837
 Alpha virt. eigenvalues --    0.17641   0.18219   0.28343   0.29788   0.33399
 Alpha virt. eigenvalues --    0.34045   0.39237   0.40373   0.41943   0.43791

 Mulliken charges:
               1
     1  C    0.085059
     2  O   -0.487941
     3  H    0.045015
     4  H    0.041820
     5  H    0.064731
     6  H    0.251317
 Sum of Mulliken charges =   0.00000

 Dipole moment (field-independent basis, Debye):
    X=             -0.9838    Y=              1.6430    Z=             -0.0359  Tot=              1.9154
 Quadrupole moment (field-independent basis, Debye-Ang):
   XX=            -13.1087   YY=            -11.8779   ZZ=            -13.8684
   XY=              2.3788   XZ=             -0.0203   YZ=             -0.0378

 Normal termination of Gaussian 09 at Thu Aug 27 00:05:03 2020.
