 Gaussian 09, Revision D.01,
 Gaussian 09:  ES64L-G09RevD.01 24-Apr-2013

 --------------------
 #p B2PLYPD3/Def2QZVP
 --------------------

 --------
 methanol
 --------
 Symbolic Z-matrix:
 Charge =  0 Multiplicity = 1

                         Standard orientation:
 ---------------------------------------------------------------------
 Center     Atomic      Atomic             Coordinates (Angstroms)
 Number     Number       Type             X           Y           Z
 ---------------------------------------------------------------------
      1          6           0        0.674319    0.016714    0.001917
      2          8           0       -0.759431   -0.146533   -0.005051
      3          1           0        1.115759    0.457848    0.819269
      4          1           0        0.992857    0.631547   -0.805016
      5          1           0        1.081722   -0.943567   -0.060766
      6          1           0       -1.160803    0.926152    0.075425
 ---------------------------------------------------------------------

 SCF Done:  E(RB2PLYPD3) =  -115.519233077     A.U. after   11 cycles
 E2(B2PLYPD3) =    -0.1510095307D+00 E(B2PLYPD3) =    -0.11567024260729D+03

 The electronic state is 1-A.
 Alpha  occ. eigenvalues --  -19.74180 -10.64065  -1.12681  -0.79037  -0.56584
 Alpha  occ. eigenvalues --   -0.51510  -0.48773  -0.41463  -0.35185
 Alpha virt. eigenvalues --    0.03152   0.07631   0.12391   0.12798   0.14982
 Alpha virt. eigenvalues --    0.17391   0.18228   0.27740   0.29735   0.32776
 Alpha virt. eigenvalues --    0.34087   0.39008   0.39119   0.41690   0.44306

 Mulliken charges:
               1
     1  C    0.086364
     2  O   -0.492006
     3  H    0.045130
     4  H    0.041865
     5  H    0.067562
     6  H    0.251084
 Sum of Mulliken charges =   0.00000

 Dipole moment (field-independent basis, Debye):
    X=              1.0233    Y=              1.6695    Z=              0.1551  Tot=              1.9643
 Quadrupole moment (field-independent basis, Debye-Ang):
   XX=            -13.0035   YY=            -11.7513   ZZ=            -14.0632
   XY=             -2.3264   XZ=             -0.0238   YZ=              0.1012

 Normal termination of Gaussian 09 at Wed Aug 26 11:17:08 2020.
