 Gaussian 09, Revision D.01,
 Gaussian 09:  ES64L-G09RevD.01 24-Apr-2013

 --------------------
 #p B2PLYPD3/Def2QZVP
 --------------------

 --------
 methanol
 --------
 Symbolic Z-matrix:
 Charge =  0 Multiplicity = 1

                         Standard orientation:
 ---------------------------------------------------------------------
 Center     Atomic      Atomic             Coordinates (Angstroms)
 Number     Number       Type             X           Y           Z
 ---------------------------------------------------------------------
      1          6           0        0.673443    0.039869    0.001700
      2          8           0       -0.749488   -0.166672   -0.008957
      3          1           0        1.000030    0.465423    0.827274
      4          1           0        1.061851    0.576039   -0.776321
      5          1           0        1.138602   -0.911104   -0.021168
      6          1           0       -1.245241    0.963803    0.031669
 ---------------------------------------------------------------------

 SCF Done:  E(RB2PLYPD3) =  -115.493514541     A.U. after   11 cycles
 E2(B2PLYPD3) =    -0.1522907318D+00 E(B2PLYPD3) =    -0.11564580527293D+03

 The electronic state is 1-A.
 Alpha  occ. eigenvalues --  -19.74533 -10.63076  -1.11879  -0.79565  -0.55259
 Alpha  occ. eigenvalues --   -0.52647  -0.48838  -0.40299  -0.35401
 Alpha virt. eigenvalues --    0.01882   0.07466   0.12570   0.12948   0.14868
 Alpha virt. eigenvalues --    0.17533   0.18425   0.25460   0.29474   0.33436
 Alpha virt. eigenvalues --    0.33953   0.38859   0.39713   0.42876   0.43813

 Mulliken charges:
               1
     1  C    0.094650
     2  O   -0.499550
     3  H    0.048704
     4  H    0.045947
     5  H    0.058330
     6  H    0.251919
 Sum of Mulliken charges =   0.00000

 Dipole moment (field-independent basis, Debye):
    X=              0.9656    Y=              1.7355    Z=              0.0998  Tot=              1.9885
 Quadrupole moment (field-independent basis, Debye-Ang):
   XX=            -12.6433   YY=            -11.8564   ZZ=            -13.9672
   XY=             -2.4837   XZ=             -0.0825   YZ=              0.0396

 Normal termination of Gaussian 09 at Wed Aug 26 11:28:36 2020.
