 Gaussian 09, Revision D.01,
 Gaussian 09:  ES64L-G09RevD.01 24-Apr-2013

 --------------------
 #p B2PLYPD3/Def2QZVP
 --------------------

 --------
 methanol
 --------
 Symbolic Z-matrix:
 Charge =  0 Multiplicity = 1

                         Standard orientation:
 ---------------------------------------------------------------------
 Center     Atomic      Atomic             Coordinates (Angstroms)
 Number     Number       Type             X           Y           Z
 ---------------------------------------------------------------------
      1          6           0       -0.666122    0.025670    0.020754
      2          8           0        0.743643   -0.167630   -0.031253
      3          1           0       -1.078946    0.648956   -0.731684
      4          1           0       -0.848507    0.374605    0.777465
      5          1           0       -1.073317   -0.917450   -0.026178
      6          1           0        1.048356    1.080909    0.105895
 ---------------------------------------------------------------------

 SCF Done:  E(RB2PLYPD3) =  -115.430378144     A.U. after   11 cycles
 E2(B2PLYPD3) =    -0.1535607361D+00 E(B2PLYPD3) =    -0.11558393888022D+03

 The electronic state is 1-A.
 Alpha  occ. eigenvalues --  -19.74751 -10.61532  -1.12542  -0.80725  -0.56841
 Alpha  occ. eigenvalues --   -0.53639  -0.48313  -0.40675  -0.35371
 Alpha virt. eigenvalues --    0.00725   0.07722   0.12322   0.12815   0.14892
 Alpha virt. eigenvalues --    0.17432   0.18291   0.24052   0.29539   0.32865
 Alpha virt. eigenvalues --    0.34309   0.38915   0.39897   0.42339   0.44940

 Mulliken charges:
               1
     1  C    0.039616
     2  O   -0.485080
     3  H    0.041244
     4  H    0.106212
     5  H    0.059734
     6  H    0.238274
 Sum of Mulliken charges =   0.00000

 Dipole moment (field-independent basis, Debye):
    X=             -1.2383    Y=              1.7377    Z=              0.3405  Tot=              2.1608
 Quadrupole moment (field-independent basis, Debye-Ang):
   XX=            -13.6598   YY=            -11.2414   ZZ=            -13.8367
   XY=              2.1022   XZ=              0.1946   YZ=              0.2223

 Normal termination of Gaussian 09 at Wed Aug 26 18:40:48 2020.
