 Gaussian 09, Revision D.01,
 Gaussian 09:  ES64L-G09RevD.01 24-Apr-2013

 --------------------
 #p B2PLYPD3/Def2QZVP
 --------------------

 --------
 methanol
 --------
 Symbolic Z-matrix:
 Charge =  0 Multiplicity = 1

                         Standard orientation:
 ---------------------------------------------------------------------
 Center     Atomic      Atomic             Coordinates (Angstroms)
 Number     Number       Type             X           Y           Z
 ---------------------------------------------------------------------
      1          6           0        0.663715    0.053472   -0.010402
      2          8           0       -0.735020   -0.167186   -0.004256
      3          1           0        1.052225    0.448734    0.865386
      4          1           0        1.106131    0.549327   -0.770107
      5          1           0        1.087359   -0.924257   -0.016735
      6          1           0       -1.347844    0.942853    0.017913
 ---------------------------------------------------------------------

 SCF Done:  E(RB2PLYPD3) =  -115.488442568     A.U. after   11 cycles
 E2(B2PLYPD3) =    -0.1529098938D+00 E(B2PLYPD3) =    -0.11564135246186D+03

 The electronic state is 1-A.
 Alpha  occ. eigenvalues --  -19.74795 -10.63448  -1.12320  -0.78936  -0.55370
 Alpha  occ. eigenvalues --   -0.52195  -0.48996  -0.39339  -0.35311
 Alpha virt. eigenvalues --    0.01292   0.07328   0.12545   0.13019   0.15114
 Alpha virt. eigenvalues --    0.17014   0.18894   0.24657   0.29243   0.33951
 Alpha virt. eigenvalues --    0.34830   0.38208   0.39298   0.42555   0.44537

 Mulliken charges:
               1
     1  C    0.077891
     2  O   -0.489041
     3  H    0.049402
     4  H    0.051761
     5  H    0.057137
     6  H    0.252851
 Sum of Mulliken charges =   0.00000

 Dipole moment (field-independent basis, Debye):
    X=              0.7462    Y=              1.6745    Z=              0.0254  Tot=              1.8334
 Quadrupole moment (field-independent basis, Debye-Ang):
   XX=            -12.2013   YY=            -12.1283   ZZ=            -14.0326
   XY=             -2.5569   XZ=             -0.0983   YZ=             -0.0430

 Normal termination of Gaussian 09 at Wed Aug 26 23:31:03 2020.
