 Gaussian 09, Revision D.01,
 Gaussian 09:  ES64L-G09RevD.01 24-Apr-2013

 --------------------
 #p B2PLYPD3/Def2QZVP
 --------------------

 --------
 methanol
 --------
 Symbolic Z-matrix:
 Charge =  0 Multiplicity = 1

                         Standard orientation:
 ---------------------------------------------------------------------
 Center     Atomic      Atomic             Coordinates (Angstroms)
 Number     Number       Type             X           Y           Z
 ---------------------------------------------------------------------
      1          6           0        0.669607    0.021021   -0.002466
      2          8           0       -0.739088   -0.144655   -0.000197
      3          1           0        1.006742    0.511738    0.879406
      4          1           0        1.055498    0.557393   -0.823669
      5          1           0        1.046226   -0.924666   -0.024330
      6          1           0       -1.213406    0.886648   -0.015036
 ---------------------------------------------------------------------

 SCF Done:  E(RB2PLYPD3) =  -115.524807479     A.U. after   11 cycles
 E2(B2PLYPD3) =    -0.1500938313D+00 E(B2PLYPD3) =    -0.11567490131038D+03

 The electronic state is 1-A.
 Alpha  occ. eigenvalues --  -19.73696 -10.63817  -1.13372  -0.78728  -0.56863
 Alpha  occ. eigenvalues --   -0.51842  -0.49712  -0.40782  -0.34981
 Alpha virt. eigenvalues --    0.03376   0.07794   0.12623   0.12733   0.15012
 Alpha virt. eigenvalues --    0.17160   0.18266   0.28341   0.29781   0.33405
 Alpha virt. eigenvalues --    0.34351   0.38962   0.40086   0.41818   0.43967

 Mulliken charges:
               1
     1  C    0.079377
     2  O   -0.492218
     3  H    0.045551
     4  H    0.044475
     5  H    0.070692
     6  H    0.252123
 Sum of Mulliken charges =   0.00000

 Dipole moment (field-independent basis, Debye):
    X=              0.8545    Y=              1.6098    Z=             -0.0343  Tot=              1.8228
 Quadrupole moment (field-independent basis, Debye-Ang):
   XX=            -12.8233   YY=            -11.9381   ZZ=            -13.9052
   XY=             -2.4424   XZ=             -0.0282   YZ=             -0.0264

 Normal termination of Gaussian 09 at Thu Aug 27 00:07:18 2020.
