 Gaussian 09, Revision D.01,
 Gaussian 09:  ES64L-G09RevD.01 24-Apr-2013

 --------------------
 #p B2PLYPD3/Def2QZVP
 --------------------

 --------
 methanol
 --------
 Symbolic Z-matrix:
 Charge =  0 Multiplicity = 1

                         Standard orientation:
 ---------------------------------------------------------------------
 Center     Atomic      Atomic             Coordinates (Angstroms)
 Number     Number       Type             X           Y           Z
 ---------------------------------------------------------------------
      1          6           0        0.687820    0.054830   -0.019304
      2          8           0       -0.752946   -0.174871    0.002860
      3          1           0        1.015339    0.455911    0.822034
      4          1           0        1.044207    0.480869   -0.723258
      5          1           0        1.000022   -0.966154    0.004950
      6          1           0       -1.162925    1.099364   -0.010778
 ---------------------------------------------------------------------

 SCF Done:  E(RB2PLYPD3) =  -115.435576640     A.U. after   11 cycles
 E2(B2PLYPD3) =    -0.1553194281D+00 E(B2PLYPD3) =    -0.11559089606792D+03

 The electronic state is 1-A.
 Alpha  occ. eigenvalues --  -19.75227 -10.62016  -1.10956  -0.80816  -0.56050
 Alpha  occ. eigenvalues --   -0.53775  -0.47088  -0.39857  -0.35868
 Alpha virt. eigenvalues --    0.00142   0.07542   0.12030   0.12935   0.14855
 Alpha virt. eigenvalues --    0.16955   0.18586   0.23235   0.29063   0.32736
 Alpha virt. eigenvalues --    0.34232   0.37691   0.39516   0.43492   0.45942

 Mulliken charges:
               1
     1  C    0.082604
     2  O   -0.484400
     3  H    0.050492
     4  H    0.066767
     5  H    0.055501
     6  H    0.229037
 Sum of Mulliken charges =   0.00000

 Dipole moment (field-independent basis, Debye):
    X=              1.2368    Y=              1.7645    Z=             -0.0446  Tot=              2.1553
 Quadrupole moment (field-independent basis, Debye-Ang):
   XX=            -13.3313   YY=            -11.4050   ZZ=            -13.8754
   XY=             -2.0821   XZ=             -0.0412   YZ=             -0.0998

 Normal termination of Gaussian 09 at Wed Aug 26 21:38:07 2020.
