 Gaussian 09, Revision D.01,
 Gaussian 09:  ES64L-G09RevD.01 24-Apr-2013

 --------------------
 #p B2PLYPD3/Def2QZVP
 --------------------

 --------
 methanol
 --------
 Symbolic Z-matrix:
 Charge =  0 Multiplicity = 1

                         Standard orientation:
 ---------------------------------------------------------------------
 Center     Atomic      Atomic             Coordinates (Angstroms)
 Number     Number       Type             X           Y           Z
 ---------------------------------------------------------------------
      1          6           0        0.649435   -0.018366    0.002403
      2          8           0       -0.745253    0.078786   -0.017326
      3          1           0        0.998732   -0.860921   -0.739981
      4          1           0        1.096285   -0.165744    1.072232
      5          1           0        1.038880    1.007937   -0.366049
      6          1           0       -1.068484   -0.501361    0.157989
 ---------------------------------------------------------------------

 SCF Done:  E(RB2PLYPD3) =  -115.402373739     A.U. after   11 cycles
 E2(B2PLYPD3) =    -0.1437480405D+00 E(B2PLYPD3) =    -0.11554612177926D+03

 The electronic state is 1-A.
 Alpha  occ. eigenvalues --  -19.69919 -10.68470  -1.25536  -0.81484  -0.61824
 Alpha  occ. eigenvalues --   -0.51798  -0.50491  -0.40694  -0.36084
 Alpha virt. eigenvalues --    0.05362   0.09205   0.11749   0.12012   0.14499
 Alpha virt. eigenvalues --    0.16868   0.18040   0.28467   0.32750   0.33725
 Alpha virt. eigenvalues --    0.36046   0.38417   0.38859   0.40896   0.42686

 Mulliken charges:
               1
     1  C    0.043992
     2  O   -0.224838
     3  H    0.046040
     4  H    0.049698
     5  H    0.075792
     6  H    0.009316
 Sum of Mulliken charges =   0.00000

 Dipole moment (field-independent basis, Debye):
    X=              0.8261    Y=             -1.1334    Z=              0.3411  Tot=              1.4434
 Quadrupole moment (field-independent basis, Debye-Ang):
   XX=            -13.2012   YY=            -12.6586   ZZ=            -13.4808
   XY=              1.8417   XZ=             -0.4640   YZ=             -0.2062

 Normal termination of Gaussian 09 at Wed Aug 26 15:40:01 2020.
