 Gaussian 09, Revision D.01,
 Gaussian 09:  ES64L-G09RevD.01 24-Apr-2013

 --------------------
 #p B2PLYPD3/Def2QZVP
 --------------------

 --------
 methanol
 --------
 Symbolic Z-matrix:
 Charge =  0 Multiplicity = 1

                         Standard orientation:
 ---------------------------------------------------------------------
 Center     Atomic      Atomic             Coordinates (Angstroms)
 Number     Number       Type             X           Y           Z
 ---------------------------------------------------------------------
      1          6           0        0.669405   -0.025812    0.012461
      2          8           0       -0.761125    0.113530   -0.006578
      3          1           0        1.081156   -0.592982   -0.890852
      4          1           0        1.091375   -0.480745    0.899907
      5          1           0        1.099755    1.019832   -0.063717
      6          1           0       -1.199719   -0.699473    0.032521
 ---------------------------------------------------------------------

 SCF Done:  E(RB2PLYPD3) =  -115.547522293     A.U. after   10 cycles
 E2(B2PLYPD3) =    -0.1472826114D+00 E(B2PLYPD3) =    -0.11569480490456D+03

 The electronic state is 1-A.
 Alpha  occ. eigenvalues --  -19.72507 -10.66856  -1.16309  -0.78691  -0.59182
 Alpha  occ. eigenvalues --   -0.50930  -0.49236  -0.40640  -0.35671
 Alpha virt. eigenvalues --    0.05165   0.07980   0.12203   0.12342   0.14853
 Alpha virt. eigenvalues --    0.17125   0.18375   0.28947   0.32767   0.33600
 Alpha virt. eigenvalues --    0.35775   0.38022   0.38968   0.40537   0.42620

 Mulliken charges:
               1
     1  C    0.062489
     2  O   -0.448611
     3  H    0.046706
     4  H    0.058465
     5  H    0.068878
     6  H    0.212074
 Sum of Mulliken charges =   0.00000

 Dipole moment (field-independent basis, Debye):
    X=              0.8251    Y=             -1.4556    Z=              0.1230  Tot=              1.6777
 Quadrupole moment (field-independent basis, Debye-Ang):
   XX=            -12.6488   YY=            -12.4994   ZZ=            -13.8748
   XY=              2.2302   XZ=             -0.0294   YZ=             -0.1078

 Normal termination of Gaussian 09 at Wed Aug 26 15:22:33 2020.
