 Gaussian 09, Revision D.01,
 Gaussian 09:  ES64L-G09RevD.01 24-Apr-2013

 --------------------
 #p B2PLYPD3/Def2QZVP
 --------------------

 --------
 methanol
 --------
 Symbolic Z-matrix:
 Charge =  0 Multiplicity = 1

                         Standard orientation:
 ---------------------------------------------------------------------
 Center     Atomic      Atomic             Coordinates (Angstroms)
 Number     Number       Type             X           Y           Z
 ---------------------------------------------------------------------
      1          6           0        0.655587    0.012089   -0.012602
      2          8           0       -0.737614   -0.143164    0.009253
      3          1           0        1.049386    0.571385    0.866330
      4          1           0        1.001725    0.528468   -0.849099
      5          1           0        1.098195   -0.900539    0.011899
      6          1           0       -1.181919    0.873464   -0.027544
 ---------------------------------------------------------------------

 SCF Done:  E(RB2PLYPD3) =  -115.528721501     A.U. after   11 cycles
 E2(B2PLYPD3) =    -0.1494830583D+00 E(B2PLYPD3) =    -0.11567820455952D+03

 The electronic state is 1-A.
 Alpha  occ. eigenvalues --  -19.73739 -10.64107  -1.14354  -0.78640  -0.57289
 Alpha  occ. eigenvalues --   -0.51499  -0.50618  -0.40832  -0.34804
 Alpha virt. eigenvalues --    0.03559   0.07819   0.12625   0.12787   0.14989
 Alpha virt. eigenvalues --    0.17591   0.18187   0.28710   0.29981   0.33211
 Alpha virt. eigenvalues --    0.34679   0.38936   0.40720   0.41213   0.43860

 Mulliken charges:
               1
     1  C    0.079890
     2  O   -0.481719
     3  H    0.034073
     4  H    0.042692
     5  H    0.070244
     6  H    0.254820
 Sum of Mulliken charges =   0.00000

 Dipole moment (field-independent basis, Debye):
    X=              0.8060    Y=              1.5837    Z=             -0.1292  Tot=              1.7817
 Quadrupole moment (field-independent basis, Debye-Ang):
   XX=            -12.8750   YY=            -11.9958   ZZ=            -13.9623
   XY=             -2.4990   XZ=              0.0295   YZ=             -0.1119

 Normal termination of Gaussian 09 at Thu Aug 27 01:07:38 2020.
