 Gaussian 09, Revision D.01,
 Gaussian 09:  ES64L-G09RevD.01 24-Apr-2013

 --------------------
 #p B2PLYPD3/Def2QZVP
 --------------------

 --------
 methanol
 --------
 Symbolic Z-matrix:
 Charge =  0 Multiplicity = 1

                         Standard orientation:
 ---------------------------------------------------------------------
 Center     Atomic      Atomic             Coordinates (Angstroms)
 Number     Number       Type             X           Y           Z
 ---------------------------------------------------------------------
      1          6           0       -0.662965    0.008487    0.018015
      2          8           0        0.742629   -0.192685   -0.001737
      3          1           0       -1.041305    0.537970   -0.790325
      4          1           0       -0.914545    0.567683    0.795007
      5          1           0       -1.231474   -0.727620   -0.043619
      6          1           0        1.224083    1.112526   -0.055256
 ---------------------------------------------------------------------

 SCF Done:  E(RB2PLYPD3) =  -115.430391700     A.U. after   11 cycles
 E2(B2PLYPD3) =    -0.1552451787D+00 E(B2PLYPD3) =    -0.11558563687860D+03

 The electronic state is 1-A.
 Alpha  occ. eigenvalues --  -19.75312 -10.61669  -1.11696  -0.80833  -0.55025
 Alpha  occ. eigenvalues --   -0.52045  -0.49997  -0.39416  -0.34818
 Alpha virt. eigenvalues --   -0.01498   0.07382   0.12842   0.13017   0.14415
 Alpha virt. eigenvalues --    0.17979   0.19146   0.22607   0.29839   0.32853
 Alpha virt. eigenvalues --    0.33814   0.38998   0.40616   0.41926   0.44624

 Mulliken charges:
               1
     1  C    0.106007
     2  O   -0.486720
     3  H    0.028912
     4  H    0.039377
     5  H    0.062940
     6  H    0.249483
 Sum of Mulliken charges =   0.00000

 Dipole moment (field-independent basis, Debye):
    X=             -1.0362    Y=              1.7694    Z=             -0.0662  Tot=              2.0516
 Quadrupole moment (field-independent basis, Debye-Ang):
   XX=            -12.7322   YY=            -11.5366   ZZ=            -14.0667
   XY=              2.7324   XZ=              0.0263   YZ=              0.0399

 Normal termination of Gaussian 09 at Wed Aug 26 21:23:53 2020.
