 Gaussian 09, Revision D.01,
 Gaussian 09:  ES64L-G09RevD.01 24-Apr-2013

 --------------------
 #p B2PLYPD3/Def2QZVP
 --------------------

 --------
 methanol
 --------
 Symbolic Z-matrix:
 Charge =  0 Multiplicity = 1

                         Standard orientation:
 ---------------------------------------------------------------------
 Center     Atomic      Atomic             Coordinates (Angstroms)
 Number     Number       Type             X           Y           Z
 ---------------------------------------------------------------------
      1          6           0       -0.672908   -0.020983    0.011598
      2          8           0        0.745065    0.084852   -0.013996
      3          1           0       -0.987680   -0.528161    0.913723
      4          1           0       -1.096973   -0.566838   -0.906179
      5          1           0       -0.957697    1.126964    0.000158
      6          1           0        1.119279   -0.584885    0.034676
 ---------------------------------------------------------------------

 SCF Done:  E(RB2PLYPD3) =  -115.490436020     A.U. after   10 cycles
 E2(B2PLYPD3) =    -0.1447206387D+00 E(B2PLYPD3) =    -0.11563515665825D+03

 The electronic state is 1-A.
 Alpha  occ. eigenvalues --  -19.70296 -10.67504  -1.21146  -0.80373  -0.61262
 Alpha  occ. eigenvalues --   -0.51789  -0.49010  -0.40851  -0.35890
 Alpha virt. eigenvalues --    0.05354   0.09005   0.11598   0.12194   0.14949
 Alpha virt. eigenvalues --    0.16537   0.17808   0.29011   0.32728   0.33224
 Alpha virt. eigenvalues --    0.36587   0.38487   0.40267   0.40668   0.42365

 Mulliken charges:
               1
     1  C    0.052400
     2  O   -0.318721
     3  H    0.058873
     4  H    0.051521
     5  H    0.073679
     6  H    0.082248
 Sum of Mulliken charges =   0.00000

 Dipole moment (field-independent basis, Debye):
    X=             -0.8399    Y=             -1.3474    Z=              0.1627  Tot=              1.5960
 Quadrupole moment (field-independent basis, Debye-Ang):
   XX=            -13.1628   YY=            -12.3344   ZZ=            -13.6320
   XY=             -1.7938   XZ=              0.1470   YZ=             -0.1039

 Normal termination of Gaussian 09 at Wed Aug 26 15:48:38 2020.
