 Gaussian 09, Revision D.01,
 Gaussian 09:  ES64L-G09RevD.01 24-Apr-2013

 --------------------
 #p B2PLYPD3/Def2QZVP
 --------------------

 --------
 methanol
 --------
 Symbolic Z-matrix:
 Charge =  0 Multiplicity = 1

                         Standard orientation:
 ---------------------------------------------------------------------
 Center     Atomic      Atomic             Coordinates (Angstroms)
 Number     Number       Type             X           Y           Z
 ---------------------------------------------------------------------
      1          6           0       -0.656608    0.033332    0.000586
      2          8           0        0.753276   -0.167232    0.005983
      3          1           0       -1.144865    0.407407   -0.799286
      4          1           0       -0.871029    0.657424    0.806446
      5          1           0       -1.215458   -0.887427    0.075996
      6          1           0        1.144788    0.960459   -0.134534
 ---------------------------------------------------------------------

 SCF Done:  E(RB2PLYPD3) =  -115.499274228     A.U. after   11 cycles
 E2(B2PLYPD3) =    -0.1519838405D+00 E(B2PLYPD3) =    -0.11565125806835D+03

 The electronic state is 1-A.
 Alpha  occ. eigenvalues --  -19.74704 -10.63782  -1.12989  -0.79046  -0.55390
 Alpha  occ. eigenvalues --   -0.53265  -0.48731  -0.40271  -0.35246
 Alpha virt. eigenvalues --    0.02209   0.07433   0.12571   0.12695   0.14606
 Alpha virt. eigenvalues --    0.17945   0.18741   0.25990   0.29512   0.32218
 Alpha virt. eigenvalues --    0.34442   0.38410   0.39936   0.41561   0.44201

 Mulliken charges:
               1
     1  C    0.085398
     2  O   -0.480911
     3  H    0.041953
     4  H    0.043506
     5  H    0.054458
     6  H    0.255595
 Sum of Mulliken charges =   0.00000

 Dipole moment (field-independent basis, Debye):
    X=             -0.9990    Y=              1.7340    Z=             -0.2518  Tot=              2.0169
 Quadrupole moment (field-independent basis, Debye-Ang):
   XX=            -12.9861   YY=            -11.9136   ZZ=            -14.0217
   XY=              2.4616   XZ=              0.0076   YZ=             -0.1128

 Normal termination of Gaussian 09 at Wed Aug 26 23:56:29 2020.
