 Gaussian 09, Revision D.01,
 Gaussian 09:  ES64L-G09RevD.01 24-Apr-2013

 --------------------
 #p B2PLYPD3/Def2QZVP
 --------------------

 --------
 methanol
 --------
 Symbolic Z-matrix:
 Charge =  0 Multiplicity = 1

                         Standard orientation:
 ---------------------------------------------------------------------
 Center     Atomic      Atomic             Coordinates (Angstroms)
 Number     Number       Type             X           Y           Z
 ---------------------------------------------------------------------
      1          6           0       -0.660394    0.013542    0.014973
      2          8           0        0.752400   -0.082227   -0.048285
      3          1           0       -0.914545    1.141741   -0.393618
      4          1           0       -1.119739   -0.285752    0.982396
      5          1           0       -1.036530   -0.758904   -0.676142
      6          1           0        1.013979    0.479476    0.383804
 ---------------------------------------------------------------------

 SCF Done:  E(RB2PLYPD3) =  -115.475478027     A.U. after   11 cycles
 E2(B2PLYPD3) =    -0.1448935897D+00 E(B2PLYPD3) =    -0.11562037161686D+03

 The electronic state is 1-A.
 Alpha  occ. eigenvalues --  -19.70682 -10.67727  -1.22701  -0.79963  -0.60677
 Alpha  occ. eigenvalues --   -0.52269  -0.50054  -0.41344  -0.35917
 Alpha virt. eigenvalues --    0.05259   0.08938   0.11408   0.12403   0.14113
 Alpha virt. eigenvalues --    0.17047   0.18357   0.28355   0.31683   0.33509
 Alpha virt. eigenvalues --    0.35245   0.38303   0.40768   0.40987   0.43265

 Mulliken charges:
               1
     1  C    0.046605
     2  O   -0.294258
     3  H    0.039226
     4  H    0.059411
     5  H    0.074162
     6  H    0.074854
 Sum of Mulliken charges =   0.00000

 Dipole moment (field-independent basis, Debye):
    X=             -0.9841    Y=              0.9181    Z=              0.8158  Tot=              1.5738
 Quadrupole moment (field-independent basis, Debye-Ang):
   XX=            -13.5274   YY=            -12.7289   ZZ=            -13.2547
   XY=              1.8225   XZ=              0.9871   YZ=              0.4160

 Normal termination of Gaussian 09 at Wed Aug 26 23:53:24 2020.
