 Gaussian 09, Revision D.01,
 Gaussian 09:  ES64L-G09RevD.01 24-Apr-2013

 --------------------
 #p B2PLYPD3/Def2QZVP
 --------------------

 --------
 methanol
 --------
 Symbolic Z-matrix:
 Charge =  0 Multiplicity = 1

                         Standard orientation:
 ---------------------------------------------------------------------
 Center     Atomic      Atomic             Coordinates (Angstroms)
 Number     Number       Type             X           Y           Z
 ---------------------------------------------------------------------
      1          6           0       -0.675252   -0.001342    0.010494
      2          8           0        0.762657   -0.066914   -0.039614
      3          1           0       -1.092904    0.991135   -0.589294
      4          1           0       -1.041998    0.006057    1.099235
      5          1           0       -1.056668   -0.914509   -0.490275
      6          1           0        1.141828    0.460681    0.234282
 ---------------------------------------------------------------------

 SCF Done:  E(RB2PLYPD3) =  -115.423295720     A.U. after   11 cycles
 E2(B2PLYPD3) =    -0.1443598624D+00 E(B2PLYPD3) =    -0.11556765558202D+03

 The electronic state is 1-A.
 Alpha  occ. eigenvalues --  -19.69761 -10.68883  -1.23101  -0.81365  -0.61035
 Alpha  occ. eigenvalues --   -0.50846  -0.50318  -0.40676  -0.35924
 Alpha virt. eigenvalues --    0.05339   0.08972   0.11533   0.12200   0.14315
 Alpha virt. eigenvalues --    0.16834   0.17919   0.28680   0.31776   0.32599
 Alpha virt. eigenvalues --    0.35527   0.38287   0.39262   0.40640   0.42244

 Mulliken charges:
               1
     1  C    0.054439
     2  O   -0.264602
     3  H    0.041204
     4  H    0.056824
     5  H    0.090862
     6  H    0.021273
 Sum of Mulliken charges =   0.00000

 Dipole moment (field-independent basis, Debye):
    X=             -0.9302    Y=              0.9587    Z=              0.5946  Tot=              1.4622
 Quadrupole moment (field-independent basis, Debye-Ang):
   XX=            -12.8924   YY=            -12.8344   ZZ=            -13.3910
   XY=              1.8342   XZ=              0.8803   YZ=              0.3880

 Normal termination of Gaussian 09 at Wed Aug 26 14:31:02 2020.
