 Gaussian 09, Revision D.01,
 Gaussian 09:  ES64L-G09RevD.01 24-Apr-2013

 --------------------
 #p B2PLYPD3/Def2QZVP
 --------------------

 --------
 methanol
 --------
 Symbolic Z-matrix:
 Charge =  0 Multiplicity = 1

                         Standard orientation:
 ---------------------------------------------------------------------
 Center     Atomic      Atomic             Coordinates (Angstroms)
 Number     Number       Type             X           Y           Z
 ---------------------------------------------------------------------
      1          6           0       -0.671608    0.024837   -0.006835
      2          8           0        0.751129   -0.138339   -0.001013
      3          1           0       -1.016566    0.531283   -0.855567
      4          1           0       -1.062532    0.497561    0.867772
      5          1           0       -1.050640   -0.945925    0.005279
      6          1           0        1.150353    0.874773    0.031630
 ---------------------------------------------------------------------

 SCF Done:  E(RB2PLYPD3) =  -115.534812999     A.U. after   11 cycles
 E2(B2PLYPD3) =    -0.1496220564D+00 E(B2PLYPD3) =    -0.11568443505586D+03

 The electronic state is 1-A.
 Alpha  occ. eigenvalues --  -19.73587 -10.64203  -1.13665  -0.78823  -0.57004
 Alpha  occ. eigenvalues --   -0.52193  -0.49164  -0.41166  -0.35374
 Alpha virt. eigenvalues --    0.03946   0.07873   0.12534   0.12589   0.14908
 Alpha virt. eigenvalues --    0.17216   0.18374   0.28817   0.30614   0.33534
 Alpha virt. eigenvalues --    0.33815   0.38830   0.40015   0.41919   0.44022

 Mulliken charges:
               1
     1  C    0.076967
     2  O   -0.487491
     3  H    0.050312
     4  H    0.046101
     5  H    0.067219
     6  H    0.246892
 Sum of Mulliken charges =   0.00000

 Dipole moment (field-independent basis, Debye):
    X=             -0.9748    Y=              1.6027    Z=              0.0404  Tot=              1.8763
 Quadrupole moment (field-independent basis, Debye-Ang):
   XX=            -13.0620   YY=            -11.9657   ZZ=            -13.8190
   XY=              2.3114   XZ=              0.0413   YZ=             -0.0042

 Normal termination of Gaussian 09 at Wed Aug 26 10:07:21 2020.
