 Gaussian 09, Revision D.01,
 Gaussian 09:  ES64L-G09RevD.01 24-Apr-2013

 --------------------
 #p B2PLYPD3/Def2QZVP
 --------------------

 --------
 methanol
 --------
 Symbolic Z-matrix:
 Charge =  0 Multiplicity = 1

                         Standard orientation:
 ---------------------------------------------------------------------
 Center     Atomic      Atomic             Coordinates (Angstroms)
 Number     Number       Type             X           Y           Z
 ---------------------------------------------------------------------
      1          6           0       -0.645223   -0.016317    0.001556
      2          8           0        0.740495    0.092296   -0.016389
      3          1           0       -1.053662   -0.417093    0.966336
      4          1           0       -0.957374   -0.757905   -0.843937
      5          1           0       -1.131103    1.061587   -0.141409
      6          1           0        1.089520   -0.527056    0.140785
 ---------------------------------------------------------------------

 SCF Done:  E(RB2PLYPD3) =  -115.453804613     A.U. after   10 cycles
 E2(B2PLYPD3) =    -0.1440201733D+00 E(B2PLYPD3) =    -0.11559782478631D+03

 The electronic state is 1-A.
 Alpha  occ. eigenvalues --  -19.70334 -10.68124  -1.23959  -0.80855  -0.62151
 Alpha  occ. eigenvalues --   -0.51915  -0.50256  -0.40636  -0.35652
 Alpha virt. eigenvalues --    0.05311   0.09131   0.11866   0.12030   0.14734
 Alpha virt. eigenvalues --    0.17162   0.17644   0.28767   0.32435   0.34313
 Alpha virt. eigenvalues --    0.36099   0.38112   0.39577   0.40674   0.42581

 Mulliken charges:
               1
     1  C    0.054650
     2  O   -0.263050
     3  H    0.046082
     4  H    0.042350
     5  H    0.072013
     6  H    0.047955
 Sum of Mulliken charges =   0.00000

 Dipole moment (field-independent basis, Debye):
    X=             -0.7751    Y=             -1.2332    Z=              0.3728  Tot=              1.5035
 Quadrupole moment (field-independent basis, Debye-Ang):
   XX=            -13.0993   YY=            -12.5586   ZZ=            -13.6869
   XY=             -1.9690   XZ=              0.2882   YZ=             -0.1939

 Normal termination of Gaussian 09 at Wed Aug 26 15:11:39 2020.
