 Gaussian 09, Revision D.01,
 Gaussian 09:  ES64L-G09RevD.01 24-Apr-2013

 --------------------
 #p B2PLYPD3/Def2QZVP
 --------------------

 --------
 methanol
 --------
 Symbolic Z-matrix:
 Charge =  0 Multiplicity = 1

                         Standard orientation:
 ---------------------------------------------------------------------
 Center     Atomic      Atomic             Coordinates (Angstroms)
 Number     Number       Type             X           Y           Z
 ---------------------------------------------------------------------
      1          6           0       -0.634762    0.023268   -0.008658
      2          8           0        0.731350   -0.179371    0.008449
      3          1           0       -1.108278    0.423154   -0.730978
      4          1           0       -0.869497    0.668604    0.771782
      5          1           0       -1.175096   -0.858487    0.069467
      6          1           0        1.110641    1.062086   -0.125913
 ---------------------------------------------------------------------

 SCF Done:  E(RB2PLYPD3) =  -115.459012782     A.U. after   11 cycles
 E2(B2PLYPD3) =    -0.1533045489D+00 E(B2PLYPD3) =    -0.11561231733070D+03

 The electronic state is 1-A.
 Alpha  occ. eigenvalues --  -19.75210 -10.62188  -1.13897  -0.79869  -0.55957
 Alpha  occ. eigenvalues --   -0.53395  -0.49539  -0.39997  -0.34720
 Alpha virt. eigenvalues --    0.00118   0.07543   0.12625   0.12964   0.14881
 Alpha virt. eigenvalues --    0.17972   0.18677   0.23662   0.29755   0.32612
 Alpha virt. eigenvalues --    0.35454   0.38606   0.39657   0.42411   0.45628

 Mulliken charges:
               1
     1  C    0.100491
     2  O   -0.463938
     3  H    0.032937
     4  H    0.029257
     5  H    0.051345
     6  H    0.249908
 Sum of Mulliken charges =   0.00000

 Dipole moment (field-independent basis, Debye):
    X=             -0.9808    Y=              1.7856    Z=             -0.2768  Tot=              2.0560
 Quadrupole moment (field-independent basis, Debye-Ang):
   XX=            -13.2000   YY=            -11.4946   ZZ=            -14.1282
   XY=              2.3769   XZ=              0.0637   YZ=             -0.1739

 Normal termination of Gaussian 09 at Wed Aug 26 23:23:58 2020.
