 Gaussian 09, Revision D.01,
 Gaussian 09:  ES64L-G09RevD.01 24-Apr-2013

 --------------------
 #p B2PLYPD3/Def2QZVP
 --------------------

 --------
 methanol
 --------
 Symbolic Z-matrix:
 Charge =  0 Multiplicity = 1

                         Standard orientation:
 ---------------------------------------------------------------------
 Center     Atomic      Atomic             Coordinates (Angstroms)
 Number     Number       Type             X           Y           Z
 ---------------------------------------------------------------------
      1          6           0       -0.659175   -0.013491   -0.004168
      2          8           0        0.746655    0.099287   -0.004967
      3          1           0       -0.984746   -0.534984    0.938086
      4          1           0       -1.086894   -0.557346   -0.878416
      5          1           0       -1.009612    1.052701    0.011185
      6          1           0        1.063061   -0.673717   -0.006106
 ---------------------------------------------------------------------

 SCF Done:  E(RB2PLYPD3) =  -115.532271071     A.U. after   10 cycles
 E2(B2PLYPD3) =    -0.1454581674D+00 E(B2PLYPD3) =    -0.11567772923833D+03

 The electronic state is 1-A.
 Alpha  occ. eigenvalues --  -19.71443 -10.66687  -1.19847  -0.79258  -0.60584
 Alpha  occ. eigenvalues --   -0.51710  -0.49804  -0.41632  -0.35602
 Alpha virt. eigenvalues --    0.05301   0.08810   0.12055   0.12192   0.14931
 Alpha virt. eigenvalues --    0.16971   0.17931   0.28995   0.32886   0.33754
 Alpha virt. eigenvalues --    0.37716   0.38341   0.39999   0.40423   0.42946

 Mulliken charges:
               1
     1  C    0.058885
     2  O   -0.377318
     3  H    0.045790
     4  H    0.049436
     5  H    0.071851
     6  H    0.151355
 Sum of Mulliken charges =   0.00000

 Dipole moment (field-independent basis, Debye):
    X=             -0.8968    Y=             -1.3968    Z=             -0.0086  Tot=              1.6599
 Quadrupole moment (field-independent basis, Debye-Ang):
   XX=            -13.3675   YY=            -12.2204   ZZ=            -13.7182
   XY=             -1.9618   XZ=              0.1017   YZ=              0.0390

 Normal termination of Gaussian 09 at Wed Aug 26 12:19:56 2020.
