 Gaussian 09, Revision D.01,
 Gaussian 09:  ES64L-G09RevD.01 24-Apr-2013

 --------------------
 #p B2PLYPD3/Def2QZVP
 --------------------

 --------
 methanol
 --------
 Symbolic Z-matrix:
 Charge =  0 Multiplicity = 1

                         Standard orientation:
 ---------------------------------------------------------------------
 Center     Atomic      Atomic             Coordinates (Angstroms)
 Number     Number       Type             X           Y           Z
 ---------------------------------------------------------------------
      1          6           0        0.642602    0.051025    0.021793
      2          8           0       -0.733698   -0.209627   -0.016691
      3          1           0        0.925438    0.370549    0.765715
      4          1           0        1.022938    0.557134   -0.751649
      5          1           0        1.211251   -0.777396   -0.057136
      6          1           0       -1.145658    1.220577    0.045842
 ---------------------------------------------------------------------

 SCF Done:  E(RB2PLYPD3) =  -115.374261621     A.U. after   11 cycles
 E2(B2PLYPD3) =    -0.1573380672D+00 E(B2PLYPD3) =    -0.11553159968816D+03

 The electronic state is 1-A.
 Alpha  occ. eigenvalues --  -19.75988 -10.60420  -1.12424  -0.81996  -0.55957
 Alpha  occ. eigenvalues --   -0.52954  -0.49861  -0.38050  -0.35896
 Alpha virt. eigenvalues --   -0.03400   0.07340   0.12830   0.12885   0.14410
 Alpha virt. eigenvalues --    0.18579   0.18739   0.21405   0.29335   0.33624
 Alpha virt. eigenvalues --    0.34749   0.38739   0.40470   0.42633   0.45422

 Mulliken charges:
               1
     1  C    0.076171
     2  O   -0.463916
     3  H    0.085456
     4  H    0.042424
     5  H    0.035049
     6  H    0.224817
 Sum of Mulliken charges =   0.00000

 Dipole moment (field-independent basis, Debye):
    X=              1.2206    Y=              1.7978    Z=              0.1522  Tot=              2.1784
 Quadrupole moment (field-independent basis, Debye-Ang):
   XX=            -13.1901   YY=            -11.3959   ZZ=            -13.8206
   XY=             -2.3712   XZ=             -0.0797   YZ=              0.1076

 Normal termination of Gaussian 09 at Wed Aug 26 21:01:44 2020.
