 Gaussian 09, Revision D.01,
 Gaussian 09:  ES64L-G09RevD.01 24-Apr-2013

 --------------------
 #p B2PLYPD3/Def2QZVP
 --------------------

 --------
 methanol
 --------
 Symbolic Z-matrix:
 Charge =  0 Multiplicity = 1

                         Standard orientation:
 ---------------------------------------------------------------------
 Center     Atomic      Atomic             Coordinates (Angstroms)
 Number     Number       Type             X           Y           Z
 ---------------------------------------------------------------------
      1          6           0        0.674219    0.021754   -0.016025
      2          8           0       -0.762026   -0.172889    0.028896
      3          1           0        1.195082    0.636841    0.742314
      4          1           0        0.998309    0.476370   -0.741223
      5          1           0        1.138340   -0.909435   -0.033279
      6          1           0       -1.280839    1.048814   -0.102827
 ---------------------------------------------------------------------

 SCF Done:  E(RB2PLYPD3) =  -115.446399458     A.U. after   11 cycles
 E2(B2PLYPD3) =    -0.1550956230D+00 E(B2PLYPD3) =    -0.11560149508106D+03

 The electronic state is 1-A.
 Alpha  occ. eigenvalues --  -19.75570 -10.63166  -1.11089  -0.80478  -0.55412
 Alpha  occ. eigenvalues --   -0.50125  -0.48840  -0.40567  -0.35123
 Alpha virt. eigenvalues --   -0.00109   0.07073   0.12273   0.13293   0.14938
 Alpha virt. eigenvalues --    0.17609   0.18406   0.23111   0.29491   0.32860
 Alpha virt. eigenvalues --    0.33781   0.38287   0.38733   0.40307   0.44500

 Mulliken charges:
               1
     1  C    0.079532
     2  O   -0.490064
     3  H    0.035268
     4  H    0.063267
     5  H    0.062630
     6  H    0.249366
 Sum of Mulliken charges =   0.00000

 Dipole moment (field-independent basis, Debye):
    X=              0.9683    Y=              1.7629    Z=             -0.3824  Tot=              2.0473
 Quadrupole moment (field-independent basis, Debye-Ang):
   XX=            -12.5200   YY=            -11.5773   ZZ=            -14.3614
   XY=             -2.4958   XZ=              0.1126   YZ=             -0.2400

 Normal termination of Gaussian 09 at Wed Aug 26 19:29:31 2020.
