 Gaussian 09, Revision D.01,
 Gaussian 09:  ES64L-G09RevD.01 24-Apr-2013

 --------------------
 #p B2PLYPD3/Def2QZVP
 --------------------

 --------
 methanol
 --------
 Symbolic Z-matrix:
 Charge =  0 Multiplicity = 1

                         Standard orientation:
 ---------------------------------------------------------------------
 Center     Atomic      Atomic             Coordinates (Angstroms)
 Number     Number       Type             X           Y           Z
 ---------------------------------------------------------------------
      1          6           0        0.660656    0.045982    0.007525
      2          8           0       -0.737369   -0.147984   -0.011268
      3          1           0        0.958920    0.402525    0.869962
      4          1           0        0.972101    0.611886   -0.802374
      5          1           0        1.112737   -0.969640   -0.079039
      6          1           0       -1.108740    0.863208    0.056446
 ---------------------------------------------------------------------

 SCF Done:  E(RB2PLYPD3) =  -115.527519423     A.U. after   11 cycles
 E2(B2PLYPD3) =    -0.1490307449D+00 E(B2PLYPD3) =    -0.11567655016830D+03

 The electronic state is 1-A.
 Alpha  occ. eigenvalues --  -19.73328 -10.63671  -1.14602  -0.78919  -0.57281
 Alpha  occ. eigenvalues --   -0.54244  -0.48865  -0.40539  -0.35549
 Alpha virt. eigenvalues --    0.03999   0.08082   0.12372   0.12595   0.14795
 Alpha virt. eigenvalues --    0.17564   0.18214   0.28936   0.30465   0.33480
 Alpha virt. eigenvalues --    0.34532   0.37984   0.40422   0.43453   0.44543

 Mulliken charges:
               1
     1  C    0.085139
     2  O   -0.480803
     3  H    0.051318
     4  H    0.047416
     5  H    0.053512
     6  H    0.243418
 Sum of Mulliken charges =   0.00000

 Dipole moment (field-independent basis, Debye):
    X=              0.9629    Y=              1.6885    Z=              0.1555  Tot=              1.9500
 Quadrupole moment (field-independent basis, Debye-Ang):
   XX=            -13.2746   YY=            -11.9790   ZZ=            -13.6654
   XY=             -2.2236   XZ=             -0.0993   YZ=              0.0678

 Normal termination of Gaussian 09 at Wed Aug 26 15:14:26 2020.
