 Gaussian 09, Revision D.01,
 Gaussian 09:  ES64L-G09RevD.01 24-Apr-2013

 --------------------
 #p B2PLYPD3/Def2QZVP
 --------------------

 --------
 methanol
 --------
 Symbolic Z-matrix:
 Charge =  0 Multiplicity = 1

                         Standard orientation:
 ---------------------------------------------------------------------
 Center     Atomic      Atomic             Coordinates (Angstroms)
 Number     Number       Type             X           Y           Z
 ---------------------------------------------------------------------
      1          6           0        0.674299    0.004461   -0.009677
      2          8           0       -0.784522    0.060384   -0.010175
      3          1           0        1.199704   -0.884282   -0.678101
      4          1           0        1.038110   -0.266311    1.054989
      5          1           0        1.045284    1.130985   -0.265168
      6          1           0       -1.052711   -0.490229    0.027746
 ---------------------------------------------------------------------

 SCF Done:  E(RB2PLYPD3) =  -115.239565486     A.U. after   11 cycles
 E2(B2PLYPD3) =    -0.1444393904D+00 E(B2PLYPD3) =    -0.11538400487679D+03

 The electronic state is 1-A.
 Alpha  occ. eigenvalues --  -19.69325 -10.70215  -1.27884  -0.81272  -0.62124
 Alpha  occ. eigenvalues --   -0.49750  -0.49364  -0.42165  -0.36212
 Alpha virt. eigenvalues --    0.04991   0.08914   0.11087   0.11753   0.14820
 Alpha virt. eigenvalues --    0.16377   0.17928   0.28762   0.30146   0.32429
 Alpha virt. eigenvalues --    0.35280   0.35587   0.38407   0.40666   0.41931

 Mulliken charges:
               1
     1  C    0.051071
     2  O   -0.188390
     3  H    0.046635
     4  H    0.056928
     5  H    0.084231
     6  H   -0.050474
 Sum of Mulliken charges =   0.00000

 Dipole moment (field-independent basis, Debye):
    X=              1.1438    Y=             -1.1512    Z=              0.1493  Tot=              1.6297
 Quadrupole moment (field-independent basis, Debye-Ang):
   XX=            -13.1968   YY=            -12.2257   ZZ=            -13.8803
   XY=              1.6367   XZ=             -0.1449   YZ=             -0.1130

 Normal termination of Gaussian 09 at Wed Aug 26 21:42:00 2020.
