 Gaussian 09, Revision D.01,
 Gaussian 09:  ES64L-G09RevD.01 24-Apr-2013

 --------------------
 #p B2PLYPD3/Def2QZVP
 --------------------

 --------
 methanol
 --------
 Symbolic Z-matrix:
 Charge =  0 Multiplicity = 1

                         Standard orientation:
 ---------------------------------------------------------------------
 Center     Atomic      Atomic             Coordinates (Angstroms)
 Number     Number       Type             X           Y           Z
 ---------------------------------------------------------------------
      1          6           0       -0.699225   -0.017357    0.017501
      2          8           0        0.771446    0.052791   -0.027537
      3          1           0       -1.127361   -0.042475    1.040804
      4          1           0       -0.946485   -1.013535   -0.668210
      5          1           0       -0.997546    1.057879   -0.509420
      6          1           0        1.095173   -0.320054    0.252114
 ---------------------------------------------------------------------

 SCF Done:  E(RB2PLYPD3) =  -115.090121476     A.U. after   11 cycles
 E2(B2PLYPD3) =    -0.1439439975D+00 E(B2PLYPD3) =    -0.11523406547385D+03

 The electronic state is 1-A.
 Alpha  occ. eigenvalues --  -19.67871 -10.70352  -1.28937  -0.82636  -0.61960
 Alpha  occ. eigenvalues --   -0.51080  -0.48481  -0.40740  -0.36496
 Alpha virt. eigenvalues --    0.04905   0.09327   0.11049   0.11470   0.14033
 Alpha virt. eigenvalues --    0.16388   0.17693   0.28458   0.29526   0.33024
 Alpha virt. eigenvalues --    0.34594   0.35829   0.38529   0.41388   0.42110

 Mulliken charges:
               1
     1  C    0.044745
     2  O   -0.140391
     3  H    0.073975
     4  H    0.062119
     5  H    0.083722
     6  H   -0.124169
 Sum of Mulliken charges =   0.00000

 Dipole moment (field-independent basis, Debye):
    X=             -1.1423    Y=             -0.8487    Z=              0.7650  Tot=              1.6157
 Quadrupole moment (field-independent basis, Debye-Ang):
   XX=            -13.1507   YY=            -12.7017   ZZ=            -13.0945
   XY=             -1.4902   XZ=              0.6641   YZ=             -0.3029

 Normal termination of Gaussian 09 at Wed Aug 26 23:56:05 2020.
