 Gaussian 09, Revision D.01,
 Gaussian 09:  ES64L-G09RevD.01 24-Apr-2013

 --------------------
 #p B2PLYPD3/Def2QZVP
 --------------------

 --------
 methanol
 --------
 Symbolic Z-matrix:
 Charge =  0 Multiplicity = 1

                         Standard orientation:
 ---------------------------------------------------------------------
 Center     Atomic      Atomic             Coordinates (Angstroms)
 Number     Number       Type             X           Y           Z
 ---------------------------------------------------------------------
      1          6           0        0.664519   -0.014386    0.020340
      2          8           0       -0.732123    0.100532   -0.012337
      3          1           0        1.002454   -0.701193   -0.858444
      4          1           0        0.926024   -0.476189    0.937893
      5          1           0        1.081805    1.041305   -0.125345
      6          1           0       -1.140416   -0.581857    0.022551
 ---------------------------------------------------------------------

 SCF Done:  E(RB2PLYPD3) =  -115.509822146     A.U. after   10 cycles
 E2(B2PLYPD3) =    -0.1445093121D+00 E(B2PLYPD3) =    -0.11565433145803D+03

 The electronic state is 1-A.
 Alpha  occ. eigenvalues --  -19.70356 -10.66899  -1.20552  -0.80438  -0.61001
 Alpha  occ. eigenvalues --   -0.52284  -0.50287  -0.40478  -0.35283
 Alpha virt. eigenvalues --    0.05381   0.09042   0.11995   0.12217   0.14766
 Alpha virt. eigenvalues --    0.16990   0.17435   0.29099   0.32669   0.33592
 Alpha virt. eigenvalues --    0.37426   0.38456   0.39797   0.41092   0.43668

 Mulliken charges:
               1
     1  C    0.069709
     2  O   -0.352747
     3  H    0.034343
     4  H    0.055669
     5  H    0.077917
     6  H    0.115110
 Sum of Mulliken charges =   0.00000

 Dipole moment (field-independent basis, Debye):
    X=              0.7651    Y=             -1.3177    Z=              0.1607  Tot=              1.5321
 Quadrupole moment (field-independent basis, Debye-Ang):
   XX=            -13.0309   YY=            -12.3880   ZZ=            -13.6508
   XY=              2.1265   XZ=             -0.0786   YZ=             -0.1662

 Normal termination of Gaussian 09 at Wed Aug 26 11:50:44 2020.
