 Gaussian 09, Revision D.01,
 Gaussian 09:  ES64L-G09RevD.01 24-Apr-2013

 --------------------
 #p B2PLYPD3/Def2QZVP
 --------------------

 --------
 methanol
 --------
 Symbolic Z-matrix:
 Charge =  0 Multiplicity = 1

                         Standard orientation:
 ---------------------------------------------------------------------
 Center     Atomic      Atomic             Coordinates (Angstroms)
 Number     Number       Type             X           Y           Z
 ---------------------------------------------------------------------
      1          6           0        0.675083    0.021825    0.032967
      2          8           0       -0.726396   -0.194380   -0.028702
      3          1           0        1.023699    0.241369    0.790138
      4          1           0        1.055380    0.766178   -0.710373
      5          1           0        0.975655   -0.764253   -0.185715
      6          1           0       -1.294064    1.180796    0.137767
 ---------------------------------------------------------------------

 SCF Done:  E(RB2PLYPD3) =  -115.345768509     A.U. after   13 cycles
 E2(B2PLYPD3) =    -0.1578461189D+00 E(B2PLYPD3) =    -0.11550361462761D+03

 The electronic state is 1-A.
 Alpha  occ. eigenvalues --  -19.75729 -10.60497  -1.11788  -0.82134  -0.57540
 Alpha  occ. eigenvalues --   -0.52151  -0.48815  -0.38911  -0.35295
 Alpha virt. eigenvalues --   -0.03154   0.07434   0.12709   0.13033   0.14820
 Alpha virt. eigenvalues --    0.16961   0.18693   0.21216   0.29364   0.33372
 Alpha virt. eigenvalues --    0.34621   0.36627   0.40164   0.42169   0.47120

 Mulliken charges:
               1
     1  C    0.015207
     2  O   -0.470483
     3  H    0.085773
     4  H    0.037725
     5  H    0.110656
     6  H    0.221122
 Sum of Mulliken charges =   0.00000

 Dipole moment (field-independent basis, Debye):
    X=              1.0768    Y=              1.5988    Z=              0.3461  Tot=              1.9584
 Quadrupole moment (field-independent basis, Debye-Ang):
   XX=            -12.8376   YY=            -11.3325   ZZ=            -13.9113
   XY=             -2.5857   XZ=             -0.0884   YZ=              0.2874

 Normal termination of Gaussian 09 at Wed Aug 26 22:30:27 2020.
