 Gaussian 09, Revision D.01,
 Gaussian 09:  ES64L-G09RevD.01 24-Apr-2013

 --------------------
 #p B2PLYPD3/Def2QZVP
 --------------------

 --------
 methanol
 --------
 Symbolic Z-matrix:
 Charge =  0 Multiplicity = 1

                         Standard orientation:
 ---------------------------------------------------------------------
 Center     Atomic      Atomic             Coordinates (Angstroms)
 Number     Number       Type             X           Y           Z
 ---------------------------------------------------------------------
      1          6           0       -0.674821    0.002822    0.012252
      2          8           0        0.768347   -0.147283   -0.011347
      3          1           0       -1.217767    0.495228   -0.818828
      4          1           0       -1.016450    0.528603    0.819288
      5          1           0       -0.988918   -0.899808    0.030238
      6          1           0        1.125287    1.037314   -0.013438
 ---------------------------------------------------------------------

 SCF Done:  E(RB2PLYPD3) =  -115.483305246     A.U. after   11 cycles
 E2(B2PLYPD3) =    -0.1533613088D+00 E(B2PLYPD3) =    -0.11563666655450D+03

 The electronic state is 1-A.
 Alpha  occ. eigenvalues --  -19.75037 -10.63483  -1.11912  -0.79564  -0.56496
 Alpha  occ. eigenvalues --   -0.50634  -0.48548  -0.41703  -0.35203
 Alpha virt. eigenvalues --    0.01765   0.07373   0.12520   0.12777   0.14958
 Alpha virt. eigenvalues --    0.17163   0.18505   0.25255   0.29320   0.32512
 Alpha virt. eigenvalues --    0.34004   0.38051   0.39325   0.41349   0.43980

 Mulliken charges:
               1
     1  C    0.077709
     2  O   -0.487650
     3  H    0.038254
     4  H    0.045142
     5  H    0.076384
     6  H    0.250161
 Sum of Mulliken charges =   0.00000

 Dipole moment (field-independent basis, Debye):
    X=             -1.1284    Y=              1.6456    Z=              0.0887  Tot=              1.9973
 Quadrupole moment (field-independent basis, Debye-Ang):
   XX=            -13.2259   YY=            -11.4852   ZZ=            -14.1485
   XY=              2.2464   XZ=              0.0238   YZ=              0.0604

 Normal termination of Gaussian 09 at Wed Aug 26 23:26:55 2020.
