 Gaussian 09, Revision D.01,
 Gaussian 09:  ES64L-G09RevD.01 24-Apr-2013

 --------------------
 #p B2PLYPD3/Def2QZVP
 --------------------

 --------
 methanol
 --------
 Symbolic Z-matrix:
 Charge =  0 Multiplicity = 1

                         Standard orientation:
 ---------------------------------------------------------------------
 Center     Atomic      Atomic             Coordinates (Angstroms)
 Number     Number       Type             X           Y           Z
 ---------------------------------------------------------------------
      1          6           0        0.657808   -0.020090    0.008174
      2          8           0       -0.747484    0.112439   -0.011127
      3          1           0        1.068669   -0.603435   -0.881799
      4          1           0        0.998205   -0.507469    0.919389
      5          1           0        1.117882    1.006952   -0.031478
      6          1           0       -1.151730   -0.675019    0.033860
 ---------------------------------------------------------------------

 SCF Done:  E(RB2PLYPD3) =  -115.545739558     A.U. after   10 cycles
 E2(B2PLYPD3) =    -0.1461418325D+00 E(B2PLYPD3) =    -0.11569188139051D+03

 The electronic state is 1-A.
 Alpha  occ. eigenvalues --  -19.71986 -10.66622  -1.18060  -0.79003  -0.59958
 Alpha  occ. eigenvalues --   -0.51522  -0.50047  -0.40709  -0.35486
 Alpha virt. eigenvalues --    0.05250   0.08394   0.12262   0.12347   0.14807
 Alpha virt. eigenvalues --    0.17328   0.18039   0.29057   0.33139   0.33723
 Alpha virt. eigenvalues --    0.36479   0.38716   0.39310   0.40444   0.43323

 Mulliken charges:
               1
     1  C    0.065420
     2  O   -0.422707
     3  H    0.043153
     4  H    0.050823
     5  H    0.070721
     6  H    0.192590
 Sum of Mulliken charges =   0.00000

 Dipole moment (field-independent basis, Debye):
    X=              0.7971    Y=             -1.4229    Z=              0.1361  Tot=              1.6367
 Quadrupole moment (field-independent basis, Debye-Ang):
   XX=            -12.8805   YY=            -12.4444   ZZ=            -13.7993
   XY=              2.2193   XZ=             -0.1130   YZ=             -0.0902

 Normal termination of Gaussian 09 at Thu Aug 27 00:05:25 2020.
