 Gaussian 09, Revision D.01,
 Gaussian 09:  ES64L-G09RevD.01 24-Apr-2013

 --------------------
 #p B2PLYPD3/Def2QZVP
 --------------------

 --------
 methanol
 --------
 Symbolic Z-matrix:
 Charge =  0 Multiplicity = 1

                         Standard orientation:
 ---------------------------------------------------------------------
 Center     Atomic      Atomic             Coordinates (Angstroms)
 Number     Number       Type             X           Y           Z
 ---------------------------------------------------------------------
      1          6           0        0.656851   -0.028755    0.008828
      2          8           0       -0.752318    0.113614   -0.009656
      3          1           0        1.009042   -0.654597   -0.858506
      4          1           0        1.051077   -0.427943    0.923719
      5          1           0        1.130132    1.022159   -0.108381
      6          1           0       -1.112808   -0.676002    0.067447
 ---------------------------------------------------------------------

 SCF Done:  E(RB2PLYPD3) =  -115.541280623     A.U. after   10 cycles
 E2(B2PLYPD3) =    -0.1460694828D+00 E(B2PLYPD3) =    -0.11568735010571D+03

 The electronic state is 1-A.
 Alpha  occ. eigenvalues --  -19.71976 -10.66666  -1.18565  -0.78991  -0.60154
 Alpha  occ. eigenvalues --   -0.51999  -0.49546  -0.40804  -0.35823
 Alpha virt. eigenvalues --    0.05253   0.08489   0.12135   0.12292   0.14745
 Alpha virt. eigenvalues --    0.17410   0.18129   0.28962   0.33086   0.33585
 Alpha virt. eigenvalues --    0.36561   0.37884   0.39624   0.41097   0.43321

 Mulliken charges:
               1
     1  C    0.063309
     2  O   -0.410097
     3  H    0.046777
     4  H    0.055779
     5  H    0.063037
     6  H    0.181195
 Sum of Mulliken charges =   0.00000

 Dipole moment (field-independent basis, Debye):
    X=              0.8733    Y=             -1.4573    Z=              0.1894  Tot=              1.7095
 Quadrupole moment (field-independent basis, Debye-Ang):
   XX=            -13.0385   YY=            -12.4471   ZZ=            -13.7278
   XY=              2.1221   XZ=             -0.1033   YZ=             -0.1155

 Normal termination of Gaussian 09 at Thu Aug 27 00:12:55 2020.
