 Gaussian 09, Revision D.01,
 Gaussian 09:  ES64L-G09RevD.01 24-Apr-2013

 --------------------
 #p B2PLYPD3/Def2QZVP
 --------------------

 --------
 methanol
 --------
 Symbolic Z-matrix:
 Charge =  0 Multiplicity = 1

                         Standard orientation:
 ---------------------------------------------------------------------
 Center     Atomic      Atomic             Coordinates (Angstroms)
 Number     Number       Type             X           Y           Z
 ---------------------------------------------------------------------
      1          6           0        0.682614    0.019582    0.001668
      2          8           0       -0.752465   -0.154726   -0.001197
      3          1           0        1.016104    0.500095    0.830211
      4          1           0        1.095900    0.518350   -0.790895
      5          1           0        0.977433   -0.918926   -0.017360
      6          1           0       -1.165397    1.020793   -0.022389
 ---------------------------------------------------------------------

 SCF Done:  E(RB2PLYPD3) =  -115.486430298     A.U. after   11 cycles
 E2(B2PLYPD3) =    -0.1529068375D+00 E(B2PLYPD3) =    -0.11563933713532D+03

 The electronic state is 1-A.
 Alpha  occ. eigenvalues --  -19.74563 -10.62661  -1.11765  -0.79659  -0.56522
 Alpha  occ. eigenvalues --   -0.52177  -0.48109  -0.41160  -0.35290
 Alpha virt. eigenvalues --    0.01762   0.07643   0.12491   0.12866   0.14980
 Alpha virt. eigenvalues --    0.16960   0.18345   0.25337   0.29424   0.33181
 Alpha virt. eigenvalues --    0.34029   0.38732   0.39614   0.42534   0.44636

 Mulliken charges:
               1
     1  C    0.088985
     2  O   -0.495001
     3  H    0.046650
     4  H    0.043958
     5  H    0.071396
     6  H    0.244013
 Sum of Mulliken charges =   0.00000

 Dipole moment (field-independent basis, Debye):
    X=              1.1163    Y=              1.6817    Z=             -0.0244  Tot=              2.0186
 Quadrupole moment (field-independent basis, Debye-Ang):
   XX=            -13.1577   YY=            -11.4984   ZZ=            -13.9518
   XY=             -2.2426   XZ=             -0.0185   YZ=             -0.0087

 Normal termination of Gaussian 09 at Wed Aug 26 15:51:26 2020.
