 Gaussian 09, Revision D.01,
 Gaussian 09:  ES64L-G09RevD.01 24-Apr-2013

 --------------------
 #p B2PLYPD3/Def2QZVP
 --------------------

 --------
 methanol
 --------
 Symbolic Z-matrix:
 Charge =  0 Multiplicity = 1

                         Standard orientation:
 ---------------------------------------------------------------------
 Center     Atomic      Atomic             Coordinates (Angstroms)
 Number     Number       Type             X           Y           Z
 ---------------------------------------------------------------------
      1          6           0        0.658823    0.001820   -0.012456
      2          8           0       -0.744188   -0.163704    0.008513
      3          1           0        0.920773    0.584845    0.859930
      4          1           0        1.081266    0.447473   -0.771672
      5          1           0        1.025709   -0.842968    0.028575
      6          1           0       -1.027182    1.109357   -0.110200
 ---------------------------------------------------------------------

 SCF Done:  E(RB2PLYPD3) =  -115.449439816     A.U. after   11 cycles
 E2(B2PLYPD3) =    -0.1539201614D+00 E(B2PLYPD3) =    -0.11560335997744D+03

 The electronic state is 1-A.
 Alpha  occ. eigenvalues --  -19.74982 -10.61916  -1.12777  -0.80141  -0.56815
 Alpha  occ. eigenvalues --   -0.52663  -0.48918  -0.40922  -0.34833
 Alpha virt. eigenvalues --    0.00276   0.07715   0.12517   0.12748   0.14681
 Alpha virt. eigenvalues --    0.17711   0.18271   0.23874   0.29588   0.32615
 Alpha virt. eigenvalues --    0.34921   0.38119   0.40232   0.42881   0.45000

 Mulliken charges:
               1
     1  C    0.089747
     2  O   -0.475787
     3  H    0.036060
     4  H    0.034630
     5  H    0.071830
     6  H    0.243520
 Sum of Mulliken charges =   0.00000

 Dipole moment (field-independent basis, Debye):
    X=              1.2146    Y=              1.6620    Z=             -0.2434  Tot=              2.0729
 Quadrupole moment (field-independent basis, Debye-Ang):
   XX=            -13.7222   YY=            -11.2410   ZZ=            -13.9129
   XY=             -2.2020   XZ=             -0.0737   YZ=             -0.2082

 Normal termination of Gaussian 09 at Wed Aug 26 22:08:10 2020.
