 Gaussian 09, Revision D.01,
 Gaussian 09:  ES64L-G09RevD.01 24-Apr-2013

 --------------------
 #p B2PLYPD3/Def2QZVP
 --------------------

 --------
 methanol
 --------
 Symbolic Z-matrix:
 Charge =  0 Multiplicity = 1

                         Standard orientation:
 ---------------------------------------------------------------------
 Center     Atomic      Atomic             Coordinates (Angstroms)
 Number     Number       Type             X           Y           Z
 ---------------------------------------------------------------------
      1          6           0        0.667590    0.024783    0.003198
      2          8           0       -0.748416   -0.141810   -0.001556
      3          1           0        1.006345    0.523892    0.860278
      4          1           0        1.018668    0.561095   -0.845792
      5          1           0        1.132091   -0.937726   -0.022202
      6          1           0       -1.175320    0.838516    0.000974
 ---------------------------------------------------------------------

 SCF Done:  E(RB2PLYPD3) =  -115.539859240     A.U. after   11 cycles
 E2(B2PLYPD3) =    -0.1490162116D+00 E(B2PLYPD3) =    -0.11568887545143D+03

 The electronic state is 1-A.
 Alpha  occ. eigenvalues --  -19.73374 -10.64471  -1.14031  -0.78737  -0.57190
 Alpha  occ. eigenvalues --   -0.52072  -0.49692  -0.40870  -0.35244
 Alpha virt. eigenvalues --    0.04123   0.07859   0.12595   0.12615   0.14837
 Alpha virt. eigenvalues --    0.17593   0.18131   0.29135   0.31018   0.33459
 Alpha virt. eigenvalues --    0.33675   0.39376   0.39903   0.41767   0.43924

 Mulliken charges:
               1
     1  C    0.081225
     2  O   -0.487845
     3  H    0.047518
     4  H    0.044662
     5  H    0.066648
     6  H    0.247793
 Sum of Mulliken charges =   0.00000

 Dipole moment (field-independent basis, Debye):
    X=              0.9101    Y=              1.6177    Z=              0.0149  Tot=              1.8562
 Quadrupole moment (field-independent basis, Debye-Ang):
   XX=            -12.8719   YY=            -12.0753   ZZ=            -13.8688
   XY=             -2.4098   XZ=             -0.0074   YZ=              0.0195

 Normal termination of Gaussian 09 at Thu Aug 27 00:01:37 2020.
