 Gaussian 09, Revision D.01,
 Gaussian 09:  ES64L-G09RevD.01 24-Apr-2013

 --------------------
 #p B2PLYPD3/Def2QZVP
 --------------------

 --------
 methanol
 --------
 Symbolic Z-matrix:
 Charge =  0 Multiplicity = 1

                         Standard orientation:
 ---------------------------------------------------------------------
 Center     Atomic      Atomic             Coordinates (Angstroms)
 Number     Number       Type             X           Y           Z
 ---------------------------------------------------------------------
      1          6           0       -0.664943   -0.016845    0.014445
      2          8           0        0.744199    0.089916   -0.013248
      3          1           0       -1.071529   -0.396893    0.959995
      4          1           0       -0.965602   -0.712559   -0.891774
      5          1           0       -1.033803    1.055498   -0.167326
      6          1           0        1.106995   -0.564306    0.118419
 ---------------------------------------------------------------------

 SCF Done:  E(RB2PLYPD3) =  -115.485207425     A.U. after   10 cycles
 E2(B2PLYPD3) =    -0.1444833419D+00 E(B2PLYPD3) =    -0.11562969076693D+03

 The electronic state is 1-A.
 Alpha  occ. eigenvalues --  -19.70337 -10.67650  -1.21845  -0.80466  -0.61196
 Alpha  occ. eigenvalues --   -0.51660  -0.49981  -0.40925  -0.35668
 Alpha virt. eigenvalues --    0.05371   0.09053   0.11918   0.12002   0.14629
 Alpha virt. eigenvalues --    0.16838   0.17879   0.28910   0.32344   0.33729
 Alpha virt. eigenvalues --    0.37026   0.38149   0.40285   0.40460   0.42476

 Mulliken charges:
               1
     1  C    0.053413
     2  O   -0.305780
     3  H    0.057958
     4  H    0.043118
     5  H    0.075648
     6  H    0.075642
 Sum of Mulliken charges =   0.00000

 Dipole moment (field-independent basis, Debye):
    X=             -0.8380    Y=             -1.2496    Z=              0.3367  Tot=              1.5418
 Quadrupole moment (field-independent basis, Debye-Ang):
   XX=            -13.1491   YY=            -12.5167   ZZ=            -13.5434
   XY=             -1.9771   XZ=              0.1657   YZ=             -0.2425

 Normal termination of Gaussian 09 at Wed Aug 26 13:28:23 2020.
