 Gaussian 09, Revision D.01,
 Gaussian 09:  ES64L-G09RevD.01 24-Apr-2013

 --------------------
 #p B2PLYPD3/Def2QZVP
 --------------------

 --------
 methanol
 --------
 Symbolic Z-matrix:
 Charge =  0 Multiplicity = 1

                         Standard orientation:
 ---------------------------------------------------------------------
 Center     Atomic      Atomic             Coordinates (Angstroms)
 Number     Number       Type             X           Y           Z
 ---------------------------------------------------------------------
      1          6           0        0.670972   -0.017854    0.015969
      2          8           0       -0.750911    0.103122   -0.016000
      3          1           0        1.028794   -0.684917   -0.855446
      4          1           0        0.965271   -0.427437    0.951944
      5          1           0        1.086291    1.026046   -0.123504
      6          1           0       -1.098904   -0.631547    0.059193
 ---------------------------------------------------------------------

 SCF Done:  E(RB2PLYPD3) =  -115.523481642     A.U. after   10 cycles
 E2(B2PLYPD3) =    -0.1451488337D+00 E(B2PLYPD3) =    -0.11566863047564D+03

 The electronic state is 1-A.
 Alpha  occ. eigenvalues --  -19.70911 -10.66784  -1.19610  -0.79761  -0.60352
 Alpha  occ. eigenvalues --   -0.52039  -0.49816  -0.41219  -0.35718
 Alpha virt. eigenvalues --    0.05370   0.08860   0.12037   0.12188   0.14652
 Alpha virt. eigenvalues --    0.17149   0.17740   0.29012   0.32714   0.33026
 Alpha virt. eigenvalues --    0.37371   0.38544   0.39558   0.41108   0.43491

 Mulliken charges:
               1
     1  C    0.068441
     2  O   -0.377745
     3  H    0.042918
     4  H    0.057840
     5  H    0.074086
     6  H    0.134459
 Sum of Mulliken charges =   0.00000

 Dipole moment (field-independent basis, Debye):
    X=              0.9472    Y=             -1.3653    Z=              0.2195  Tot=              1.6762
 Quadrupole moment (field-independent basis, Debye-Ang):
   XX=            -13.1817   YY=            -12.3556   ZZ=            -13.5977
   XY=              2.0895   XZ=             -0.1738   YZ=             -0.1642

 Normal termination of Gaussian 09 at Thu Aug 27 00:12:52 2020.
