 Gaussian 09, Revision D.01,
 Gaussian 09:  ES64L-G09RevD.01 24-Apr-2013

 --------------------
 #p B2PLYPD3/Def2QZVP
 --------------------

 --------
 methanol
 --------
 Symbolic Z-matrix:
 Charge =  0 Multiplicity = 1

                         Standard orientation:
 ---------------------------------------------------------------------
 Center     Atomic      Atomic             Coordinates (Angstroms)
 Number     Number       Type             X           Y           Z
 ---------------------------------------------------------------------
      1          6           0        0.675888    0.005119   -0.004213
      2          8           0       -0.745512   -0.180449   -0.001371
      3          1           0        1.002936    0.470366    0.884338
      4          1           0        0.902710    0.643236   -0.805621
      5          1           0        1.233497   -0.722909   -0.082408
      6          1           0       -1.230371    1.022189    0.039933
 ---------------------------------------------------------------------

 SCF Done:  E(RB2PLYPD3) =  -115.459227710     A.U. after   12 cycles
 E2(B2PLYPD3) =    -0.1533327642D+00 E(B2PLYPD3) =    -0.11561256047375D+03

 The electronic state is 1-A.
 Alpha  occ. eigenvalues --  -19.74602 -10.62597  -1.11549  -0.80182  -0.54361
 Alpha  occ. eigenvalues --   -0.51906  -0.50983  -0.39585  -0.34699
 Alpha virt. eigenvalues --    0.00429   0.07502   0.12573   0.13049   0.14246
 Alpha virt. eigenvalues --    0.17978   0.19011   0.24089   0.29659   0.32625
 Alpha virt. eigenvalues --    0.33048   0.39211   0.40900   0.41312   0.44838

 Mulliken charges:
               1
     1  C    0.087015
     2  O   -0.497331
     3  H    0.039947
     4  H    0.037646
     5  H    0.073511
     6  H    0.259211
 Sum of Mulliken charges =   0.00000

 Dipole moment (field-independent basis, Debye):
    X=              0.9790    Y=              1.6913    Z=              0.0373  Tot=              1.9546
 Quadrupole moment (field-independent basis, Debye-Ang):
   XX=            -12.6968   YY=            -11.8013   ZZ=            -13.9422
   XY=             -2.8640   XZ=             -0.0536   YZ=              0.0398

 Normal termination of Gaussian 09 at Wed Aug 26 21:43:04 2020.
