 Gaussian 09, Revision D.01,
 Gaussian 09:  ES64L-G09RevD.01 24-Apr-2013

 --------------------
 #p B2PLYPD3/Def2QZVP
 --------------------

 --------
 methanol
 --------
 Symbolic Z-matrix:
 Charge =  0 Multiplicity = 1

                         Standard orientation:
 ---------------------------------------------------------------------
 Center     Atomic      Atomic             Coordinates (Angstroms)
 Number     Number       Type             X           Y           Z
 ---------------------------------------------------------------------
      1          6           0        0.682706    0.010798    0.006343
      2          8           0       -0.744108   -0.147907   -0.004707
      3          1           0        1.079129    0.418484    0.865835
      4          1           0        0.965147    0.621754   -0.837943
      5          1           0        0.986395   -0.872291   -0.098510
      6          1           0       -1.174046    0.950526    0.070220
 ---------------------------------------------------------------------

 SCF Done:  E(RB2PLYPD3) =  -115.497849990     A.U. after   11 cycles
 E2(B2PLYPD3) =    -0.1512468052D+00 E(B2PLYPD3) =    -0.11564909679559D+03

 The electronic state is 1-A.
 Alpha  occ. eigenvalues --  -19.73880 -10.62922  -1.12461  -0.79553  -0.56756
 Alpha  occ. eigenvalues --   -0.52051  -0.49302  -0.41179  -0.34956
 Alpha virt. eigenvalues --    0.02749   0.07821   0.12559   0.12815   0.14805
 Alpha virt. eigenvalues --    0.17027   0.18300   0.27129   0.29572   0.32935
 Alpha virt. eigenvalues --    0.34051   0.38213   0.40915   0.42108   0.44013

 Mulliken charges:
               1
     1  C    0.076923
     2  O   -0.498186
     3  H    0.048377
     4  H    0.042522
     5  H    0.080981
     6  H    0.249384
 Sum of Mulliken charges =   0.00000

 Dipole moment (field-independent basis, Debye):
    X=              1.0176    Y=              1.5987    Z=              0.1348  Tot=              1.8998
 Quadrupole moment (field-independent basis, Debye-Ang):
   XX=            -13.0932   YY=            -11.7097   ZZ=            -13.8048
   XY=             -2.4194   XZ=             -0.0193   YZ=              0.1408

 Normal termination of Gaussian 09 at Wed Aug 26 14:21:23 2020.
