 Gaussian 09, Revision D.01,
 Gaussian 09:  ES64L-G09RevD.01 24-Apr-2013

 --------------------
 #p B2PLYPD3/Def2QZVP
 --------------------

 --------
 methanol
 --------
 Symbolic Z-matrix:
 Charge =  0 Multiplicity = 1

                         Standard orientation:
 ---------------------------------------------------------------------
 Center     Atomic      Atomic             Coordinates (Angstroms)
 Number     Number       Type             X           Y           Z
 ---------------------------------------------------------------------
      1          6           0       -0.653380   -0.042052    0.019573
      2          8           0        0.752892    0.115686   -0.031925
      3          1           0       -0.842124   -0.372820    1.022230
      4          1           0       -1.093538   -0.660136   -0.845104
      5          1           0       -1.265793    0.969699   -0.105199
      6          1           0        1.098598   -0.609916    0.066041
 ---------------------------------------------------------------------

 SCF Done:  E(RB2PLYPD3) =  -115.510848359     A.U. after   10 cycles
 E2(B2PLYPD3) =    -0.1454578093D+00 E(B2PLYPD3) =    -0.11565630616791D+03

 The electronic state is 1-A.
 Alpha  occ. eigenvalues --  -19.71254 -10.67402  -1.20546  -0.79404  -0.60379
 Alpha  occ. eigenvalues --   -0.53297  -0.49680  -0.39642  -0.36141
 Alpha virt. eigenvalues --    0.05378   0.08533   0.11851   0.12429   0.13813
 Alpha virt. eigenvalues --    0.18017   0.18261   0.28500   0.32293   0.33308
 Alpha virt. eigenvalues --    0.35000   0.38362   0.38698   0.41607   0.44793

 Mulliken charges:
               1
     1  C    0.054901
     2  O   -0.358721
     3  H    0.062132
     4  H    0.051344
     5  H    0.057988
     6  H    0.132357
 Sum of Mulliken charges =   0.00000

 Dipole moment (field-independent basis, Debye):
    X=             -0.9050    Y=             -1.3791    Z=              0.2548  Tot=              1.6691
 Quadrupole moment (field-independent basis, Debye-Ang):
   XX=            -12.9908   YY=            -12.8798   ZZ=            -13.4658
   XY=             -2.1798   XZ=              0.4734   YZ=             -0.1017

 Normal termination of Gaussian 09 at Wed Aug 26 21:50:55 2020.
