 Gaussian 09, Revision D.01,
 Gaussian 09:  ES64L-G09RevD.01 24-Apr-2013

 --------------------
 #p B2PLYPD3/Def2QZVP
 --------------------

 --------
 methanol
 --------
 Symbolic Z-matrix:
 Charge =  0 Multiplicity = 1

                         Standard orientation:
 ---------------------------------------------------------------------
 Center     Atomic      Atomic             Coordinates (Angstroms)
 Number     Number       Type             X           Y           Z
 ---------------------------------------------------------------------
      1          6           0        0.685480   -0.029970    0.006182
      2          8           0       -0.759384    0.083142   -0.011566
      3          1           0        1.007735   -0.754011   -0.835991
      4          1           0        1.067879   -0.324812    1.022427
      5          1           0        1.058668    1.089632   -0.223512
      6          1           0       -1.172088   -0.496123    0.092516
 ---------------------------------------------------------------------

 SCF Done:  E(RB2PLYPD3) =  -115.439281896     A.U. after   11 cycles
 E2(B2PLYPD3) =    -0.1445933582D+00 E(B2PLYPD3) =    -0.11558387525378D+03

 The electronic state is 1-A.
 Alpha  occ. eigenvalues --  -19.69508 -10.68848  -1.21990  -0.80926  -0.60859
 Alpha  occ. eigenvalues --   -0.51585  -0.48933  -0.39944  -0.36219
 Alpha virt. eigenvalues --    0.05315   0.09003   0.11610   0.11900   0.14301
 Alpha virt. eigenvalues --    0.16650   0.17939   0.28824   0.31397   0.33249
 Alpha virt. eigenvalues --    0.35721   0.37961   0.39520   0.40333   0.41958

 Mulliken charges:
               1
     1  C    0.053485
     2  O   -0.282489
     3  H    0.059079
     4  H    0.065123
     5  H    0.076512
     6  H    0.028291
 Sum of Mulliken charges =   0.00000

 Dipole moment (field-independent basis, Debye):
    X=              0.9220    Y=             -1.2270    Z=              0.2458  Tot=              1.5543
 Quadrupole moment (field-independent basis, Debye-Ang):
   XX=            -12.8292   YY=            -12.6767   ZZ=            -13.4835
   XY=              1.8944   XZ=             -0.2415   YZ=             -0.1013

 Normal termination of Gaussian 09 at Wed Aug 26 16:04:40 2020.
