 Gaussian 09, Revision D.01,
 Gaussian 09:  ES64L-G09RevD.01 24-Apr-2013

 --------------------
 #p B2PLYPD3/Def2QZVP
 --------------------

 --------
 methanol
 --------
 Symbolic Z-matrix:
 Charge =  0 Multiplicity = 1

                         Standard orientation:
 ---------------------------------------------------------------------
 Center     Atomic      Atomic             Coordinates (Angstroms)
 Number     Number       Type             X           Y           Z
 ---------------------------------------------------------------------
      1          6           0       -0.665341    0.004151    0.017592
      2          8           0        0.735093   -0.074787   -0.030401
      3          1           0       -0.995187    0.952651   -0.673001
      4          1           0       -0.978626    0.118822    1.088438
      5          1           0       -1.049804   -0.954814   -0.439270
      6          1           0        1.134918    0.456731    0.161488
 ---------------------------------------------------------------------

 SCF Done:  E(RB2PLYPD3) =  -115.407273808     A.U. after   11 cycles
 E2(B2PLYPD3) =    -0.1435817198D+00 E(B2PLYPD3) =    -0.11555085552768D+03

 The electronic state is 1-A.
 Alpha  occ. eigenvalues --  -19.69173 -10.68374  -1.24196  -0.82300  -0.61291
 Alpha  occ. eigenvalues --   -0.51906  -0.50951  -0.39966  -0.35598
 Alpha virt. eigenvalues --    0.05356   0.09379   0.11636   0.12167   0.14268
 Alpha virt. eigenvalues --    0.16753   0.17593   0.28762   0.32304   0.33046
 Alpha virt. eigenvalues --    0.36513   0.38564   0.39851   0.40737   0.42752

 Mulliken charges:
               1
     1  C    0.055778
     2  O   -0.239892
     3  H    0.035082
     4  H    0.057496
     5  H    0.086886
     6  H    0.004649
 Sum of Mulliken charges =   0.00000

 Dipole moment (field-independent basis, Debye):
    X=             -0.7680    Y=              1.0172    Z=              0.4635  Tot=              1.3563
 Quadrupole moment (field-independent basis, Debye-Ang):
   XX=            -13.0167   YY=            -12.7602   ZZ=            -13.3367
   XY=              1.9349   XZ=              0.6103   YZ=              0.3189

 Normal termination of Gaussian 09 at Wed Aug 26 10:47:04 2020.
