 Gaussian 09, Revision D.01,
 Gaussian 09:  ES64L-G09RevD.01 24-Apr-2013

 --------------------
 #p B2PLYPD3/Def2QZVP
 --------------------

 --------
 methanol
 --------
 Symbolic Z-matrix:
 Charge =  0 Multiplicity = 1

                         Standard orientation:
 ---------------------------------------------------------------------
 Center     Atomic      Atomic             Coordinates (Angstroms)
 Number     Number       Type             X           Y           Z
 ---------------------------------------------------------------------
      1          6           0       -0.660870   -0.013839    0.005356
      2          8           0        0.754299    0.107457   -0.009902
      3          1           0       -1.020624   -0.502790    0.942362
      4          1           0       -1.031423   -0.602007   -0.916371
      5          1           0       -1.122069    0.987875   -0.033373
      6          1           0        1.104940   -0.659703    0.054458
 ---------------------------------------------------------------------

 SCF Done:  E(RB2PLYPD3) =  -115.535781471     A.U. after   10 cycles
 E2(B2PLYPD3) =    -0.1457045593D+00 E(B2PLYPD3) =    -0.11568148603001D+03

 The electronic state is 1-A.
 Alpha  occ. eigenvalues --  -19.71629 -10.66987  -1.19099  -0.79252  -0.60011
 Alpha  occ. eigenvalues --   -0.51381  -0.50449  -0.41089  -0.35615
 Alpha virt. eigenvalues --    0.05318   0.08597   0.12016   0.12423   0.14550
 Alpha virt. eigenvalues --    0.17438   0.17994   0.28913   0.32926   0.33235
 Alpha virt. eigenvalues --    0.36653   0.39331   0.39361   0.39984   0.43440

 Mulliken charges:
               1
     1  C    0.063360
     2  O   -0.394965
     3  H    0.048694
     4  H    0.044030
     5  H    0.074999
     6  H    0.163881
 Sum of Mulliken charges =   0.00000

 Dipole moment (field-independent basis, Debye):
    X=             -0.9050    Y=             -1.3543    Z=              0.1578  Tot=              1.6365
 Quadrupole moment (field-independent basis, Debye-Ang):
   XX=            -13.0837   YY=            -12.4625   ZZ=            -13.6982
   XY=             -2.2044   XZ=              0.1229   YZ=             -0.1017

 Normal termination of Gaussian 09 at Thu Aug 27 00:02:44 2020.
