 Gaussian 09, Revision D.01,
 Gaussian 09:  ES64L-G09RevD.01 24-Apr-2013

 --------------------
 #p B2PLYPD3/Def2QZVP
 --------------------

 --------
 methanol
 --------
 Symbolic Z-matrix:
 Charge =  0 Multiplicity = 1

                         Standard orientation:
 ---------------------------------------------------------------------
 Center     Atomic      Atomic             Coordinates (Angstroms)
 Number     Number       Type             X           Y           Z
 ---------------------------------------------------------------------
      1          6           0        0.679574    0.067747    0.007418
      2          8           0       -0.709213   -0.215766   -0.005998
      3          1           0        0.859774    0.465736    0.756738
      4          1           0        0.962571    0.572751   -0.695907
      5          1           0        1.122712   -0.838739   -0.049526
      6          1           0       -1.348791    1.119899   -0.007829
 ---------------------------------------------------------------------

 SCF Done:  E(RB2PLYPD3) =  -115.369584111     A.U. after   12 cycles
 E2(B2PLYPD3) =    -0.1565270616D+00 E(B2PLYPD3) =    -0.11552611117272D+03

 The electronic state is 1-A.
 Alpha  occ. eigenvalues --  -19.75022 -10.59657  -1.11584  -0.81634  -0.56595
 Alpha  occ. eigenvalues --   -0.55185  -0.48194  -0.38492  -0.35370
 Alpha virt. eigenvalues --   -0.02630   0.07558   0.12498   0.13249   0.14788
 Alpha virt. eigenvalues --    0.17471   0.17935   0.21533   0.29594   0.33235
 Alpha virt. eigenvalues --    0.34550   0.38875   0.39843   0.45140   0.45941

 Mulliken charges:
               1
     1  C    0.065273
     2  O   -0.482255
     3  H    0.090619
     4  H    0.054341
     5  H    0.057898
     6  H    0.214124
 Sum of Mulliken charges =   0.00000

 Dipole moment (field-independent basis, Debye):
    X=              1.0788    Y=              1.7808    Z=              0.0146  Tot=              2.0822
 Quadrupole moment (field-independent basis, Debye-Ang):
   XX=            -12.5850   YY=            -11.4393   ZZ=            -13.8119
   XY=             -2.5530   XZ=             -0.0697   YZ=              0.0109

 Normal termination of Gaussian 09 at Wed Aug 26 21:33:41 2020.
