 Gaussian 09, Revision D.01,
 Gaussian 09:  ES64L-G09RevD.01 24-Apr-2013

 --------------------
 #p B2PLYPD3/Def2QZVP
 --------------------

 --------
 methanol
 --------
 Symbolic Z-matrix:
 Charge =  0 Multiplicity = 1

                         Standard orientation:
 ---------------------------------------------------------------------
 Center     Atomic      Atomic             Coordinates (Angstroms)
 Number     Number       Type             X           Y           Z
 ---------------------------------------------------------------------
      1          6           0        0.706218    0.066460    0.013637
      2          8           0       -0.739860   -0.200803   -0.007270
      3          1           0        0.939632    0.448537    0.734522
      4          1           0        0.967972    0.612104   -0.705692
      5          1           0        1.141483   -0.909941   -0.071618
      6          1           0       -1.367516    1.056968    0.019123
 ---------------------------------------------------------------------

 SCF Done:  E(RB2PLYPD3) =  -115.389047232     A.U. after   12 cycles
 E2(B2PLYPD3) =    -0.1559069943D+00 E(B2PLYPD3) =    -0.11554495422594D+03

 The electronic state is 1-A.
 Alpha  occ. eigenvalues --  -19.74860 -10.61031  -1.09847  -0.81972  -0.55731
 Alpha  occ. eigenvalues --   -0.54281  -0.47101  -0.39286  -0.35517
 Alpha virt. eigenvalues --   -0.01029   0.07365   0.12101   0.13300   0.14726
 Alpha virt. eigenvalues --    0.17312   0.17908   0.22435   0.29204   0.32530
 Alpha virt. eigenvalues --    0.33725   0.37744   0.39682   0.44053   0.45389

 Mulliken charges:
               1
     1  C    0.046875
     2  O   -0.507690
     3  H    0.110547
     4  H    0.056482
     5  H    0.066265
     6  H    0.227521
 Sum of Mulliken charges =   0.00000

 Dipole moment (field-independent basis, Debye):
    X=              1.1110    Y=              1.8136    Z=              0.0762  Tot=              2.1282
 Quadrupole moment (field-independent basis, Debye-Ang):
   XX=            -12.4141   YY=            -11.5170   ZZ=            -13.9367
   XY=             -2.5360   XZ=             -0.0192   YZ=              0.0557

 Normal termination of Gaussian 09 at Wed Aug 26 21:49:36 2020.
