 Gaussian 09, Revision D.01,
 Gaussian 09:  ES64L-G09RevD.01 24-Apr-2013

 --------------------
 #p B2PLYPD3/Def2QZVP
 --------------------

 --------
 methanol
 --------
 Symbolic Z-matrix:
 Charge =  0 Multiplicity = 1

                         Standard orientation:
 ---------------------------------------------------------------------
 Center     Atomic      Atomic             Coordinates (Angstroms)
 Number     Number       Type             X           Y           Z
 ---------------------------------------------------------------------
      1          6           0       -0.662133   -0.032754   -0.012428
      2          8           0        0.740251    0.120215    0.001783
      3          1           0       -0.986270   -0.565974    0.900730
      4          1           0       -1.014613   -0.515060   -0.877168
      5          1           0       -1.095002    1.019323    0.046253
      6          1           0        1.146676   -0.703487   -0.009512
 ---------------------------------------------------------------------

 SCF Done:  E(RB2PLYPD3) =  -115.549112981     A.U. after   10 cycles
 E2(B2PLYPD3) =    -0.1464348410D+00 E(B2PLYPD3) =    -0.11569554782170D+03

 The electronic state is 1-A.
 Alpha  occ. eigenvalues --  -19.72017 -10.65832  -1.17233  -0.78909  -0.59538
 Alpha  occ. eigenvalues --   -0.52519  -0.49492  -0.40582  -0.35522
 Alpha virt. eigenvalues --    0.05147   0.08450   0.12246   0.12369   0.14808
 Alpha virt. eigenvalues --    0.17218   0.18070   0.29101   0.33248   0.33814
 Alpha virt. eigenvalues --    0.36341   0.37901   0.39847   0.41752   0.43842

 Mulliken charges:
               1
     1  C    0.068945
     2  O   -0.441968
     3  H    0.046486
     4  H    0.055554
     5  H    0.064471
     6  H    0.206512
 Sum of Mulliken charges =   0.00000

 Dipole moment (field-independent basis, Debye):
    X=             -0.8139    Y=             -1.5053    Z=             -0.0607  Tot=              1.7123
 Quadrupole moment (field-independent basis, Debye-Ang):
   XX=            -12.9977   YY=            -12.3489   ZZ=            -13.6917
   XY=             -2.1908   XZ=              0.0457   YZ=              0.0835

 Normal termination of Gaussian 09 at Thu Aug 27 00:00:21 2020.
