 Gaussian 09, Revision D.01,
 Gaussian 09:  ES64L-G09RevD.01 24-Apr-2013

 --------------------
 #p B2PLYPD3/Def2QZVP
 --------------------

 --------
 methanol
 --------
 Symbolic Z-matrix:
 Charge =  0 Multiplicity = 1

                         Standard orientation:
 ---------------------------------------------------------------------
 Center     Atomic      Atomic             Coordinates (Angstroms)
 Number     Number       Type             X           Y           Z
 ---------------------------------------------------------------------
      1          6           0       -0.666102   -0.019946   -0.012906
      2          8           0        0.744859    0.130947    0.007883
      3          1           0       -1.000390   -0.570905    0.899244
      4          1           0       -1.015474   -0.499581   -0.874148
      5          1           0       -1.086647    0.943483    0.033414
      6          1           0        1.140252   -0.800895   -0.044135
 ---------------------------------------------------------------------

 SCF Done:  E(RB2PLYPD3) =  -115.546996452     A.U. after   10 cycles
 E2(B2PLYPD3) =    -0.1480222938D+00 E(B2PLYPD3) =    -0.11569501874598D+03

 The electronic state is 1-A.
 Alpha  occ. eigenvalues --  -19.72900 -10.64859  -1.15162  -0.78735  -0.57977
 Alpha  occ. eigenvalues --   -0.51988  -0.50076  -0.41079  -0.35194
 Alpha virt. eigenvalues --    0.04601   0.08133   0.12352   0.12647   0.14765
 Alpha virt. eigenvalues --    0.17401   0.18158   0.29131   0.32847   0.33161
 Alpha virt. eigenvalues --    0.34084   0.39013   0.40301   0.41379   0.44279

 Mulliken charges:
               1
     1  C    0.074428
     2  O   -0.473702
     3  H    0.041773
     4  H    0.049789
     5  H    0.069901
     6  H    0.237811
 Sum of Mulliken charges =   0.00000

 Dipole moment (field-independent basis, Debye):
    X=             -0.8995    Y=             -1.5283    Z=             -0.1475  Tot=              1.7795
 Quadrupole moment (field-independent basis, Debye-Ang):
   XX=            -13.0646   YY=            -12.1472   ZZ=            -13.7528
   XY=             -2.3549   XZ=             -0.0258   YZ=              0.1306

 Normal termination of Gaussian 09 at Thu Aug 27 00:02:29 2020.
