 Gaussian 09, Revision D.01,
 Gaussian 09:  ES64L-G09RevD.01 24-Apr-2013

 --------------------
 #p B2PLYPD3/Def2QZVP
 --------------------

 --------
 methanol
 --------
 Symbolic Z-matrix:
 Charge =  0 Multiplicity = 1

                         Standard orientation:
 ---------------------------------------------------------------------
 Center     Atomic      Atomic             Coordinates (Angstroms)
 Number     Number       Type             X           Y           Z
 ---------------------------------------------------------------------
      1          6           0        0.674296    0.013988    0.007207
      2          8           0       -0.749899   -0.137980   -0.006589
      3          1           0        1.053043    0.476644    0.860325
      4          1           0        0.998751    0.603399   -0.854394
      5          1           0        1.062083   -0.926284   -0.052736
      6          1           0       -1.160467    0.866150    0.056278
 ---------------------------------------------------------------------

 SCF Done:  E(RB2PLYPD3) =  -115.533796340     A.U. after   11 cycles
 E2(B2PLYPD3) =    -0.1494513910D+00 E(B2PLYPD3) =    -0.11568324773052D+03

 The electronic state is 1-A.
 Alpha  occ. eigenvalues --  -19.73449 -10.64202  -1.13604  -0.78934  -0.57135
 Alpha  occ. eigenvalues --   -0.51654  -0.49751  -0.41319  -0.35090
 Alpha virt. eigenvalues --    0.03936   0.07901   0.12545   0.12630   0.14889
 Alpha virt. eigenvalues --    0.17314   0.18147   0.28999   0.30718   0.33103
 Alpha virt. eigenvalues --    0.33864   0.38906   0.40333   0.41459   0.44083

 Mulliken charges:
               1
     1  C    0.081129
     2  O   -0.490297
     3  H    0.047294
     4  H    0.041973
     5  H    0.071969
     6  H    0.247932
 Sum of Mulliken charges =   0.00000

 Dipole moment (field-independent basis, Debye):
    X=              0.9599    Y=              1.5837    Z=              0.1412  Tot=              1.8573
 Quadrupole moment (field-independent basis, Debye-Ang):
   XX=            -13.0174   YY=            -11.9272   ZZ=            -13.8681
   XY=             -2.3820   XZ=             -0.0371   YZ=              0.1158

 Normal termination of Gaussian 09 at Wed Aug 26 10:25:07 2020.
