 Gaussian 09, Revision D.01,
 Gaussian 09:  ES64L-G09RevD.01 24-Apr-2013

 --------------------
 #p B2PLYPD3/Def2QZVP
 --------------------

 --------
 methanol
 --------
 Symbolic Z-matrix:
 Charge =  0 Multiplicity = 1

                         Standard orientation:
 ---------------------------------------------------------------------
 Center     Atomic      Atomic             Coordinates (Angstroms)
 Number     Number       Type             X           Y           Z
 ---------------------------------------------------------------------
      1          6           0       -0.665445   -0.037566   -0.006400
      2          8           0        0.756399    0.134805    0.005112
      3          1           0       -1.053460   -0.520464    0.879117
      4          1           0       -1.094120   -0.512182   -0.830904
      5          1           0       -1.100211    0.999350   -0.009097
      6          1           0        1.189267   -0.819747   -0.041611
 ---------------------------------------------------------------------

 SCF Done:  E(RB2PLYPD3) =  -115.540635911     A.U. after   10 cycles
 E2(B2PLYPD3) =    -0.1492206693D+00 E(B2PLYPD3) =    -0.11568985658052D+03

 The electronic state is 1-A.
 Alpha  occ. eigenvalues --  -19.73638 -10.65306  -1.14277  -0.78480  -0.57618
 Alpha  occ. eigenvalues --   -0.51761  -0.48777  -0.40655  -0.35636
 Alpha virt. eigenvalues --    0.04348   0.07692   0.12275   0.12626   0.14998
 Alpha virt. eigenvalues --    0.17254   0.18539   0.28862   0.31729   0.33380
 Alpha virt. eigenvalues --    0.34147   0.37554   0.39744   0.41483   0.44161

 Mulliken charges:
               1
     1  C    0.067678
     2  O   -0.476751
     3  H    0.051684
     4  H    0.054207
     5  H    0.058816
     6  H    0.244367
 Sum of Mulliken charges =   0.00000

 Dipole moment (field-independent basis, Debye):
    X=             -0.8670    Y=             -1.6220    Z=             -0.1112  Tot=              1.8425
 Quadrupole moment (field-independent basis, Debye-Ang):
   XX=            -12.7814   YY=            -12.2323   ZZ=            -13.9210
   XY=             -2.2669   XZ=             -0.0247   YZ=              0.0785

 Normal termination of Gaussian 09 at Wed Aug 26 15:54:57 2020.
