 Gaussian 09, Revision D.01,
 Gaussian 09:  ES64L-G09RevD.01 24-Apr-2013

 --------------------
 #p B2PLYPD3/Def2QZVP
 --------------------

 --------
 methanol
 --------
 Symbolic Z-matrix:
 Charge =  0 Multiplicity = 1

                         Standard orientation:
 ---------------------------------------------------------------------
 Center     Atomic      Atomic             Coordinates (Angstroms)
 Number     Number       Type             X           Y           Z
 ---------------------------------------------------------------------
      1          6           0        0.667382    0.024422   -0.006552
      2          8           0       -0.751653   -0.138390    0.001599
      3          1           0        1.022105    0.517560    0.897010
      4          1           0        1.070358    0.524451   -0.846210
      5          1           0        1.091193   -0.933821   -0.001663
      6          1           0       -1.174725    0.852399   -0.022622
 ---------------------------------------------------------------------

 SCF Done:  E(RB2PLYPD3) =  -115.537967668     A.U. after   11 cycles
 E2(B2PLYPD3) =    -0.1493982294D+00 E(B2PLYPD3) =    -0.11568736589783D+03

 The electronic state is 1-A.
 Alpha  occ. eigenvalues --  -19.73604 -10.64621  -1.13909  -0.78677  -0.57009
 Alpha  occ. eigenvalues --   -0.51735  -0.49649  -0.40925  -0.35316
 Alpha virt. eigenvalues --    0.04058   0.07786   0.12495   0.12678   0.14841
 Alpha virt. eigenvalues --    0.17375   0.18430   0.28905   0.30865   0.33303
 Alpha virt. eigenvalues --    0.33991   0.38897   0.40034   0.41383   0.43847

 Mulliken charges:
               1
     1  C    0.073878
     2  O   -0.484872
     3  H    0.046197
     4  H    0.048968
     5  H    0.066937
     6  H    0.248892
 Sum of Mulliken charges =   0.00000

 Dipole moment (field-independent basis, Debye):
    X=              0.9091    Y=              1.5814    Z=             -0.0658  Tot=              1.8253
 Quadrupole moment (field-independent basis, Debye-Ang):
   XX=            -12.8881   YY=            -12.1122   ZZ=            -13.8586
   XY=             -2.3993   XZ=             -0.0264   YZ=             -0.0623

 Normal termination of Gaussian 09 at Thu Aug 27 00:13:46 2020.
