 Gaussian 09, Revision D.01,
 Gaussian 09:  ES64L-G09RevD.01 24-Apr-2013

 --------------------
 #p B2PLYPD3/Def2QZVP
 --------------------

 --------
 methanol
 --------
 Symbolic Z-matrix:
 Charge =  0 Multiplicity = 1

                         Standard orientation:
 ---------------------------------------------------------------------
 Center     Atomic      Atomic             Coordinates (Angstroms)
 Number     Number       Type             X           Y           Z
 ---------------------------------------------------------------------
      1          6           0       -0.665250    0.043593   -0.027693
      2          8           0        0.725856   -0.208598    0.010468
      3          1           0       -1.033423    0.454510   -0.695055
      4          1           0       -0.976643    0.641865    0.734067
      5          1           0       -1.159435   -0.819919    0.092081
      6          1           0        1.354149    1.130771   -0.048684
 ---------------------------------------------------------------------

 SCF Done:  E(RB2PLYPD3) =  -115.385714511     A.U. after   12 cycles
 E2(B2PLYPD3) =    -0.1569798830D+00 E(B2PLYPD3) =    -0.11554269439425D+03

 The electronic state is 1-A.
 Alpha  occ. eigenvalues --  -19.75692 -10.60811  -1.11614  -0.81889  -0.55606
 Alpha  occ. eigenvalues --   -0.52397  -0.49294  -0.38928  -0.35115
 Alpha virt. eigenvalues --   -0.03022   0.07310   0.12631   0.13424   0.14777
 Alpha virt. eigenvalues --    0.17838   0.18380   0.21215   0.29852   0.33416
 Alpha virt. eigenvalues --    0.34918   0.38326   0.38955   0.42724   0.46481

 Mulliken charges:
               1
     1  C    0.078172
     2  O   -0.474323
     3  H    0.077840
     4  H    0.036219
     5  H    0.053677
     6  H    0.228415
 Sum of Mulliken charges =   0.00000

 Dipole moment (field-independent basis, Debye):
    X=             -0.9699    Y=              1.7989    Z=             -0.1553  Tot=              2.0496
 Quadrupole moment (field-independent basis, Debye-Ang):
   XX=            -12.3487   YY=            -11.4633   ZZ=            -14.1517
   XY=              2.6314   XZ=              0.0286   YZ=             -0.1588

 Normal termination of Gaussian 09 at Wed Aug 26 23:53:01 2020.
