 Gaussian 09, Revision D.01,
 Gaussian 09:  ES64L-G09RevD.01 24-Apr-2013

 --------------------
 #p B2PLYPD3/Def2QZVP
 --------------------

 --------
 methanol
 --------
 Symbolic Z-matrix:
 Charge =  0 Multiplicity = 1

                         Standard orientation:
 ---------------------------------------------------------------------
 Center     Atomic      Atomic             Coordinates (Angstroms)
 Number     Number       Type             X           Y           Z
 ---------------------------------------------------------------------
      1          6           0        0.682791    0.019712    0.011506
      2          8           0       -0.757203   -0.080812   -0.039982
      3          1           0        0.969860    0.066478    1.084337
      4          1           0        1.056271    0.932250   -0.636465
      5          1           0        1.077636   -0.971482   -0.402572
      6          1           0       -1.142884    0.500981    0.205517
 ---------------------------------------------------------------------

 SCF Done:  E(RB2PLYPD3) =  -115.466368533     A.U. after   11 cycles
 E2(B2PLYPD3) =    -0.1445708212D+00 E(B2PLYPD3) =    -0.11561093935450D+03

 The electronic state is 1-A.
 Alpha  occ. eigenvalues --  -19.69791 -10.68161  -1.21447  -0.80705  -0.60440
 Alpha  occ. eigenvalues --   -0.51615  -0.49828  -0.40404  -0.36006
 Alpha virt. eigenvalues --    0.05399   0.08992   0.11695   0.12162   0.14182
 Alpha virt. eigenvalues --    0.16801   0.17948   0.28843   0.31681   0.33016
 Alpha virt. eigenvalues --    0.36616   0.37986   0.40042   0.40211   0.42776

 Mulliken charges:
               1
     1  C    0.059890
     2  O   -0.305680
     3  H    0.060869
     4  H    0.052377
     5  H    0.079873
     6  H    0.052672
 Sum of Mulliken charges =   0.00000

 Dipole moment (field-independent basis, Debye):
    X=              0.9551    Y=              1.1219    Z=              0.5417  Tot=              1.5698
 Quadrupole moment (field-independent basis, Debye-Ang):
   XX=            -12.9713   YY=            -12.6617   ZZ=            -13.4039
   XY=             -1.8917   XZ=             -0.7989   YZ=              0.2349

 Normal termination of Gaussian 09 at Wed Aug 26 12:58:31 2020.
