 Gaussian 09, Revision D.01,
 Gaussian 09:  ES64L-G09RevD.01 24-Apr-2013

 --------------------
 #p B2PLYPD3/Def2QZVP
 --------------------

 --------
 methanol
 --------
 Symbolic Z-matrix:
 Charge =  0 Multiplicity = 1

                         Standard orientation:
 ---------------------------------------------------------------------
 Center     Atomic      Atomic             Coordinates (Angstroms)
 Number     Number       Type             X           Y           Z
 ---------------------------------------------------------------------
      1          6           0        0.628395   -0.005240    0.035182
      2          8           0       -0.740251    0.094843   -0.027042
      3          1           0        1.098284   -0.865363   -0.764789
      4          1           0        0.966876   -0.369848    0.949412
      5          1           0        1.223122    1.045331   -0.243538
      6          1           0       -1.136642   -0.537424    0.064158
 ---------------------------------------------------------------------

 SCF Done:  E(RB2PLYPD3) =  -115.457665688     A.U. after   10 cycles
 E2(B2PLYPD3) =    -0.1447412223D+00 E(B2PLYPD3) =    -0.11560240691075D+03

 The electronic state is 1-A.
 Alpha  occ. eigenvalues --  -19.71200 -10.68666  -1.23681  -0.81037  -0.63189
 Alpha  occ. eigenvalues --   -0.51493  -0.50360  -0.39992  -0.35169
 Alpha virt. eigenvalues --    0.05150   0.08676   0.11405   0.12313   0.14866
 Alpha virt. eigenvalues --    0.17600   0.17650   0.28865   0.31647   0.34038
 Alpha virt. eigenvalues --    0.34580   0.36325   0.39837   0.41535   0.43154

 Mulliken charges:
               1
     1  C    0.055087
     2  O   -0.273053
     3  H    0.010078
     4  H    0.061789
     5  H    0.069008
     6  H    0.077092
 Sum of Mulliken charges =   0.00000

 Dipole moment (field-independent basis, Debye):
    X=              0.5831    Y=             -1.2042    Z=              0.4271  Tot=              1.4045
 Quadrupole moment (field-independent basis, Debye-Ang):
   XX=            -12.8090   YY=            -12.7897   ZZ=            -13.9404
   XY=              2.1139   XZ=             -0.1264   YZ=             -0.3587

 Normal termination of Gaussian 09 at Wed Aug 26 22:38:33 2020.
