 Gaussian 09, Revision D.01,
 Gaussian 09:  ES64L-G09RevD.01 24-Apr-2013

 --------------------
 #p B2PLYPD3/Def2QZVP
 --------------------

 --------
 methanol
 --------
 Symbolic Z-matrix:
 Charge =  0 Multiplicity = 1

                         Standard orientation:
 ---------------------------------------------------------------------
 Center     Atomic      Atomic             Coordinates (Angstroms)
 Number     Number       Type             X           Y           Z
 ---------------------------------------------------------------------
      1          6           0       -0.676011    0.028788   -0.014769
      2          8           0        0.757357   -0.166052   -0.011375
      3          1           0       -1.181709    0.478864   -0.766961
      4          1           0       -0.989819    0.521050    0.821463
      5          1           0       -1.033709   -0.902066    0.104933
      6          1           0        1.202448    1.057844    0.020177
 ---------------------------------------------------------------------

 SCF Done:  E(RB2PLYPD3) =  -115.471410651     A.U. after   11 cycles
 E2(B2PLYPD3) =    -0.1543692606D+00 E(B2PLYPD3) =    -0.11562577991191D+03

 The electronic state is 1-A.
 Alpha  occ. eigenvalues --  -19.75236 -10.62823  -1.11440  -0.79839  -0.55401
 Alpha  occ. eigenvalues --   -0.51859  -0.48414  -0.40465  -0.35439
 Alpha virt. eigenvalues --    0.00655   0.07399   0.12448   0.12968   0.14870
 Alpha virt. eigenvalues --    0.17101   0.18723   0.23834   0.29273   0.32607
 Alpha virt. eigenvalues --    0.34673   0.38675   0.39240   0.42345   0.44393

 Mulliken charges:
               1
     1  C    0.090599
     2  O   -0.486528
     3  H    0.048704
     4  H    0.041187
     5  H    0.061214
     6  H    0.244824
 Sum of Mulliken charges =   0.00000

 Dipole moment (field-independent basis, Debye):
    X=             -1.0883    Y=              1.7126    Z=              0.0851  Tot=              2.0309
 Quadrupole moment (field-independent basis, Debye-Ang):
   XX=            -12.9355   YY=            -11.5872   ZZ=            -14.0640
   XY=              2.3332   XZ=              0.1459   YZ=             -0.0374

 Normal termination of Gaussian 09 at Wed Aug 26 21:05:44 2020.
