 Gaussian 09, Revision D.01,
 Gaussian 09:  ES64L-G09RevD.01 24-Apr-2013

 --------------------
 #p B2PLYPD3/Def2QZVP
 --------------------

 --------
 methanol
 --------
 Symbolic Z-matrix:
 Charge =  0 Multiplicity = 1

                         Standard orientation:
 ---------------------------------------------------------------------
 Center     Atomic      Atomic             Coordinates (Angstroms)
 Number     Number       Type             X           Y           Z
 ---------------------------------------------------------------------
      1          6           0       -0.668102    0.017793   -0.003806
      2          8           0        0.749169   -0.143428   -0.003865
      3          1           0       -1.028685    0.571653   -0.844943
      4          1           0       -1.064166    0.497278    0.868043
      5          1           0       -1.088299   -0.911275   -0.011290
      6          1           0        1.196408    0.883011    0.041945
 ---------------------------------------------------------------------

 SCF Done:  E(RB2PLYPD3) =  -115.528191536     A.U. after   11 cycles
 E2(B2PLYPD3) =    -0.1500571122D+00 E(B2PLYPD3) =    -0.11567824864822D+03

 The electronic state is 1-A.
 Alpha  occ. eigenvalues --  -19.73838 -10.64196  -1.13364  -0.78808  -0.56634
 Alpha  occ. eigenvalues --   -0.51540  -0.49856  -0.40913  -0.35112
 Alpha virt. eigenvalues --    0.03534   0.07703   0.12615   0.12733   0.14918
 Alpha virt. eigenvalues --    0.17405   0.18340   0.28518   0.29889   0.33455
 Alpha virt. eigenvalues --    0.33899   0.38945   0.40252   0.41412   0.43611

 Mulliken charges:
               1
     1  C    0.079421
     2  O   -0.491155
     3  H    0.045273
     4  H    0.043158
     5  H    0.069755
     6  H    0.253547
 Sum of Mulliken charges =   0.00000

 Dipole moment (field-independent basis, Debye):
    X=             -0.8954    Y=              1.6000    Z=              0.0764  Tot=              1.8350
 Quadrupole moment (field-independent basis, Debye-Ang):
   XX=            -12.8120   YY=            -11.9978   ZZ=            -13.9404
   XY=              2.4668   XZ=              0.0637   YZ=              0.0270

 Normal termination of Gaussian 09 at Thu Aug 27 00:01:17 2020.
