 Gaussian 09, Revision D.01,
 Gaussian 09:  ES64L-G09RevD.01 24-Apr-2013

 --------------------
 #p B2PLYPD3/Def2QZVP
 --------------------

 --------
 methanol
 --------
 Symbolic Z-matrix:
 Charge =  0 Multiplicity = 1

                         Standard orientation:
 ---------------------------------------------------------------------
 Center     Atomic      Atomic             Coordinates (Angstroms)
 Number     Number       Type             X           Y           Z
 ---------------------------------------------------------------------
      1          6           0       -0.663890    0.022418   -0.008121
      2          8           0        0.751254   -0.140151   -0.003137
      3          1           0       -1.000781    0.616262   -0.826362
      4          1           0       -1.128658    0.436424    0.882100
      5          1           0       -1.082973   -0.934092   -0.058909
      6          1           0        1.185723    0.868106    0.076989
 ---------------------------------------------------------------------

 SCF Done:  E(RB2PLYPD3) =  -115.532800954     A.U. after   11 cycles
 E2(B2PLYPD3) =    -0.1498981753D+00 E(B2PLYPD3) =    -0.11568269912969D+03

 The electronic state is 1-A.
 Alpha  occ. eigenvalues --  -19.73890 -10.64623  -1.13782  -0.78554  -0.56945
 Alpha  occ. eigenvalues --   -0.51716  -0.49354  -0.40909  -0.35218
 Alpha virt. eigenvalues --    0.03769   0.07667   0.12536   0.12671   0.14979
 Alpha virt. eigenvalues --    0.17302   0.18491   0.28697   0.30231   0.33205
 Alpha virt. eigenvalues --    0.34213   0.38672   0.39674   0.41468   0.43697

 Mulliken charges:
               1
     1  C    0.073565
     2  O   -0.483749
     3  H    0.046962
     4  H    0.043540
     5  H    0.067789
     6  H    0.251892
 Sum of Mulliken charges =   0.00000

 Dipole moment (field-independent basis, Debye):
    X=             -0.8777    Y=              1.5915    Z=              0.1107  Tot=              1.8208
 Quadrupole moment (field-independent basis, Debye-Ang):
   XX=            -12.8386   YY=            -12.0567   ZZ=            -13.9732
   XY=              2.4110   XZ=              0.0943   YZ=              0.0392

 Normal termination of Gaussian 09 at Wed Aug 26 11:51:13 2020.
