 Gaussian 09, Revision D.01,
 Gaussian 09:  ES64L-G09RevD.01 24-Apr-2013

 --------------------
 #p B2PLYPD3/Def2QZVP
 --------------------

 --------
 methanol
 --------
 Symbolic Z-matrix:
 Charge =  0 Multiplicity = 1

                         Standard orientation:
 ---------------------------------------------------------------------
 Center     Atomic      Atomic             Coordinates (Angstroms)
 Number     Number       Type             X           Y           Z
 ---------------------------------------------------------------------
      1          6           0       -0.670953    0.006827   -0.000414
      2          8           0        0.747976    0.042844   -0.006176
      3          1           0       -1.154851   -0.496301    0.961620
      4          1           0       -1.064924   -0.667465   -0.919579
      5          1           0       -0.851589    1.211920   -0.079175
      6          1           0        1.113278   -0.431862    0.089025
 ---------------------------------------------------------------------

 SCF Done:  E(RB2PLYPD3) =  -115.215747181     A.U. after   11 cycles
 E2(B2PLYPD3) =    -0.1439308829D+00 E(B2PLYPD3) =    -0.11535967806402D+03

 The electronic state is 1-A.
 Alpha  occ. eigenvalues --  -19.68574 -10.70255  -1.27911  -0.83402  -0.62023
 Alpha  occ. eigenvalues --   -0.50539  -0.49427  -0.40297  -0.35890
 Alpha virt. eigenvalues --    0.04993   0.09280   0.11142   0.11671   0.14670
 Alpha virt. eigenvalues --    0.16303   0.17486   0.28715   0.31614   0.32840
 Alpha virt. eigenvalues --    0.35887   0.36216   0.37451   0.40175   0.42578

 Mulliken charges:
               1
     1  C    0.038285
     2  O   -0.151250
     3  H    0.050053
     4  H    0.050564
     5  H    0.090753
     6  H   -0.078404
 Sum of Mulliken charges =   0.00000

 Dipole moment (field-independent basis, Debye):
    X=             -0.8005    Y=             -1.0620    Z=              0.2453  Tot=              1.3524
 Quadrupole moment (field-independent basis, Debye-Ang):
   XX=            -13.1397   YY=            -12.3560   ZZ=            -13.7064
   XY=             -1.3931   XZ=              0.1823   YZ=             -0.1378

 Normal termination of Gaussian 09 at Wed Aug 26 21:29:23 2020.
