 Gaussian 09, Revision D.01,
 Gaussian 09:  ES64L-G09RevD.01 24-Apr-2013

 --------------------
 #p B2PLYPD3/Def2QZVP
 --------------------

 --------
 methanol
 --------
 Symbolic Z-matrix:
 Charge =  0 Multiplicity = 1

                         Standard orientation:
 ---------------------------------------------------------------------
 Center     Atomic      Atomic             Coordinates (Angstroms)
 Number     Number       Type             X           Y           Z
 ---------------------------------------------------------------------
      1          6           0       -0.640828    0.012797    0.019532
      2          8           0        0.733541   -0.055800   -0.032352
      3          1           0       -0.868076    1.268678   -0.200716
      4          1           0       -1.175652   -0.421777    0.990460
      5          1           0       -1.103757   -0.681646   -0.890407
      6          1           0        1.124120    0.204362    0.242287
 ---------------------------------------------------------------------

 SCF Done:  E(RB2PLYPD3) =  -114.979070429     A.U. after   11 cycles
 E2(B2PLYPD3) =    -0.1437756056D+00 E(B2PLYPD3) =    -0.11512284603417D+03

 The electronic state is 1-A.
 Alpha  occ. eigenvalues --  -19.68822 -10.71485  -1.31920  -0.86299  -0.62289
 Alpha  occ. eigenvalues --   -0.51968  -0.50711  -0.38274  -0.35859
 Alpha virt. eigenvalues --    0.04690   0.09399   0.10930   0.11650   0.13910
 Alpha virt. eigenvalues --    0.16640   0.17965   0.28091   0.30710   0.33486
 Alpha virt. eigenvalues --    0.34412   0.35677   0.36921   0.41185   0.42825

 Mulliken charges:
               1
     1  C    0.039684
     2  O   -0.054873
     3  H    0.033344
     4  H    0.060514
     5  H    0.077902
     6  H   -0.156572
 Sum of Mulliken charges =   0.00000

 Dipole moment (field-independent basis, Debye):
    X=             -0.6116    Y=              0.5109    Z=              0.7077  Tot=              1.0658
 Quadrupole moment (field-independent basis, Debye-Ang):
   XX=            -12.7988   YY=            -13.2295   ZZ=            -13.3214
   XY=              1.5486   XZ=              0.9974   YZ=              0.1900

 Normal termination of Gaussian 09 at Wed Aug 26 21:28:09 2020.
