 Gaussian 09, Revision D.01,
 Gaussian 09:  ES64L-G09RevD.01 24-Apr-2013

 --------------------
 #p B2PLYPD3/Def2QZVP
 --------------------

 --------
 methanol
 --------
 Symbolic Z-matrix:
 Charge =  0 Multiplicity = 1

                         Standard orientation:
 ---------------------------------------------------------------------
 Center     Atomic      Atomic             Coordinates (Angstroms)
 Number     Number       Type             X           Y           Z
 ---------------------------------------------------------------------
      1          6           0        0.678662   -0.007217    0.006843
      2          8           0       -0.754750    0.094445   -0.009603
      3          1           0        1.024182   -0.696367   -0.871365
      4          1           0        1.044187   -0.422868    0.984383
      5          1           0        1.042151    1.015341   -0.141634
      6          1           0       -1.144491   -0.608367    0.064381
 ---------------------------------------------------------------------

 SCF Done:  E(RB2PLYPD3) =  -115.518117586     A.U. after   10 cycles
 E2(B2PLYPD3) =    -0.1452473094D+00 E(B2PLYPD3) =    -0.11566336489521D+03

 The electronic state is 1-A.
 Alpha  occ. eigenvalues --  -19.70747 -10.67413  -1.19346  -0.79973  -0.60038
 Alpha  occ. eigenvalues --   -0.50989  -0.50370  -0.41014  -0.35567
 Alpha virt. eigenvalues --    0.05388   0.08754   0.11942   0.12256   0.14575
 Alpha virt. eigenvalues --    0.16893   0.17831   0.28998   0.32293   0.33054
 Alpha virt. eigenvalues --    0.37104   0.39237   0.39755   0.39849   0.42557

 Mulliken charges:
               1
     1  C    0.064212
     2  O   -0.373366
     3  H    0.044406
     4  H    0.054353
     5  H    0.083771
     6  H    0.126625
 Sum of Mulliken charges =   0.00000

 Dipole moment (field-independent basis, Debye):
    X=              0.9083    Y=             -1.2833    Z=              0.1742  Tot=              1.5818
 Quadrupole moment (field-independent basis, Debye-Ang):
   XX=            -12.9994   YY=            -12.4286   ZZ=            -13.6504
   XY=              2.1204   XZ=             -0.1544   YZ=             -0.1477

 Normal termination of Gaussian 09 at Thu Aug 27 00:15:08 2020.
