 Gaussian 09, Revision D.01,
 Gaussian 09:  ES64L-G09RevD.01 24-Apr-2013

 --------------------
 #p B2PLYPD3/Def2QZVP
 --------------------

 --------
 methanol
 --------
 Symbolic Z-matrix:
 Charge =  0 Multiplicity = 1

                         Standard orientation:
 ---------------------------------------------------------------------
 Center     Atomic      Atomic             Coordinates (Angstroms)
 Number     Number       Type             X           Y           Z
 ---------------------------------------------------------------------
      1          6           0        0.670959    0.026333    0.005297
      2          8           0       -0.741639   -0.138530   -0.003501
      3          1           0        1.002109    0.494587    0.890581
      4          1           0        1.006832    0.572364   -0.865682
      5          1           0        1.101830   -0.928440   -0.042278
      6          1           0       -1.203415    0.811726    0.013608
 ---------------------------------------------------------------------

 SCF Done:  E(RB2PLYPD3) =  -115.542171678     A.U. after   11 cycles
 E2(B2PLYPD3) =    -0.1486425205D+00 E(B2PLYPD3) =    -0.11569081419876D+03

 The electronic state is 1-A.
 Alpha  occ. eigenvalues --  -19.73043 -10.64500  -1.14145  -0.78729  -0.57192
 Alpha  occ. eigenvalues --   -0.52234  -0.49998  -0.40530  -0.35157
 Alpha virt. eigenvalues --    0.04293   0.07939   0.12489   0.12723   0.14756
 Alpha virt. eigenvalues --    0.17354   0.18215   0.29135   0.31601   0.33410
 Alpha virt. eigenvalues --    0.33724   0.39291   0.40322   0.41773   0.43808

 Mulliken charges:
               1
     1  C    0.077499
     2  O   -0.489522
     3  H    0.050183
     4  H    0.045733
     5  H    0.069501
     6  H    0.246607
 Sum of Mulliken charges =   0.00000

 Dipole moment (field-independent basis, Debye):
    X=              0.8484    Y=              1.5612    Z=              0.0464  Tot=              1.7775
 Quadrupole moment (field-independent basis, Debye-Ang):
   XX=            -12.7827   YY=            -12.1909   ZZ=            -13.7677
   XY=             -2.4662   XZ=             -0.0284   YZ=              0.0449

 Normal termination of Gaussian 09 at Wed Aug 26 23:45:59 2020.
