 Gaussian 09, Revision D.01,
 Gaussian 09:  ES64L-G09RevD.01 24-Apr-2013

 --------------------
 #p B2PLYPD3/Def2QZVP
 --------------------

 --------
 methanol
 --------
 Symbolic Z-matrix:
 Charge =  0 Multiplicity = 1

                         Standard orientation:
 ---------------------------------------------------------------------
 Center     Atomic      Atomic             Coordinates (Angstroms)
 Number     Number       Type             X           Y           Z
 ---------------------------------------------------------------------
      1          6           0       -0.685160   -0.006044    0.011980
      2          8           0        0.761342    0.101863   -0.021786
      3          1           0       -1.052712   -0.264942    1.031947
      4          1           0       -0.994615   -0.799584   -0.805048
      5          1           0       -1.070776    0.925661   -0.275805
      6          1           0        1.138330   -0.639777    0.151315
 ---------------------------------------------------------------------

 SCF Done:  E(RB2PLYPD3) =  -115.532733461     A.U. after   11 cycles
 E2(B2PLYPD3) =    -0.1459898362D+00 E(B2PLYPD3) =    -0.11567872329705D+03

 The electronic state is 1-A.
 Alpha  occ. eigenvalues --  -19.71240 -10.66936  -1.17756  -0.79704  -0.59023
 Alpha  occ. eigenvalues --   -0.51160  -0.50621  -0.41046  -0.35543
 Alpha virt. eigenvalues --    0.05325   0.08535   0.11799   0.12583   0.14268
 Alpha virt. eigenvalues --    0.17113   0.18042   0.28929   0.31685   0.33116
 Alpha virt. eigenvalues --    0.36270   0.39046   0.39723   0.40869   0.43619

 Mulliken charges:
               1
     1  C    0.067222
     2  O   -0.416082
     3  H    0.057392
     4  H    0.042858
     5  H    0.083354
     6  H    0.165257
 Sum of Mulliken charges =   0.00000

 Dipole moment (field-independent basis, Debye):
    X=             -0.9864    Y=             -1.2654    Z=              0.3468  Tot=              1.6415
 Quadrupole moment (field-independent basis, Debye-Ang):
   XX=            -13.0322   YY=            -12.5275   ZZ=            -13.5115
   XY=             -2.2447   XZ=              0.4030   YZ=             -0.2877

 Normal termination of Gaussian 09 at Wed Aug 26 10:20:20 2020.
