 Gaussian 09, Revision D.01,
 Gaussian 09:  ES64L-G09RevD.01 24-Apr-2013

 --------------------
 #p B2PLYPD3/Def2QZVP
 --------------------

 --------
 methanol
 --------
 Symbolic Z-matrix:
 Charge =  0 Multiplicity = 1

                         Standard orientation:
 ---------------------------------------------------------------------
 Center     Atomic      Atomic             Coordinates (Angstroms)
 Number     Number       Type             X           Y           Z
 ---------------------------------------------------------------------
      1          6           0       -0.678987   -0.015635    0.016394
      2          8           0        0.755510    0.093215   -0.020652
      3          1           0       -0.979046   -0.433480    0.964507
      4          1           0       -1.065608   -0.660153   -0.886299
      5          1           0       -1.035972    1.046138   -0.095076
      6          1           0        1.110467   -0.604420    0.083714
 ---------------------------------------------------------------------

 SCF Done:  E(RB2PLYPD3) =  -115.508065431     A.U. after   10 cycles
 E2(B2PLYPD3) =    -0.1450282685D+00 E(B2PLYPD3) =    -0.11565309369925D+03

 The electronic state is 1-A.
 Alpha  occ. eigenvalues --  -19.70551 -10.67274  -1.20061  -0.80045  -0.60369
 Alpha  occ. eigenvalues --   -0.51598  -0.49684  -0.41263  -0.35812
 Alpha virt. eigenvalues --    0.05400   0.08873   0.11947   0.12091   0.14587
 Alpha virt. eigenvalues --    0.16869   0.17845   0.28948   0.32189   0.33042
 Alpha virt. eigenvalues --    0.37142   0.38576   0.39965   0.40569   0.42897

 Mulliken charges:
               1
     1  C    0.062782
     2  O   -0.354047
     3  H    0.059675
     4  H    0.046717
     5  H    0.078271
     6  H    0.106601
 Sum of Mulliken charges =   0.00000

 Dipole moment (field-independent basis, Debye):
    X=             -0.9624    Y=             -1.3029    Z=              0.2883  Tot=              1.6452
 Quadrupole moment (field-independent basis, Debye-Ang):
   XX=            -13.1643   YY=            -12.4056   ZZ=            -13.5433
   XY=             -2.0143   XZ=              0.2528   YZ=             -0.1932

 Normal termination of Gaussian 09 at Thu Aug 27 00:04:50 2020.
