 Gaussian 09, Revision D.01,
 Gaussian 09:  ES64L-G09RevD.01 24-Apr-2013

 --------------------
 #p B2PLYPD3/Def2QZVP
 --------------------

 --------
 methanol
 --------
 Symbolic Z-matrix:
 Charge =  0 Multiplicity = 1

                         Standard orientation:
 ---------------------------------------------------------------------
 Center     Atomic      Atomic             Coordinates (Angstroms)
 Number     Number       Type             X           Y           Z
 ---------------------------------------------------------------------
      1          6           0       -0.667566   -0.007959    0.006863
      2          8           0        0.745168    0.095599   -0.004880
      3          1           0       -1.003208   -0.529121    0.947423
      4          1           0       -0.998053   -0.599919   -0.936982
      5          1           0       -1.054278    1.014164   -0.039798
      6          1           0        1.099596   -0.602163    0.027219
 ---------------------------------------------------------------------

 SCF Done:  E(RB2PLYPD3) =  -115.506049814     A.U. after   10 cycles
 E2(B2PLYPD3) =    -0.1445972301D+00 E(B2PLYPD3) =    -0.11565064704439D+03

 The electronic state is 1-A.
 Alpha  occ. eigenvalues --  -19.70502 -10.67170  -1.20897  -0.80273  -0.60531
 Alpha  occ. eigenvalues --   -0.51548  -0.50828  -0.41149  -0.35513
 Alpha virt. eigenvalues --    0.05403   0.09017   0.11912   0.12309   0.14538
 Alpha virt. eigenvalues --    0.17020   0.17709   0.28913   0.32786   0.33112
 Alpha virt. eigenvalues --    0.37307   0.39462   0.39820   0.40172   0.43141

 Mulliken charges:
               1
     1  C    0.062826
     2  O   -0.339311
     3  H    0.049355
     4  H    0.042754
     5  H    0.082106
     6  H    0.102272
 Sum of Mulliken charges =   0.00000

 Dipole moment (field-independent basis, Debye):
    X=             -0.8895    Y=             -1.2759    Z=              0.0953  Tot=              1.5583
 Quadrupole moment (field-independent basis, Debye-Ang):
   XX=            -13.1908   YY=            -12.3935   ZZ=            -13.5918
   XY=             -2.1122   XZ=              0.0413   YZ=             -0.0859

 Normal termination of Gaussian 09 at Thu Aug 27 00:02:25 2020.
