 Gaussian 09, Revision D.01,
 Gaussian 09:  ES64L-G09RevD.01 24-Apr-2013

 --------------------
 #p B2PLYPD3/Def2QZVP
 --------------------

 --------
 methanol
 --------
 Symbolic Z-matrix:
 Charge =  0 Multiplicity = 1

                         Standard orientation:
 ---------------------------------------------------------------------
 Center     Atomic      Atomic             Coordinates (Angstroms)
 Number     Number       Type             X           Y           Z
 ---------------------------------------------------------------------
      1          6           0        0.679962    0.022126    0.018296
      2          8           0       -0.755516   -0.141039   -0.016683
      3          1           0        0.972251    0.382912    0.891213
      4          1           0        1.045042    0.650783   -0.810140
      5          1           0        1.069312   -0.929890   -0.118517
      6          1           0       -1.122248    0.891754    0.061126
 ---------------------------------------------------------------------

 SCF Done:  E(RB2PLYPD3) =  -115.526666584     A.U. after   11 cycles
 E2(B2PLYPD3) =    -0.1499276213D+00 E(B2PLYPD3) =    -0.11567659420501D+03

 The electronic state is 1-A.
 Alpha  occ. eigenvalues --  -19.73519 -10.63979  -1.13165  -0.79130  -0.56756
 Alpha  occ. eigenvalues --   -0.52548  -0.48932  -0.41302  -0.35385
 Alpha virt. eigenvalues --    0.03838   0.07907   0.12420   0.12578   0.14715
 Alpha virt. eigenvalues --    0.17363   0.18194   0.28690   0.30275   0.33142
 Alpha virt. eigenvalues --    0.33534   0.38589   0.40284   0.42076   0.44369

 Mulliken charges:
               1
     1  C    0.084956
     2  O   -0.494876
     3  H    0.054282
     4  H    0.042099
     5  H    0.067259
     6  H    0.246280
 Sum of Mulliken charges =   0.00000

 Dipole moment (field-independent basis, Debye):
    X=              1.0758    Y=              1.6047    Z=              0.2008  Tot=              1.9423
 Quadrupole moment (field-independent basis, Debye-Ang):
   XX=            -13.2390   YY=            -11.8869   ZZ=            -13.7411
   XY=             -2.3121   XZ=             -0.1341   YZ=              0.1615

 Normal termination of Gaussian 09 at Wed Aug 26 12:18:27 2020.
