 Gaussian 09, Revision D.01,
 Gaussian 09:  ES64L-G09RevD.01 24-Apr-2013

 --------------------
 #p B2PLYPD3/Def2QZVP
 --------------------

 --------
 methanol
 --------
 Symbolic Z-matrix:
 Charge =  0 Multiplicity = 1

                         Standard orientation:
 ---------------------------------------------------------------------
 Center     Atomic      Atomic             Coordinates (Angstroms)
 Number     Number       Type             X           Y           Z
 ---------------------------------------------------------------------
      1          6           0        0.667546   -0.017348    0.003039
      2          8           0       -0.756204    0.102179   -0.009865
      3          1           0        1.070059   -0.657445   -0.859523
      4          1           0        1.033927   -0.453741    0.964519
      5          1           0        1.101220    1.026540   -0.088764
      6          1           0       -1.160848   -0.628697    0.044453
 ---------------------------------------------------------------------

 SCF Done:  E(RB2PLYPD3) =  -115.531502253     A.U. after   10 cycles
 E2(B2PLYPD3) =    -0.1457221784D+00 E(B2PLYPD3) =    -0.11567722443176D+03

 The electronic state is 1-A.
 Alpha  occ. eigenvalues --  -19.71420 -10.67401  -1.18800  -0.79422  -0.60199
 Alpha  occ. eigenvalues --   -0.51066  -0.49876  -0.40748  -0.35679
 Alpha virt. eigenvalues --    0.05359   0.08509   0.12092   0.12239   0.14710
 Alpha virt. eigenvalues --    0.17127   0.18016   0.29006   0.32823   0.33220
 Alpha virt. eigenvalues --    0.36906   0.38860   0.39202   0.39825   0.42527

 Mulliken charges:
               1
     1  C    0.062996
     2  O   -0.394598
     3  H    0.047319
     4  H    0.052568
     5  H    0.075121
     6  H    0.156594
 Sum of Mulliken charges =   0.00000

 Dipole moment (field-independent basis, Debye):
    X=              0.8501    Y=             -1.3550    Z=              0.1297  Tot=              1.6049
 Quadrupole moment (field-independent basis, Debye-Ang):
   XX=            -12.8280   YY=            -12.5067   ZZ=            -13.7708
   XY=              2.1485   XZ=             -0.1549   YZ=             -0.0745

 Normal termination of Gaussian 09 at Thu Aug 27 00:13:57 2020.
