 Gaussian 09, Revision D.01,
 Gaussian 09:  ES64L-G09RevD.01 24-Apr-2013

 --------------------
 #p B2PLYPD3/Def2QZVP
 --------------------

 --------
 methanol
 --------
 Symbolic Z-matrix:
 Charge =  0 Multiplicity = 1

                         Standard orientation:
 ---------------------------------------------------------------------
 Center     Atomic      Atomic             Coordinates (Angstroms)
 Number     Number       Type             X           Y           Z
 ---------------------------------------------------------------------
      1          6           0        0.653556    0.025844    0.006481
      2          8           0       -0.736473   -0.158565   -0.010930
      3          1           0        0.958164    0.447486    0.887840
      4          1           0        1.055266    0.628095   -0.787581
      5          1           0        1.164774   -0.877291   -0.072433
      6          1           0       -1.207755    0.915171    0.020724
 ---------------------------------------------------------------------

 SCF Done:  E(RB2PLYPD3) =  -115.515040267     A.U. after   11 cycles
 E2(B2PLYPD3) =    -0.1506119164D+00 E(B2PLYPD3) =    -0.11566565218377D+03

 The electronic state is 1-A.
 Alpha  occ. eigenvalues --  -19.74136 -10.63661  -1.13662  -0.78631  -0.56153
 Alpha  occ. eigenvalues --   -0.52322  -0.50184  -0.40141  -0.34992
 Alpha virt. eigenvalues --    0.02697   0.07628   0.12674   0.12906   0.14806
 Alpha virt. eigenvalues --    0.17908   0.18299   0.26947   0.29595   0.33252
 Alpha virt. eigenvalues --    0.34758   0.39383   0.40449   0.42154   0.43264

 Mulliken charges:
               1
     1  C    0.083516
     2  O   -0.487287
     3  H    0.046042
     4  H    0.037146
     5  H    0.062174
     6  H    0.258410
 Sum of Mulliken charges =   0.00000

 Dipole moment (field-independent basis, Debye):
    X=              0.8214    Y=              1.6627    Z=              0.0909  Tot=              1.8568
 Quadrupole moment (field-independent basis, Debye-Ang):
   XX=            -12.7488   YY=            -12.0225   ZZ=            -13.9427
   XY=             -2.5713   XZ=             -0.1134   YZ=              0.0620

 Normal termination of Gaussian 09 at Wed Aug 26 11:17:54 2020.
