 Gaussian 09, Revision D.01,
 Gaussian 09:  ES64L-G09RevD.01 24-Apr-2013

 --------------------
 #p B2PLYPD3/Def2QZVP
 --------------------

 --------
 methanol
 --------
 Symbolic Z-matrix:
 Charge =  0 Multiplicity = 1

                         Standard orientation:
 ---------------------------------------------------------------------
 Center     Atomic      Atomic             Coordinates (Angstroms)
 Number     Number       Type             X           Y           Z
 ---------------------------------------------------------------------
      1          6           0        0.657745   -0.008298    0.001675
      2          8           0       -0.761773    0.090780   -0.007613
      3          1           0        0.981772   -0.802953   -0.791828
      4          1           0        1.098612   -0.287746    1.024304
      5          1           0        1.087784    1.002324   -0.278080
      6          1           0       -1.020455   -0.588072    0.096457
 ---------------------------------------------------------------------

 SCF Done:  E(RB2PLYPD3) =  -115.463077326     A.U. after   10 cycles
 E2(B2PLYPD3) =    -0.1445028853D+00 E(B2PLYPD3) =    -0.11560758021113D+03

 The electronic state is 1-A.
 Alpha  occ. eigenvalues --  -19.70601 -10.68013  -1.23430  -0.79994  -0.61278
 Alpha  occ. eigenvalues --   -0.51415  -0.50317  -0.41837  -0.36032
 Alpha virt. eigenvalues --    0.05342   0.08996   0.11776   0.12118   0.14568
 Alpha virt. eigenvalues --    0.17260   0.17827   0.28561   0.32353   0.33028
 Alpha virt. eigenvalues --    0.36530   0.38559   0.39021   0.40196   0.43276

 Mulliken charges:
               1
     1  C    0.054653
     2  O   -0.279618
     3  H    0.042115
     4  H    0.050705
     5  H    0.076712
     6  H    0.055433
 Sum of Mulliken charges =   0.00000

 Dipole moment (field-independent basis, Debye):
    X=              1.0306    Y=             -1.2472    Z=              0.1953  Tot=              1.6296
 Quadrupole moment (field-independent basis, Debye-Ang):
   XX=            -13.3933   YY=            -12.4265   ZZ=            -13.6182
   XY=              1.9525   XZ=             -0.2031   YZ=             -0.1694

 Normal termination of Gaussian 09 at Wed Aug 26 15:59:16 2020.
