 Gaussian 09, Revision D.01,
 Gaussian 09:  ES64L-G09RevD.01 24-Apr-2013

 --------------------
 #p B2PLYPD3/Def2QZVP
 --------------------

 --------
 methanol
 --------
 Symbolic Z-matrix:
 Charge =  0 Multiplicity = 1

                         Standard orientation:
 ---------------------------------------------------------------------
 Center     Atomic      Atomic             Coordinates (Angstroms)
 Number     Number       Type             X           Y           Z
 ---------------------------------------------------------------------
      1          6           0        0.624004   -0.044801    0.032556
      2          8           0       -0.729460    0.100644   -0.036189
      3          1           0        0.950114   -0.941553   -0.685747
      4          1           0        1.066778   -0.114843    0.944059
      5          1           0        1.181808    1.025787   -0.380253
      6          1           0       -1.107044   -0.505738    0.216122
 ---------------------------------------------------------------------

 SCF Done:  E(RB2PLYPD3) =  -115.462907222     A.U. after   11 cycles
 E2(B2PLYPD3) =    -0.1444427409D+00 E(B2PLYPD3) =    -0.11560734996338D+03

 The electronic state is 1-A.
 Alpha  occ. eigenvalues --  -19.71171 -10.67755  -1.24001  -0.80932  -0.63395
 Alpha  occ. eigenvalues --   -0.53227  -0.49940  -0.38871  -0.36127
 Alpha virt. eigenvalues --    0.05151   0.08869   0.11481   0.12262   0.14713
 Alpha virt. eigenvalues --    0.17287   0.18455   0.28385   0.32230   0.33891
 Alpha virt. eigenvalues --    0.35408   0.37085   0.40549   0.42517   0.43566

 Mulliken charges:
               1
     1  C    0.042893
     2  O   -0.269323
     3  H    0.037511
     4  H    0.066675
     5  H    0.043211
     6  H    0.079032
 Sum of Mulliken charges =   0.00000

 Dipole moment (field-independent basis, Debye):
    X=              0.5683    Y=             -1.2523    Z=              0.7128  Tot=              1.5490
 Quadrupole moment (field-independent basis, Debye-Ang):
   XX=            -12.9541   YY=            -12.9406   ZZ=            -13.5967
   XY=              1.8747   XZ=             -0.3870   YZ=             -0.1897

 Normal termination of Gaussian 09 at Wed Aug 26 18:52:42 2020.
