 Gaussian 09, Revision D.01,
 Gaussian 09:  ES64L-G09RevD.01 24-Apr-2013

 --------------------
 #p B2PLYPD3/Def2QZVP
 --------------------

 --------
 methanol
 --------
 Symbolic Z-matrix:
 Charge =  0 Multiplicity = 1

                         Standard orientation:
 ---------------------------------------------------------------------
 Center     Atomic      Atomic             Coordinates (Angstroms)
 Number     Number       Type             X           Y           Z
 ---------------------------------------------------------------------
      1          6           0        0.669812    0.025336    0.018163
      2          8           0       -0.738002   -0.157554   -0.018155
      3          1           0        0.998949    0.331939    0.878517
      4          1           0        1.058675    0.652124   -0.784932
      5          1           0        1.006739   -0.872548   -0.134669
      6          1           0       -1.179222    0.996907    0.077349
 ---------------------------------------------------------------------

 SCF Done:  E(RB2PLYPD3) =  -115.483784849     A.U. after   11 cycles
 E2(B2PLYPD3) =    -0.1522447001D+00 E(B2PLYPD3) =    -0.11563602954884D+03

 The electronic state is 1-A.
 Alpha  occ. eigenvalues --  -19.74402 -10.62502  -1.12616  -0.79525  -0.56298
 Alpha  occ. eigenvalues --   -0.52700  -0.49094  -0.40489  -0.35242
 Alpha virt. eigenvalues --    0.01823   0.07722   0.12603   0.12831   0.14914
 Alpha virt. eigenvalues --    0.17087   0.18561   0.25434   0.29404   0.33632
 Alpha virt. eigenvalues --    0.34379   0.38226   0.40371   0.42476   0.44816

 Mulliken charges:
               1
     1  C    0.084922
     2  O   -0.490322
     3  H    0.050235
     4  H    0.039587
     5  H    0.067626
     6  H    0.247952
 Sum of Mulliken charges =   0.00000

 Dipole moment (field-independent basis, Debye):
    X=              1.0000    Y=              1.6188    Z=              0.2142  Tot=              1.9148
 Quadrupole moment (field-independent basis, Debye-Ang):
   XX=            -13.0960   YY=            -11.7160   ZZ=            -13.7810
   XY=             -2.4128   XZ=             -0.1344   YZ=              0.1715

 Normal termination of Gaussian 09 at Wed Aug 26 11:07:14 2020.
