 Gaussian 09, Revision D.01,
 Gaussian 09:  ES64L-G09RevD.01 24-Apr-2013

 --------------------
 #p B2PLYPD3/Def2QZVP
 --------------------

 --------
 methanol
 --------
 Symbolic Z-matrix:
 Charge =  0 Multiplicity = 1

                         Standard orientation:
 ---------------------------------------------------------------------
 Center     Atomic      Atomic             Coordinates (Angstroms)
 Number     Number       Type             X           Y           Z
 ---------------------------------------------------------------------
      1          6           0       -0.690022   -0.028379   -0.001829
      2          8           0        0.766654    0.129259   -0.004635
      3          1           0       -1.007101   -0.468937    0.914388
      4          1           0       -1.096043   -0.507773   -0.857738
      5          1           0       -1.014535    0.965845   -0.005273
      6          1           0        1.124582   -0.852935   -0.003317
 ---------------------------------------------------------------------

 SCF Done:  E(RB2PLYPD3) =  -115.540409450     A.U. after   10 cycles
 E2(B2PLYPD3) =    -0.1494651992D+00 E(B2PLYPD3) =    -0.11568987464905D+03

 The electronic state is 1-A.
 Alpha  occ. eigenvalues --  -19.73226 -10.64695  -1.13325  -0.79034  -0.56824
 Alpha  occ. eigenvalues --   -0.52346  -0.48357  -0.41579  -0.35681
 Alpha virt. eigenvalues --    0.04450   0.07905   0.12321   0.12505   0.14639
 Alpha virt. eigenvalues --    0.16993   0.18529   0.28586   0.31604   0.32992
 Alpha virt. eigenvalues --    0.33965   0.38456   0.40108   0.41726   0.44048

 Mulliken charges:
               1
     1  C    0.070577
     2  O   -0.490084
     3  H    0.055747
     4  H    0.056381
     5  H    0.069036
     6  H    0.238343
 Sum of Mulliken charges =   0.00000

 Dipole moment (field-independent basis, Debye):
    X=             -1.1151    Y=             -1.5622    Z=              0.0055  Tot=              1.9194
 Quadrupole moment (field-independent basis, Debye-Ang):
   XX=            -13.1982   YY=            -12.0267   ZZ=            -13.6804
   XY=             -2.2082   XZ=              0.0862   YZ=              0.0198

 Normal termination of Gaussian 09 at Wed Aug 26 23:03:59 2020.
