 Gaussian 09, Revision D.01,
 Gaussian 09:  ES64L-G09RevD.01 24-Apr-2013

 --------------------
 #p B2PLYPD3/Def2QZVP
 --------------------

 --------
 methanol
 --------
 Symbolic Z-matrix:
 Charge =  0 Multiplicity = 1

                         Standard orientation:
 ---------------------------------------------------------------------
 Center     Atomic      Atomic             Coordinates (Angstroms)
 Number     Number       Type             X           Y           Z
 ---------------------------------------------------------------------
      1          6           0        0.663430   -0.025153    0.003783
      2          8           0       -0.745134    0.127170    0.004652
      3          1           0        0.970933   -0.566491   -0.853639
      4          1           0        1.047078   -0.506108    0.856557
      5          1           0        1.053625    1.008543   -0.057786
      6          1           0       -1.091146   -0.802390   -0.005045
 ---------------------------------------------------------------------

 SCF Done:  E(RB2PLYPD3) =  -115.548575568     A.U. after   10 cycles
 E2(B2PLYPD3) =    -0.1477392572D+00 E(B2PLYPD3) =    -0.11569631482505D+03

 The electronic state is 1-A.
 Alpha  occ. eigenvalues --  -19.72795 -10.64860  -1.15827  -0.78655  -0.58700
 Alpha  occ. eigenvalues --   -0.52528  -0.49131  -0.41413  -0.35439
 Alpha virt. eigenvalues --    0.04702   0.08314   0.12225   0.12538   0.15020
 Alpha virt. eigenvalues --    0.17261   0.18002   0.29172   0.32945   0.33327
 Alpha virt. eigenvalues --    0.35011   0.38281   0.40072   0.41914   0.44556

 Mulliken charges:
               1
     1  C    0.074733
     2  O   -0.462960
     3  H    0.045390
     4  H    0.049466
     5  H    0.064554
     6  H    0.228816
 Sum of Mulliken charges =   0.00000

 Dipole moment (field-independent basis, Debye):
    X=              0.9509    Y=             -1.5941    Z=             -0.0188  Tot=              1.8563
 Quadrupole moment (field-independent basis, Debye-Ang):
   XX=            -13.3071   YY=            -11.9845   ZZ=            -13.7861
   XY=              2.1177   XZ=              0.0812   YZ=             -0.0151

 Normal termination of Gaussian 09 at Wed Aug 26 16:03:27 2020.
