 Gaussian 09, Revision D.01,
 Gaussian 09:  ES64L-G09RevD.01 24-Apr-2013

 --------------------
 #p B2PLYPD3/Def2QZVP
 --------------------

 --------
 methanol
 --------
 Symbolic Z-matrix:
 Charge =  0 Multiplicity = 1

                         Standard orientation:
 ---------------------------------------------------------------------
 Center     Atomic      Atomic             Coordinates (Angstroms)
 Number     Number       Type             X           Y           Z
 ---------------------------------------------------------------------
      1          6           0        0.664323    0.021164   -0.000593
      2          8           0       -0.748039   -0.142072   -0.006820
      3          1           0        1.021153    0.488891    0.858938
      4          1           0        0.988578    0.599345   -0.833128
      5          1           0        1.122948   -0.937200   -0.024496
      6          1           0       -1.134306    0.858557    0.056805
 ---------------------------------------------------------------------

 SCF Done:  E(RB2PLYPD3) =  -115.537970966     A.U. after   11 cycles
 E2(B2PLYPD3) =    -0.1491074193D+00 E(B2PLYPD3) =    -0.11568707838511D+03

 The electronic state is 1-A.
 Alpha  occ. eigenvalues --  -19.73464 -10.64282  -1.14229  -0.78743  -0.57294
 Alpha  occ. eigenvalues --   -0.52205  -0.49648  -0.41153  -0.35206
 Alpha virt. eigenvalues --    0.04021   0.07936   0.12540   0.12625   0.14867
 Alpha virt. eigenvalues --    0.17625   0.18096   0.29112   0.30761   0.33328
 Alpha virt. eigenvalues --    0.33991   0.39411   0.39947   0.41808   0.44047

 Mulliken charges:
               1
     1  C    0.083188
     2  O   -0.484043
     3  H    0.043841
     4  H    0.043713
     5  H    0.066081
     6  H    0.247219
 Sum of Mulliken charges =   0.00000

 Dipole moment (field-independent basis, Debye):
    X=              0.9579    Y=              1.6264    Z=              0.1291  Tot=              1.8920
 Quadrupole moment (field-independent basis, Debye-Ang):
   XX=            -13.0780   YY=            -11.9595   ZZ=            -13.8711
   XY=             -2.3517   XZ=             -0.0717   YZ=              0.0654

 Normal termination of Gaussian 09 at Thu Aug 27 00:08:00 2020.
