 Gaussian 09, Revision D.01,
 Gaussian 09:  ES64L-G09RevD.01 24-Apr-2013

 --------------------
 #p B2PLYPD3/Def2QZVP
 --------------------

 --------
 methanol
 --------
 Symbolic Z-matrix:
 Charge =  0 Multiplicity = 1

                         Standard orientation:
 ---------------------------------------------------------------------
 Center     Atomic      Atomic             Coordinates (Angstroms)
 Number     Number       Type             X           Y           Z
 ---------------------------------------------------------------------
      1          6           0       -0.680368    0.026715    0.016768
      2          8           0        0.748079   -0.152773   -0.024927
      3          1           0       -1.106755    0.615087   -0.803243
      4          1           0       -0.953424    0.460636    0.819909
      5          1           0       -1.073965   -0.936950   -0.003981
      6          1           0        1.231721    0.923122    0.086122
 ---------------------------------------------------------------------

 SCF Done:  E(RB2PLYPD3) =  -115.501617653     A.U. after   11 cycles
 E2(B2PLYPD3) =    -0.1513650224D+00 E(B2PLYPD3) =    -0.11565298267527D+03

 The electronic state is 1-A.
 Alpha  occ. eigenvalues --  -19.74055 -10.63422  -1.12191  -0.79398  -0.56475
 Alpha  occ. eigenvalues --   -0.51830  -0.48894  -0.40832  -0.35149
 Alpha virt. eigenvalues --    0.02724   0.07590   0.12461   0.12832   0.15010
 Alpha virt. eigenvalues --    0.17197   0.18223   0.26974   0.29538   0.33171
 Alpha virt. eigenvalues --    0.33685   0.39168   0.39377   0.41196   0.44815

 Mulliken charges:
               1
     1  C    0.085309
     2  O   -0.501471
     3  H    0.043540
     4  H    0.053316
     5  H    0.068305
     6  H    0.251002
 Sum of Mulliken charges =   0.00000

 Dipole moment (field-independent basis, Debye):
    X=             -0.9450    Y=              1.6626    Z=              0.2990  Tot=              1.9356
 Quadrupole moment (field-independent basis, Debye-Ang):
   XX=            -12.7735   YY=            -11.8246   ZZ=            -13.9472
   XY=              2.4303   XZ=              0.1867   YZ=              0.1859

 Normal termination of Gaussian 09 at Wed Aug 26 13:19:26 2020.
