 Gaussian 09, Revision D.01,
 Gaussian 09:  ES64L-G09RevD.01 24-Apr-2013

 --------------------
 #p B2PLYPD3/Def2QZVP
 --------------------

 --------
 methanol
 --------
 Symbolic Z-matrix:
 Charge =  0 Multiplicity = 1

                         Standard orientation:
 ---------------------------------------------------------------------
 Center     Atomic      Atomic             Coordinates (Angstroms)
 Number     Number       Type             X           Y           Z
 ---------------------------------------------------------------------
      1          6           0        0.676286   -0.025980    0.006964
      2          8           0       -0.749641    0.135646   -0.013265
      3          1           0        1.045562   -0.581858   -0.855480
      4          1           0        1.007565   -0.485737    0.866212
      5          1           0        1.078395    0.960827   -0.009782
      6          1           0       -1.192109   -0.822520    0.063388
 ---------------------------------------------------------------------

 SCF Done:  E(RB2PLYPD3) =  -115.540741751     A.U. after   11 cycles
 E2(B2PLYPD3) =    -0.1489654997D+00 E(B2PLYPD3) =    -0.11568970725085D+03

 The electronic state is 1-A.
 Alpha  occ. eigenvalues --  -19.73183 -10.64613  -1.13793  -0.78808  -0.57306
 Alpha  occ. eigenvalues --   -0.51951  -0.49338  -0.40943  -0.35292
 Alpha virt. eigenvalues --    0.04292   0.07887   0.12501   0.12565   0.14898
 Alpha virt. eigenvalues --    0.17206   0.18206   0.29091   0.31670   0.33350
 Alpha virt. eigenvalues --    0.33553   0.39114   0.39690   0.41465   0.44386

 Mulliken charges:
               1
     1  C    0.078174
     2  O   -0.490639
     3  H    0.047859
     4  H    0.050856
     5  H    0.069242
     6  H    0.244508
 Sum of Mulliken charges =   0.00000

 Dipole moment (field-independent basis, Debye):
    X=              0.9107    Y=             -1.5834    Z=              0.1861  Tot=              1.8361
 Quadrupole moment (field-independent basis, Debye-Ang):
   XX=            -12.8557   YY=            -12.0933   ZZ=            -13.8213
   XY=              2.3598   XZ=             -0.1272   YZ=             -0.1069

 Normal termination of Gaussian 09 at Wed Aug 26 23:56:05 2020.
