 Gaussian 09, Revision D.01,
 Gaussian 09:  ES64L-G09RevD.01 24-Apr-2013

 --------------------
 #p B2PLYPD3/Def2QZVP
 --------------------

 --------
 methanol
 --------
 Symbolic Z-matrix:
 Charge =  0 Multiplicity = 1

                         Standard orientation:
 ---------------------------------------------------------------------
 Center     Atomic      Atomic             Coordinates (Angstroms)
 Number     Number       Type             X           Y           Z
 ---------------------------------------------------------------------
      1          6           0        0.668344   -0.014720    0.010864
      2          8           0       -0.753495    0.097734   -0.008318
      3          1           0        1.027086   -0.642520   -0.886812
      4          1           0        0.993619   -0.454809    0.963070
      5          1           0        1.060579    1.030788   -0.103319
      6          1           0       -1.063390   -0.627016    0.028419
 ---------------------------------------------------------------------

 SCF Done:  E(RB2PLYPD3) =  -115.510266584     A.U. after   10 cycles
 E2(B2PLYPD3) =    -0.1448723979D+00 E(B2PLYPD3) =    -0.11565513898212D+03

 The electronic state is 1-A.
 Alpha  occ. eigenvalues --  -19.70745 -10.67069  -1.20764  -0.79823  -0.60531
 Alpha  occ. eigenvalues --   -0.51914  -0.49953  -0.41525  -0.35851
 Alpha virt. eigenvalues --    0.05387   0.08968   0.11960   0.12162   0.14591
 Alpha virt. eigenvalues --    0.17110   0.17798   0.28881   0.32644   0.33065
 Alpha virt. eigenvalues --    0.37306   0.38840   0.39854   0.40599   0.43179

 Mulliken charges:
               1
     1  C    0.062893
     2  O   -0.345663
     3  H    0.044390
     4  H    0.055851
     5  H    0.075324
     6  H    0.107205
 Sum of Mulliken charges =   0.00000

 Dipole moment (field-independent basis, Debye):
    X=              0.9872    Y=             -1.3350    Z=              0.1128  Tot=              1.6642
 Quadrupole moment (field-independent basis, Debye-Ang):
   XX=            -13.3298   YY=            -12.3416   ZZ=            -13.5658
   XY=              2.0215   XZ=             -0.0861   YZ=             -0.1045

 Normal termination of Gaussian 09 at Thu Aug 27 00:09:13 2020.
