 Gaussian 09, Revision D.01,
 Gaussian 09:  ES64L-G09RevD.01 24-Apr-2013

 --------------------
 #p B2PLYPD3/Def2QZVP
 --------------------

 --------
 methanol
 --------
 Symbolic Z-matrix:
 Charge =  0 Multiplicity = 1

                         Standard orientation:
 ---------------------------------------------------------------------
 Center     Atomic      Atomic             Coordinates (Angstroms)
 Number     Number       Type             X           Y           Z
 ---------------------------------------------------------------------
      1          6           0       -0.681193   -0.045269   -0.003031
      2          8           0        0.753345    0.079824   -0.028371
      3          1           0       -0.866163   -0.253273    1.075439
      4          1           0       -0.900845   -0.884430   -0.710026
      5          1           0       -1.189832    1.117420   -0.259533
      6          1           0        1.017239   -0.346696    0.139278
 ---------------------------------------------------------------------

 SCF Done:  E(RB2PLYPD3) =  -114.927773973     A.U. after   11 cycles
 E2(B2PLYPD3) =    -0.1430663412D+00 E(B2PLYPD3) =    -0.11507084031417D+03

 The electronic state is 1-A.
 Alpha  occ. eigenvalues --  -19.67705 -10.69403  -1.32075  -0.83404  -0.62248
 Alpha  occ. eigenvalues --   -0.53537  -0.49004  -0.40480  -0.36808
 Alpha virt. eigenvalues --    0.04854   0.09855   0.10939   0.11647   0.13996
 Alpha virt. eigenvalues --    0.16391   0.17440   0.27874   0.30934   0.31905
 Alpha virt. eigenvalues --    0.32897   0.39132   0.39430   0.40937   0.44426

 Mulliken charges:
               1
     1  C    0.069569
     2  O   -0.096985
     3  H    0.057993
     4  H    0.067161
     5  H    0.070118
     6  H   -0.167857
 Sum of Mulliken charges =   0.00000

 Dipole moment (field-independent basis, Debye):
    X=             -1.1681    Y=             -1.1233    Z=              0.4543  Tot=              1.6830
 Quadrupole moment (field-independent basis, Debye-Ang):
   XX=            -13.4354   YY=            -12.3589   ZZ=            -13.1816
   XY=             -1.7314   XZ=              0.6211   YZ=             -0.0613

 Normal termination of Gaussian 09 at Wed Aug 26 22:29:37 2020.
