 Gaussian 09, Revision D.01,
 Gaussian 09:  ES64L-G09RevD.01 24-Apr-2013

 --------------------
 #p B2PLYPD3/Def2QZVP
 --------------------

 --------
 methanol
 --------
 Symbolic Z-matrix:
 Charge =  0 Multiplicity = 1

                         Standard orientation:
 ---------------------------------------------------------------------
 Center     Atomic      Atomic             Coordinates (Angstroms)
 Number     Number       Type             X           Y           Z
 ---------------------------------------------------------------------
      1          6           0        0.657239   -0.022413    0.004555
      2          8           0       -0.757732    0.098753    0.000086
      3          1           0        1.014581   -0.632006   -0.888601
      4          1           0        1.075035   -0.443314    0.960810
      5          1           0        1.092199    1.044351   -0.118471
      6          1           0       -1.063396   -0.624577    0.018238
 ---------------------------------------------------------------------

 SCF Done:  E(RB2PLYPD3) =  -115.506038169     A.U. after   10 cycles
 E2(B2PLYPD3) =    -0.1450684196D+00 E(B2PLYPD3) =    -0.11565110658818D+03

 The electronic state is 1-A.
 Alpha  occ. eigenvalues --  -19.71149 -10.67558  -1.21342  -0.79535  -0.60920
 Alpha  occ. eigenvalues --   -0.51734  -0.49784  -0.41187  -0.36091
 Alpha virt. eigenvalues --    0.05357   0.08828   0.11965   0.12082   0.14628
 Alpha virt. eigenvalues --    0.17249   0.18064   0.28743   0.32867   0.33233
 Alpha virt. eigenvalues --    0.36673   0.38569   0.39741   0.39947   0.42994

 Mulliken charges:
               1
     1  C    0.055348
     2  O   -0.331895
     3  H    0.048339
     4  H    0.054816
     5  H    0.067670
     6  H    0.105722
 Sum of Mulliken charges =   0.00000

 Dipole moment (field-independent basis, Debye):
    X=              0.9475    Y=             -1.3555    Z=              0.0384  Tot=              1.6543
 Quadrupole moment (field-independent basis, Debye-Ang):
   XX=            -13.2364   YY=            -12.4762   ZZ=            -13.6383
   XY=              1.9863   XZ=             -0.0027   YZ=             -0.0433

 Normal termination of Gaussian 09 at Wed Aug 26 14:40:18 2020.
