 Gaussian 09, Revision D.01,
 Gaussian 09:  ES64L-G09RevD.01 24-Apr-2013

 --------------------
 #p B2PLYPD3/Def2QZVP
 --------------------

 --------
 methanol
 --------
 Symbolic Z-matrix:
 Charge =  0 Multiplicity = 1

                         Standard orientation:
 ---------------------------------------------------------------------
 Center     Atomic      Atomic             Coordinates (Angstroms)
 Number     Number       Type             X           Y           Z
 ---------------------------------------------------------------------
      1          6           0       -0.650210   -0.004721    0.010086
      2          8           0        0.745840   -0.068481   -0.044892
      3          1           0       -1.065865    1.023921   -0.531078
      4          1           0       -1.034428   -0.065495    1.107783
      5          1           0       -1.066799   -0.846191   -0.550361
      6          1           0        1.101627    0.463938    0.272274
 ---------------------------------------------------------------------

 SCF Done:  E(RB2PLYPD3) =  -115.436731521     A.U. after   11 cycles
 E2(B2PLYPD3) =    -0.1440219922D+00 E(B2PLYPD3) =    -0.11558075351343D+03

 The electronic state is 1-A.
 Alpha  occ. eigenvalues --  -19.70265 -10.68417  -1.24152  -0.81524  -0.61526
 Alpha  occ. eigenvalues --   -0.51700  -0.50908  -0.40675  -0.35622
 Alpha virt. eigenvalues --    0.05358   0.09067   0.11589   0.12362   0.14431
 Alpha virt. eigenvalues --    0.17056   0.17944   0.28502   0.32380   0.33574
 Alpha virt. eigenvalues --    0.35646   0.38424   0.39719   0.40808   0.42772

 Mulliken charges:
               1
     1  C    0.049116
     2  O   -0.251416
     3  H    0.031382
     4  H    0.047913
     5  H    0.087671
     6  H    0.035334
 Sum of Mulliken charges =   0.00000

 Dipole moment (field-independent basis, Debye):
    X=             -0.7808    Y=              0.9142    Z=              0.6325  Tot=              1.3585
 Quadrupole moment (field-independent basis, Debye-Ang):
   XX=            -13.0569   YY=            -12.9504   ZZ=            -13.3373
   XY=              1.8264   XZ=              1.0192   YZ=              0.4480

 Normal termination of Gaussian 09 at Wed Aug 26 11:07:33 2020.
