 Gaussian 09, Revision D.01,
 Gaussian 09:  ES64L-G09RevD.01 24-Apr-2013

 --------------------
 #p B2PLYPD3/Def2QZVP
 --------------------

 --------
 methanol
 --------
 Symbolic Z-matrix:
 Charge =  0 Multiplicity = 1

                         Standard orientation:
 ---------------------------------------------------------------------
 Center     Atomic      Atomic             Coordinates (Angstroms)
 Number     Number       Type             X           Y           Z
 ---------------------------------------------------------------------
      1          6           0        0.643512   -0.010584   -0.005318
      2          8           0       -0.747897    0.086042    0.002135
      3          1           0        1.070801   -0.591497   -0.895736
      4          1           0        1.050410   -0.548246    0.947794
      5          1           0        1.061406    1.089109   -0.020073
      6          1           0       -1.060511   -0.574197   -0.017160
 ---------------------------------------------------------------------

 SCF Done:  E(RB2PLYPD3) =  -115.457933739     A.U. after   10 cycles
 E2(B2PLYPD3) =    -0.1442553925D+00 E(B2PLYPD3) =    -0.11560218913165D+03

 The electronic state is 1-A.
 Alpha  occ. eigenvalues --  -19.70689 -10.68206  -1.24084  -0.80476  -0.62107
 Alpha  occ. eigenvalues --   -0.51285  -0.50386  -0.41220  -0.35772
 Alpha virt. eigenvalues --    0.05321   0.09052   0.11788   0.12045   0.14947
 Alpha virt. eigenvalues --    0.17040   0.17791   0.28697   0.32834   0.33881
 Alpha virt. eigenvalues --    0.36599   0.38208   0.38997   0.40531   0.42190

 Mulliken charges:
               1
     1  C    0.049296
     2  O   -0.261586
     3  H    0.045967
     4  H    0.042164
     5  H    0.072209
     6  H    0.051951
 Sum of Mulliken charges =   0.00000

 Dipole moment (field-independent basis, Debye):
    X=              0.8175    Y=             -1.2792    Z=             -0.0663  Tot=              1.5196
 Quadrupole moment (field-independent basis, Debye-Ang):
   XX=            -13.2302   YY=            -12.4285   ZZ=            -13.7849
   XY=              1.8758   XZ=             -0.0069   YZ=              0.0542

 Normal termination of Gaussian 09 at Wed Aug 26 14:40:58 2020.
