 Gaussian 09, Revision D.01,
 Gaussian 09:  ES64L-G09RevD.01 24-Apr-2013

 --------------------
 #p B2PLYPD3/Def2QZVP
 --------------------

 --------
 methanol
 --------
 Symbolic Z-matrix:
 Charge =  0 Multiplicity = 1

                         Standard orientation:
 ---------------------------------------------------------------------
 Center     Atomic      Atomic             Coordinates (Angstroms)
 Number     Number       Type             X           Y           Z
 ---------------------------------------------------------------------
      1          6           0       -0.681288   -0.023174    0.005896
      2          8           0        0.769252    0.107572   -0.015700
      3          1           0       -1.146608   -0.257899    0.949413
      4          1           0       -1.002960   -0.886804   -0.706432
      5          1           0       -1.176320    1.015998   -0.284581
      6          1           0        1.259603   -0.592829    0.131823
 ---------------------------------------------------------------------

 SCF Done:  E(RB2PLYPD3) =  -115.528206262     A.U. after   11 cycles
 E2(B2PLYPD3) =    -0.1468350792D+00 E(B2PLYPD3) =    -0.11567504134071D+03

 The electronic state is 1-A.
 Alpha  occ. eigenvalues --  -19.71682 -10.68100  -1.16849  -0.79195  -0.59945
 Alpha  occ. eigenvalues --   -0.50647  -0.48570  -0.40100  -0.35595
 Alpha virt. eigenvalues --    0.05254   0.07923   0.11790   0.12392   0.14666
 Alpha virt. eigenvalues --    0.17103   0.18163   0.28967   0.31296   0.33186
 Alpha virt. eigenvalues --    0.35425   0.37406   0.38956   0.40837   0.41754

 Mulliken charges:
               1
     1  C    0.069778
     2  O   -0.430988
     3  H    0.062380
     4  H    0.043756
     5  H    0.073261
     6  H    0.181813
 Sum of Mulliken charges =   0.00000

 Dipole moment (field-independent basis, Debye):
    X=             -0.8279    Y=             -1.3545    Z=              0.3722  Tot=              1.6305
 Quadrupole moment (field-independent basis, Debye-Ang):
   XX=            -12.2658   YY=            -12.6373   ZZ=            -14.0081
   XY=             -2.2357   XZ=              0.2260   YZ=             -0.1730

 Normal termination of Gaussian 09 at Wed Aug 26 22:11:08 2020.
