 Gaussian 09, Revision D.01,
 Gaussian 09:  ES64L-G09RevD.01 24-Apr-2013

 --------------------
 #p B2PLYPD3/Def2QZVP
 --------------------

 --------
 methanol
 --------
 Symbolic Z-matrix:
 Charge =  0 Multiplicity = 1

                         Standard orientation:
 ---------------------------------------------------------------------
 Center     Atomic      Atomic             Coordinates (Angstroms)
 Number     Number       Type             X           Y           Z
 ---------------------------------------------------------------------
      1          6           0        0.665260    0.024765    0.013730
      2          8           0       -0.744981   -0.141103   -0.013568
      3          1           0        1.015035    0.425570    0.863741
      4          1           0        1.048674    0.626428   -0.818003
      5          1           0        1.068684   -0.946008   -0.079435
      6          1           0       -1.164102    0.874243    0.059864
 ---------------------------------------------------------------------

 SCF Done:  E(RB2PLYPD3) =  -115.529944217     A.U. after   11 cycles
 E2(B2PLYPD3) =    -0.1496123390D+00 E(B2PLYPD3) =    -0.11567955655611D+03

 The electronic state is 1-A.
 Alpha  occ. eigenvalues --  -19.73672 -10.64045  -1.13890  -0.78845  -0.57268
 Alpha  occ. eigenvalues --   -0.52101  -0.49404  -0.40985  -0.35261
 Alpha virt. eigenvalues --    0.03774   0.07856   0.12515   0.12675   0.15024
 Alpha virt. eigenvalues --    0.17304   0.18297   0.28797   0.30259   0.33549
 Alpha virt. eigenvalues --    0.34155   0.38807   0.39647   0.41859   0.44644

 Mulliken charges:
               1
     1  C    0.080315
     2  O   -0.485279
     3  H    0.050187
     4  H    0.040314
     5  H    0.065455
     6  H    0.249009
 Sum of Mulliken charges =   0.00000

 Dipole moment (field-independent basis, Debye):
    X=              0.9116    Y=              1.6154    Z=              0.1935  Tot=              1.8649
 Quadrupole moment (field-independent basis, Debye-Ang):
   XX=            -12.9919   YY=            -11.9626   ZZ=            -13.8650
   XY=             -2.3383   XZ=             -0.0899   YZ=              0.1444

 Normal termination of Gaussian 09 at Thu Aug 27 00:07:25 2020.
