 Gaussian 09, Revision D.01,
 Gaussian 09:  ES64L-G09RevD.01 24-Apr-2013

 --------------------
 #p B2PLYPD3/Def2QZVP
 --------------------

 --------
 methanol
 --------
 Symbolic Z-matrix:
 Charge =  0 Multiplicity = 1

                         Standard orientation:
 ---------------------------------------------------------------------
 Center     Atomic      Atomic             Coordinates (Angstroms)
 Number     Number       Type             X           Y           Z
 ---------------------------------------------------------------------
      1          6           0        0.663251   -0.017605   -0.024838
      2          8           0       -0.753136    0.049384    0.005277
      3          1           0        1.111639   -0.632925   -0.889927
      4          1           0        1.033085   -0.523330    1.060720
      5          1           0        1.029467    1.200198   -0.022294
      6          1           0       -1.128608   -0.333387   -0.041689
 ---------------------------------------------------------------------

 SCF Done:  E(RB2PLYPD3) =  -114.960207329     A.U. after   12 cycles
 E2(B2PLYPD3) =    -0.1437962952D+00 E(B2PLYPD3) =    -0.11510400362375D+03

 The electronic state is 1-A.
 Alpha  occ. eigenvalues --  -19.68387 -10.71336  -1.31190  -0.85003  -0.62631
 Alpha  occ. eigenvalues --   -0.50784  -0.49680  -0.39656  -0.35962
 Alpha virt. eigenvalues --    0.04752   0.09601   0.10916   0.11404   0.14291
 Alpha virt. eigenvalues --    0.16366   0.17769   0.28612   0.31389   0.32603
 Alpha virt. eigenvalues --    0.33979   0.35562   0.37561   0.40858   0.42191

 Mulliken charges:
               1
     1  C    0.045926
     2  O   -0.083720
     3  H    0.066969
     4  H    0.046710
     5  H    0.080221
     6  H   -0.156107
 Sum of Mulliken charges =   0.00000

 Dipole moment (field-independent basis, Debye):
    X=              0.8400    Y=             -0.9911    Z=             -0.2376  Tot=              1.3208
 Quadrupole moment (field-independent basis, Debye-Ang):
   XX=            -12.8367   YY=            -12.6921   ZZ=            -13.5098
   XY=              1.4879   XZ=             -0.0349   YZ=              0.2194

 Normal termination of Gaussian 09 at Wed Aug 26 21:22:23 2020.
