 Gaussian 09, Revision D.01,
 Gaussian 09:  ES64L-G09RevD.01 24-Apr-2013

 --------------------
 #p B2PLYPD3/Def2QZVP
 --------------------

 --------
 methanol
 --------
 Symbolic Z-matrix:
 Charge =  0 Multiplicity = 1

                         Standard orientation:
 ---------------------------------------------------------------------
 Center     Atomic      Atomic             Coordinates (Angstroms)
 Number     Number       Type             X           Y           Z
 ---------------------------------------------------------------------
      1          6           0        0.670426    0.023742    0.028693
      2          8           0       -0.737747   -0.165337   -0.040186
      3          1           0        0.987421    0.193220    0.892101
      4          1           0        1.081247    0.746323   -0.761660
      5          1           0        1.019278   -0.798174   -0.173760
      6          1           0       -1.208527    1.038872    0.192651
 ---------------------------------------------------------------------

 SCF Done:  E(RB2PLYPD3) =  -115.438548706     A.U. after   11 cycles
 E2(B2PLYPD3) =    -0.1539451341D+00 E(B2PLYPD3) =    -0.11559249383968D+03

 The electronic state is 1-A.
 Alpha  occ. eigenvalues --  -19.74880 -10.62054  -1.12143  -0.80544  -0.55783
 Alpha  occ. eigenvalues --   -0.52315  -0.49389  -0.39887  -0.35285
 Alpha virt. eigenvalues --    0.00467   0.07543   0.12352   0.13056   0.14743
 Alpha virt. eigenvalues --    0.17117   0.18930   0.23716   0.29201   0.33477
 Alpha virt. eigenvalues --    0.34256   0.37112   0.41023   0.41887   0.45171

 Mulliken charges:
               1
     1  C    0.069935
     2  O   -0.487841
     3  H    0.053970
     4  H    0.039880
     5  H    0.077280
     6  H    0.246776
 Sum of Mulliken charges =   0.00000

 Dipole moment (field-independent basis, Debye):
    X=              1.0097    Y=              1.5272    Z=              0.4517  Tot=              1.8857
 Quadrupole moment (field-independent basis, Debye-Ang):
   XX=            -13.0227   YY=            -11.7577   ZZ=            -13.7005
   XY=             -2.5808   XZ=             -0.3437   YZ=              0.3001

 Normal termination of Gaussian 09 at Wed Aug 26 23:53:27 2020.
