 Gaussian 09, Revision D.01,
 Gaussian 09:  ES64L-G09RevD.01 24-Apr-2013

 --------------------
 #p B2PLYPD3/Def2QZVP
 --------------------

 --------
 methanol
 --------
 Symbolic Z-matrix:
 Charge =  0 Multiplicity = 1

                         Standard orientation:
 ---------------------------------------------------------------------
 Center     Atomic      Atomic             Coordinates (Angstroms)
 Number     Number       Type             X           Y           Z
 ---------------------------------------------------------------------
      1          6           0        0.653451   -0.021409    0.048347
      2          8           0       -0.752677   -0.034004   -0.078187
      3          1           0        0.968607   -0.434579    0.928002
      4          1           0        1.223019    1.177883   -0.250369
      5          1           0        1.038146   -0.704831   -0.756459
      6          1           0       -1.129058    0.362015    0.414240
 ---------------------------------------------------------------------

 SCF Done:  E(RB2PLYPD3) =  -115.438217935     A.U. after   11 cycles
 E2(B2PLYPD3) =    -0.1449503417D+00 E(B2PLYPD3) =    -0.11558316827624D+03

 The electronic state is 1-A.
 Alpha  occ. eigenvalues --  -19.70807 -10.68360  -1.23156  -0.81655  -0.62211
 Alpha  occ. eigenvalues --   -0.51372  -0.50129  -0.40515  -0.35700
 Alpha virt. eigenvalues --    0.05184   0.08504   0.10997   0.12375   0.14533
 Alpha virt. eigenvalues --    0.16859   0.18689   0.28044   0.30504   0.33132
 Alpha virt. eigenvalues --    0.34838   0.38247   0.40255   0.41499   0.44059

 Mulliken charges:
               1
     1  C    0.046039
     2  O   -0.268931
     3  H    0.073001
     4  H    0.019835
     5  H    0.076399
     6  H    0.053657
 Sum of Mulliken charges =   0.00000

 Dipole moment (field-independent basis, Debye):
    X=              0.7145    Y=              0.4140    Z=              1.0979  Tot=              1.3738
 Quadrupole moment (field-independent basis, Debye-Ang):
   XX=            -12.9944   YY=            -13.3178   ZZ=            -13.0944
   XY=             -1.5142   XZ=             -1.4781   YZ=              0.3164

 Normal termination of Gaussian 09 at Wed Aug 26 22:44:08 2020.
