 Gaussian 09, Revision D.01,
 Gaussian 09:  ES64L-G09RevD.01 24-Apr-2013

 --------------------
 #p B2PLYPD3/Def2QZVP
 --------------------

 --------
 methanol
 --------
 Symbolic Z-matrix:
 Charge =  0 Multiplicity = 1

                         Standard orientation:
 ---------------------------------------------------------------------
 Center     Atomic      Atomic             Coordinates (Angstroms)
 Number     Number       Type             X           Y           Z
 ---------------------------------------------------------------------
      1          6           0        0.706429    0.062076    0.005195
      2          8           0       -0.745374   -0.212408   -0.010514
      3          1           0        0.970597    0.332334    0.739022
      4          1           0        0.983446    0.676036   -0.626308
      5          1           0        1.080349   -0.878523   -0.110599
      6          1           0       -1.309977    1.196962    0.050828
 ---------------------------------------------------------------------

 SCF Done:  E(RB2PLYPD3) =  -115.336137500     A.U. after   12 cycles
 E2(B2PLYPD3) =    -0.1589445176D+00 E(B2PLYPD3) =    -0.11549508201788D+03

 The electronic state is 1-A.
 Alpha  occ. eigenvalues --  -19.75702 -10.60127  -1.09665  -0.83235  -0.55847
 Alpha  occ. eigenvalues --   -0.55060  -0.46794  -0.38830  -0.35838
 Alpha virt. eigenvalues --   -0.03270   0.07363   0.12021   0.13355   0.14636
 Alpha virt. eigenvalues --    0.16994   0.18215   0.21121   0.29036   0.32353
 Alpha virt. eigenvalues --    0.33810   0.38009   0.39460   0.44945   0.45314

 Mulliken charges:
               1
     1  C    0.032062
     2  O   -0.484888
     3  H    0.131259
     4  H    0.054584
     5  H    0.062015
     6  H    0.204968
 Sum of Mulliken charges =   0.00000

 Dipole moment (field-independent basis, Debye):
    X=              1.3276    Y=              1.7893    Z=              0.1496  Tot=              2.2330
 Quadrupole moment (field-independent basis, Debye-Ang):
   XX=            -12.8176   YY=            -11.1192   ZZ=            -13.9893
   XY=             -2.3583   XZ=              0.0121   YZ=              0.0290

 Normal termination of Gaussian 09 at Wed Aug 26 23:39:05 2020.
