 Gaussian 09, Revision D.01,
 Gaussian 09:  ES64L-G09RevD.01 24-Apr-2013

 --------------------
 #p B2PLYPD3/Def2QZVP
 --------------------

 --------
 methanol
 --------
 Symbolic Z-matrix:
 Charge =  0 Multiplicity = 1

                         Standard orientation:
 ---------------------------------------------------------------------
 Center     Atomic      Atomic             Coordinates (Angstroms)
 Number     Number       Type             X           Y           Z
 ---------------------------------------------------------------------
      1          6           0        0.665783   -0.005220    0.002686
      2          8           0       -0.757469    0.100463   -0.004097
      3          1           0        1.080044   -0.585128   -0.909897
      4          1           0        1.046189   -0.508239    0.953954
      5          1           0        1.051424    0.993724   -0.037579
      6          1           0       -1.112599   -0.672736    0.010182
 ---------------------------------------------------------------------

 SCF Done:  E(RB2PLYPD3) =  -115.536224515     A.U. after   10 cycles
 E2(B2PLYPD3) =    -0.1459029821D+00 E(B2PLYPD3) =    -0.11568212749753D+03

 The electronic state is 1-A.
 Alpha  occ. eigenvalues --  -19.71707 -10.66983  -1.18709  -0.79377  -0.59814
 Alpha  occ. eigenvalues --   -0.50882  -0.50469  -0.41450  -0.35550
 Alpha virt. eigenvalues --    0.05317   0.08518   0.12009   0.12419   0.14731
 Alpha virt. eigenvalues --    0.17129   0.18075   0.28932   0.32890   0.33180
 Alpha virt. eigenvalues --    0.36636   0.38977   0.39362   0.40230   0.43194

 Mulliken charges:
               1
     1  C    0.061760
     2  O   -0.400189
     3  H    0.043407
     4  H    0.047179
     5  H    0.080205
     6  H    0.167639
 Sum of Mulliken charges =   0.00000

 Dipole moment (field-independent basis, Debye):
    X=              0.9061    Y=             -1.3326    Z=              0.0393  Tot=              1.6119
 Quadrupole moment (field-independent basis, Debye-Ang):
   XX=            -13.0859   YY=            -12.3720   ZZ=            -13.7578
   XY=              2.1611   XZ=             -0.0548   YZ=             -0.0375

 Normal termination of Gaussian 09 at Thu Aug 27 00:14:03 2020.
