 Gaussian 09, Revision D.01,
 Gaussian 09:  ES64L-G09RevD.01 24-Apr-2013

 --------------------
 #p B2PLYPD3/Def2QZVP
 --------------------

 --------
 methanol
 --------
 Symbolic Z-matrix:
 Charge =  0 Multiplicity = 1

                         Standard orientation:
 ---------------------------------------------------------------------
 Center     Atomic      Atomic             Coordinates (Angstroms)
 Number     Number       Type             X           Y           Z
 ---------------------------------------------------------------------
      1          6           0        0.669514   -0.019271    0.000973
      2          8           0       -0.754505    0.099467   -0.005906
      3          1           0        0.990868   -0.643812   -0.899588
      4          1           0        1.054272   -0.441187    0.979346
      5          1           0        1.083692    1.016719   -0.101773
      6          1           0       -1.109880   -0.611826    0.063423
 ---------------------------------------------------------------------

 SCF Done:  E(RB2PLYPD3) =  -115.514821041     A.U. after   10 cycles
 E2(B2PLYPD3) =    -0.1450978841D+00 E(B2PLYPD3) =    -0.11565991892532D+03

 The electronic state is 1-A.
 Alpha  occ. eigenvalues --  -19.70860 -10.67376  -1.20165  -0.79794  -0.60264
 Alpha  occ. eigenvalues --   -0.51652  -0.50049  -0.40963  -0.35836
 Alpha virt. eigenvalues --    0.05400   0.08812   0.11936   0.12261   0.14434
 Alpha virt. eigenvalues --    0.17116   0.17995   0.28853   0.32531   0.33228
 Alpha virt. eigenvalues --    0.37027   0.39089   0.39710   0.39864   0.42998

 Mulliken charges:
               1
     1  C    0.060468
     2  O   -0.357190
     3  H    0.050569
     4  H    0.052391
     5  H    0.075895
     6  H    0.117868
 Sum of Mulliken charges =   0.00000

 Dipole moment (field-independent basis, Debye):
    X=              0.9290    Y=             -1.3115    Z=              0.1345  Tot=              1.6128
 Quadrupole moment (field-independent basis, Debye-Ang):
   XX=            -13.0988   YY=            -12.5060   ZZ=            -13.5732
   XY=              2.1119   XZ=             -0.1302   YZ=             -0.0840

 Normal termination of Gaussian 09 at Thu Aug 27 00:14:53 2020.
