 Gaussian 09, Revision D.01,
 Gaussian 09:  ES64L-G09RevD.01 24-Apr-2013

 --------------------
 #p B2PLYPD3/Def2QZVP
 --------------------

 --------
 methanol
 --------
 Symbolic Z-matrix:
 Charge =  0 Multiplicity = 1

                         Standard orientation:
 ---------------------------------------------------------------------
 Center     Atomic      Atomic             Coordinates (Angstroms)
 Number     Number       Type             X           Y           Z
 ---------------------------------------------------------------------
      1          6           0        0.653385    0.030260    0.010525
      2          8           0       -0.731453   -0.058561   -0.032434
      3          1           0        0.996370    0.045497    1.155304
      4          1           0        0.880675    1.040182   -0.611141
      5          1           0        1.197046   -0.998151   -0.530573
      6          1           0       -1.142782    0.199395    0.182735
 ---------------------------------------------------------------------

 SCF Done:  E(RB2PLYPD3) =  -114.920391873     A.U. after   11 cycles
 E2(B2PLYPD3) =    -0.1435831123D+00 E(B2PLYPD3) =    -0.11506397498529D+03

 The electronic state is 1-A.
 Alpha  occ. eigenvalues --  -19.67987 -10.71419  -1.31501  -0.86572  -0.61854
 Alpha  occ. eigenvalues --   -0.52316  -0.50286  -0.37761  -0.36077
 Alpha virt. eigenvalues --    0.04656   0.09722   0.11279   0.11426   0.13589
 Alpha virt. eigenvalues --    0.16842   0.17254   0.28525   0.31601   0.32411
 Alpha virt. eigenvalues --    0.32664   0.36974   0.37709   0.41085   0.42940

 Mulliken charges:
               1
     1  C    0.057614
     2  O   -0.074071
     3  H    0.050562
     4  H    0.060037
     5  H    0.073816
     6  H   -0.167958
 Sum of Mulliken charges =   0.00000

 Dipole moment (field-independent basis, Debye):
    X=              0.6813    Y=              0.7063    Z=              0.6002  Tot=              1.1503
 Quadrupole moment (field-independent basis, Debye-Ang):
   XX=            -12.7666   YY=            -13.0889   ZZ=            -13.2029
   XY=             -1.4285   XZ=             -0.8911   YZ=              0.0957

 Normal termination of Gaussian 09 at Wed Aug 26 23:47:22 2020.
