 Gaussian 09, Revision D.01,
 Gaussian 09:  ES64L-G09RevD.01 24-Apr-2013

 --------------------
 #p B2PLYPD3/Def2QZVP
 --------------------

 --------
 methanol
 --------
 Symbolic Z-matrix:
 Charge =  0 Multiplicity = 1

                         Standard orientation:
 ---------------------------------------------------------------------
 Center     Atomic      Atomic             Coordinates (Angstroms)
 Number     Number       Type             X           Y           Z
 ---------------------------------------------------------------------
      1          6           0        0.678598   -0.003089    0.014041
      2          8           0       -0.766280   -0.058148   -0.044260
      3          1           0        1.079754   -0.095049    1.072592
      4          1           0        1.030962    1.062564   -0.523464
      5          1           0        1.036457   -0.876872   -0.588699
      6          1           0       -1.088524    0.393079    0.309404
 ---------------------------------------------------------------------

 SCF Done:  E(RB2PLYPD3) =  -115.348694122     A.U. after   11 cycles
 E2(B2PLYPD3) =    -0.1439539044D+00 E(B2PLYPD3) =    -0.11549264802644D+03

 The electronic state is 1-A.
 Alpha  occ. eigenvalues --  -19.69218 -10.69039  -1.25362  -0.81696  -0.61410
 Alpha  occ. eigenvalues --   -0.50626  -0.50456  -0.41336  -0.36097
 Alpha virt. eigenvalues --    0.05275   0.09167   0.11363   0.12068   0.14252
 Alpha virt. eigenvalues --    0.16777   0.17855   0.28538   0.31115   0.32809
 Alpha virt. eigenvalues --    0.35391   0.38031   0.39322   0.40823   0.42385

 Mulliken charges:
               1
     1  C    0.050822
     2  O   -0.225763
     3  H    0.060590
     4  H    0.043014
     5  H    0.090434
     6  H   -0.019098
 Sum of Mulliken charges =   0.00000

 Dipole moment (field-independent basis, Debye):
    X=              1.0380    Y=              0.8098    Z=              0.7864  Tot=              1.5335
 Quadrupole moment (field-independent basis, Debye-Ang):
   XX=            -13.1385   YY=            -12.8966   ZZ=            -13.1248
   XY=             -1.6483   XZ=             -1.0092   YZ=              0.4462

 Normal termination of Gaussian 09 at Wed Aug 26 10:55:13 2020.
