 Gaussian 09, Revision D.01,
 Gaussian 09:  ES64L-G09RevD.01 24-Apr-2013

 --------------------
 #p B2PLYPD3/Def2QZVP
 --------------------

 --------
 methanol
 --------
 Symbolic Z-matrix:
 Charge =  0 Multiplicity = 1

                         Standard orientation:
 ---------------------------------------------------------------------
 Center     Atomic      Atomic             Coordinates (Angstroms)
 Number     Number       Type             X           Y           Z
 ---------------------------------------------------------------------
      1          6           0       -0.674198    0.005064   -0.014713
      2          8           0        0.758692   -0.140515    0.006436
      3          1           0       -1.095712    0.465727   -0.859305
      4          1           0       -1.008950    0.611920    0.874119
      5          1           0       -1.078323   -0.886205    0.082100
      6          1           0        1.158636    0.902297   -0.060124
 ---------------------------------------------------------------------

 SCF Done:  E(RB2PLYPD3) =  -115.521379909     A.U. after   11 cycles
 E2(B2PLYPD3) =    -0.1503806043D+00 E(B2PLYPD3) =    -0.11567176051375D+03

 The electronic state is 1-A.
 Alpha  occ. eigenvalues --  -19.73943 -10.64345  -1.13066  -0.79109  -0.56538
 Alpha  occ. eigenvalues --   -0.50905  -0.50135  -0.41375  -0.35029
 Alpha virt. eigenvalues --    0.03511   0.07686   0.12425   0.12782   0.14760
 Alpha virt. eigenvalues --    0.17509   0.18321   0.28431   0.29938   0.32665
 Alpha virt. eigenvalues --    0.33909   0.38077   0.40615   0.41197   0.43624

 Mulliken charges:
               1
     1  C    0.079184
     2  O   -0.490416
     3  H    0.048312
     4  H    0.035943
     5  H    0.073571
     6  H    0.253407
 Sum of Mulliken charges =   0.00000

 Dipole moment (field-independent basis, Debye):
    X=             -0.9868    Y=              1.5668    Z=             -0.1594  Tot=              1.8585
 Quadrupole moment (field-independent basis, Debye-Ang):
   XX=            -12.9991   YY=            -11.9264   ZZ=            -13.9420
   XY=              2.4634   XZ=             -0.0019   YZ=             -0.1746

 Normal termination of Gaussian 09 at Wed Aug 26 16:37:37 2020.
