 Gaussian 09, Revision D.01,
 Gaussian 09:  ES64L-G09RevD.01 24-Apr-2013

 --------------------
 #p B2PLYPD3/Def2QZVP
 --------------------

 --------
 methanol
 --------
 Symbolic Z-matrix:
 Charge =  0 Multiplicity = 1

                         Standard orientation:
 ---------------------------------------------------------------------
 Center     Atomic      Atomic             Coordinates (Angstroms)
 Number     Number       Type             X           Y           Z
 ---------------------------------------------------------------------
      1          6           0       -0.675745   -0.024032   -0.001664
      2          8           0        0.753922    0.130922   -0.001543
      3          1           0       -1.036862   -0.523006    0.855341
      4          1           0       -1.058847   -0.534488   -0.839272
      5          1           0       -1.027019    0.999667    0.002946
      6          1           0        1.145821   -0.845358    0.003313
 ---------------------------------------------------------------------

 SCF Done:  E(RB2PLYPD3) =  -115.541676983     A.U. after   10 cycles
 E2(B2PLYPD3) =    -0.1491127199D+00 E(B2PLYPD3) =    -0.11569078970331D+03

 The electronic state is 1-A.
 Alpha  occ. eigenvalues --  -19.73315 -10.64687  -1.14001  -0.78713  -0.57697
 Alpha  occ. eigenvalues --   -0.51896  -0.48679  -0.41440  -0.35430
 Alpha virt. eigenvalues --    0.04307   0.07961   0.12250   0.12642   0.15073
 Alpha virt. eigenvalues --    0.17052   0.18183   0.28997   0.31811   0.33505
 Alpha virt. eigenvalues --    0.33756   0.38485   0.39626   0.41728   0.44290

 Mulliken charges:
               1
     1  C    0.074954
     2  O   -0.483022
     3  H    0.049321
     4  H    0.050087
     5  H    0.068158
     6  H    0.240503
 Sum of Mulliken charges =   0.00000

 Dipole moment (field-independent basis, Debye):
    X=             -0.9752    Y=             -1.6155    Z=              0.0094  Tot=              1.8871
 Quadrupole moment (field-independent basis, Debye-Ang):
   XX=            -13.1000   YY=            -11.9272   ZZ=            -13.8820
   XY=             -2.1806   XZ=              0.0277   YZ=              0.0051

 Normal termination of Gaussian 09 at Thu Aug 27 00:03:34 2020.
