 Gaussian 09, Revision D.01,
 Gaussian 09:  ES64L-G09RevD.01 24-Apr-2013

 --------------------
 #p B2PLYPD3/Def2QZVP
 --------------------

 --------
 methanol
 --------
 Symbolic Z-matrix:
 Charge =  0 Multiplicity = 1

                         Standard orientation:
 ---------------------------------------------------------------------
 Center     Atomic      Atomic             Coordinates (Angstroms)
 Number     Number       Type             X           Y           Z
 ---------------------------------------------------------------------
      1          6           0       -0.667931    0.013600    0.012635
      2          8           0        0.764982   -0.059951   -0.032759
      3          1           0       -0.885233    1.193452   -0.304048
      4          1           0       -1.105738   -0.362047    1.012767
      5          1           0       -1.029231   -0.759380   -0.813648
      6          1           0        0.907934    0.325984    0.291195
 ---------------------------------------------------------------------

 SCF Done:  E(RB2PLYPD3) =  -114.905551384     A.U. after   12 cycles
 E2(B2PLYPD3) =    -0.1434610586D+00 E(B2PLYPD3) =    -0.11504901244229D+03

 The electronic state is 1-A.
 Alpha  occ. eigenvalues --  -19.68760 -10.69831  -1.34096  -0.81765  -0.62185
 Alpha  occ. eigenvalues --   -0.52385  -0.49842  -0.42308  -0.36905
 Alpha virt. eigenvalues --    0.04973   0.09414   0.10895   0.11759   0.13886
 Alpha virt. eigenvalues --    0.16885   0.17714   0.27077   0.30680   0.32849
 Alpha virt. eigenvalues --    0.34103   0.36786   0.38001   0.41326   0.44549

 Mulliken charges:
               1
     1  C    0.045266
     2  O   -0.067781
     3  H    0.049271
     4  H    0.063971
     5  H    0.075709
     6  H   -0.166437
 Sum of Mulliken charges =   0.00000

 Dipole moment (field-independent basis, Debye):
    X=             -1.2660    Y=              0.7731    Z=              0.7184  Tot=              1.6481
 Quadrupole moment (field-independent basis, Debye-Ang):
   XX=            -13.8611   YY=            -12.5848   ZZ=            -12.9556
   XY=              1.4718   XZ=              0.8451   YZ=              0.3539

 Normal termination of Gaussian 09 at Wed Aug 26 23:12:04 2020.
