 Gaussian 09, Revision D.01,
 Gaussian 09:  ES64L-G09RevD.01 24-Apr-2013

 --------------------
 #p B2PLYPD3/Def2QZVP
 --------------------

 --------
 methanol
 --------
 Symbolic Z-matrix:
 Charge =  0 Multiplicity = 1

                         Standard orientation:
 ---------------------------------------------------------------------
 Center     Atomic      Atomic             Coordinates (Angstroms)
 Number     Number       Type             X           Y           Z
 ---------------------------------------------------------------------
      1          6           0       -0.684633    0.001039   -0.031229
      2          8           0        0.768591   -0.007448    0.055557
      3          1           0       -0.981517   -0.689272   -0.921237
      4          1           0       -1.181596    1.210513   -0.018705
      5          1           0       -1.093337   -0.594491    0.964211
      6          1           0        1.215523    0.126602   -0.281354
 ---------------------------------------------------------------------

 SCF Done:  E(RB2PLYPD3) =  -115.096702738     A.U. after   12 cycles
 E2(B2PLYPD3) =    -0.1448275228D+00 E(B2PLYPD3) =    -0.11524153026070D+03

 The electronic state is 1-A.
 Alpha  occ. eigenvalues --  -19.67900 -10.72178  -1.27826  -0.83888  -0.61375
 Alpha  occ. eigenvalues --   -0.50470  -0.49156  -0.38033  -0.36450
 Alpha virt. eigenvalues --    0.04591   0.09214   0.10704   0.11503   0.13448
 Alpha virt. eigenvalues --    0.16444   0.18212   0.28350   0.29901   0.31246
 Alpha virt. eigenvalues --    0.33905   0.34464   0.37978   0.41199   0.42146

 Mulliken charges:
               1
     1  C    0.055757
     2  O   -0.155676
     3  H    0.070616
     4  H    0.059852
     5  H    0.085441
     6  H   -0.115990
 Sum of Mulliken charges =   0.00000

 Dipole moment (field-independent basis, Debye):
    X=             -0.9362    Y=              0.1856    Z=             -0.8770  Tot=              1.2962
 Quadrupole moment (field-independent basis, Debye-Ang):
   XX=            -12.4421   YY=            -13.1527   ZZ=            -13.2847
   XY=              0.6283   XZ=             -1.5385   YZ=             -0.0576

 Normal termination of Gaussian 09 at Wed Aug 26 23:23:27 2020.
