 Gaussian 09, Revision D.01,
 Gaussian 09:  ES64L-G09RevD.01 24-Apr-2013

 --------------------
 #p B2PLYPD3/Def2QZVP
 --------------------

 --------
 methanol
 --------
 Symbolic Z-matrix:
 Charge =  0 Multiplicity = 1

                         Standard orientation:
 ---------------------------------------------------------------------
 Center     Atomic      Atomic             Coordinates (Angstroms)
 Number     Number       Type             X           Y           Z
 ---------------------------------------------------------------------
      1          6           0       -0.655175    0.022571   -0.002803
      2          8           0        0.742299   -0.137812   -0.005039
      3          1           0       -1.006993    0.591838   -0.845395
      4          1           0       -1.049420    0.448685    0.901368
      5          1           0       -1.086785   -0.925644   -0.050479
      6          1           0        1.135861    0.852192    0.051637
 ---------------------------------------------------------------------

 SCF Done:  E(RB2PLYPD3) =  -115.540004075     A.U. after   11 cycles
 E2(B2PLYPD3) =    -0.1488973518D+00 E(B2PLYPD3) =    -0.11568890142674D+03

 The electronic state is 1-A.
 Alpha  occ. eigenvalues --  -19.73531 -10.64421  -1.14894  -0.78539  -0.57480
 Alpha  occ. eigenvalues --   -0.52154  -0.50061  -0.40872  -0.35228
 Alpha virt. eigenvalues --    0.04102   0.07949   0.12472   0.12737   0.14878
 Alpha virt. eigenvalues --    0.17482   0.18384   0.28958   0.31028   0.33397
 Alpha virt. eigenvalues --    0.34579   0.39001   0.40382   0.41627   0.43786

 Mulliken charges:
               1
     1  C    0.072719
     2  O   -0.474413
     3  H    0.044152
     4  H    0.044045
     5  H    0.065586
     6  H    0.247911
 Sum of Mulliken charges =   0.00000

 Dipole moment (field-independent basis, Debye):
    X=             -0.8781    Y=              1.5698    Z=              0.0925  Tot=              1.8011
 Quadrupole moment (field-independent basis, Debye-Ang):
   XX=            -13.0653   YY=            -12.0790   ZZ=            -13.8244
   XY=              2.3682   XZ=              0.0886   YZ=              0.0430

 Normal termination of Gaussian 09 at Thu Aug 27 00:06:24 2020.
