 Gaussian 09, Revision D.01,
 Gaussian 09:  ES64L-G09RevD.01 24-Apr-2013

 --------------------
 #p B2PLYPD3/Def2QZVP
 --------------------

 --------
 methanol
 --------
 Symbolic Z-matrix:
 Charge =  0 Multiplicity = 1

                         Standard orientation:
 ---------------------------------------------------------------------
 Center     Atomic      Atomic             Coordinates (Angstroms)
 Number     Number       Type             X           Y           Z
 ---------------------------------------------------------------------
      1          6           0        0.662102   -0.028465   -0.003439
      2          8           0       -0.764090    0.053188   -0.007248
      3          1           0        1.027063   -0.890793   -0.761226
      4          1           0        1.215958   -0.226061    1.052406
      5          1           0        1.090213    1.163483   -0.342529
      6          1           0       -1.193131   -0.301345    0.129964
 ---------------------------------------------------------------------

 SCF Done:  E(RB2PLYPD3) =  -115.091679370     A.U. after   12 cycles
 E2(B2PLYPD3) =    -0.1446506820D+00 E(B2PLYPD3) =    -0.11523633005165D+03

 The electronic state is 1-A.
 Alpha  occ. eigenvalues --  -19.68660 -10.72039  -1.29046  -0.84301  -0.62455
 Alpha  occ. eigenvalues --   -0.50805  -0.48675  -0.38323  -0.36510
 Alpha virt. eigenvalues --    0.04605   0.09158   0.10665   0.11581   0.14283
 Alpha virt. eigenvalues --    0.16602   0.17920   0.28593   0.30933   0.32207
 Alpha virt. eigenvalues --    0.33146   0.35164   0.37057   0.40420   0.42144

 Mulliken charges:
               1
     1  C    0.046872
     2  O   -0.125147
     3  H    0.062523
     4  H    0.057168
     5  H    0.073606
     6  H   -0.115022
 Sum of Mulliken charges =   0.00000

 Dipole moment (field-independent basis, Debye):
    X=              0.8041    Y=             -0.9479    Z=              0.3610  Tot=              1.2944
 Quadrupole moment (field-independent basis, Debye-Ang):
   XX=            -12.4199   YY=            -12.9442   ZZ=            -13.6847
   XY=              1.4324   XZ=             -0.3552   YZ=             -0.0585

 Normal termination of Gaussian 09 at Wed Aug 26 23:50:03 2020.
