 Gaussian 09, Revision D.01,
 Gaussian 09:  ES64L-G09RevD.01 24-Apr-2013

 --------------------
 #p B2PLYPD3/Def2QZVP
 --------------------

 --------
 methanol
 --------
 Symbolic Z-matrix:
 Charge =  0 Multiplicity = 1

                         Standard orientation:
 ---------------------------------------------------------------------
 Center     Atomic      Atomic             Coordinates (Angstroms)
 Number     Number       Type             X           Y           Z
 ---------------------------------------------------------------------
      1          6           0       -0.671541    0.026712    0.004168
      2          8           0        0.745011   -0.142257   -0.006899
      3          1           0       -0.988595    0.577954   -0.864153
      4          1           0       -1.033859    0.467813    0.873550
      5          1           0       -1.087214   -0.922600   -0.036294
      6          1           0        1.178826    0.854619    0.057077
 ---------------------------------------------------------------------

 SCF Done:  E(RB2PLYPD3) =  -115.534844846     A.U. after   11 cycles
 E2(B2PLYPD3) =    -0.1493489948D+00 E(B2PLYPD3) =    -0.11568419384071D+03

 The electronic state is 1-A.
 Alpha  occ. eigenvalues --  -19.73389 -10.64119  -1.13691  -0.78842  -0.56825
 Alpha  occ. eigenvalues --   -0.52381  -0.49655  -0.40791  -0.35225
 Alpha virt. eigenvalues --    0.03954   0.07892   0.12503   0.12713   0.14775
 Alpha virt. eigenvalues --    0.17355   0.18304   0.28945   0.30598   0.33279
 Alpha virt. eigenvalues --    0.33915   0.39210   0.40237   0.41971   0.43939

 Mulliken charges:
               1
     1  C    0.079262
     2  O   -0.491005
     3  H    0.046930
     4  H    0.048793
     5  H    0.067343
     6  H    0.248677
 Sum of Mulliken charges =   0.00000

 Dipole moment (field-independent basis, Debye):
    X=             -0.9202    Y=              1.5888    Z=              0.1332  Tot=              1.8409
 Quadrupole moment (field-independent basis, Debye-Ang):
   XX=            -12.9244   YY=            -12.0680   ZZ=            -13.7686
   XY=              2.4307   XZ=              0.0608   YZ=              0.0851

 Normal termination of Gaussian 09 at Wed Aug 26 10:37:08 2020.
