 Gaussian 09, Revision D.01,
 Gaussian 09:  ES64L-G09RevD.01 24-Apr-2013

 --------------------
 #p B2PLYPD3/Def2QZVP
 --------------------

 --------
 methanol
 --------
 Symbolic Z-matrix:
 Charge =  0 Multiplicity = 1

                         Standard orientation:
 ---------------------------------------------------------------------
 Center     Atomic      Atomic             Coordinates (Angstroms)
 Number     Number       Type             X           Y           Z
 ---------------------------------------------------------------------
      1          6           0       -0.666989   -0.021217   -0.001154
      2          8           0        0.744055    0.103370   -0.002807
      3          1           0       -1.026940   -0.523158    0.919975
      4          1           0       -1.004392   -0.602166   -0.886752
      5          1           0       -1.073891    1.047201   -0.031698
      6          1           0        1.154713   -0.621534    0.027852
 ---------------------------------------------------------------------

 SCF Done:  E(RB2PLYPD3) =  -115.531730875     A.U. after   10 cycles
 E2(B2PLYPD3) =    -0.1452811896D+00 E(B2PLYPD3) =    -0.11567701206492D+03

 The electronic state is 1-A.
 Alpha  occ. eigenvalues --  -19.71063 -10.66880  -1.19087  -0.79684  -0.60450
 Alpha  occ. eigenvalues --   -0.51751  -0.49832  -0.40660  -0.35567
 Alpha virt. eigenvalues --    0.05374   0.08734   0.12089   0.12270   0.14816
 Alpha virt. eigenvalues --    0.16997   0.17819   0.29098   0.33106   0.33400
 Alpha virt. eigenvalues --    0.37433   0.38759   0.39773   0.40329   0.42779

 Mulliken charges:
               1
     1  C    0.065918
     2  O   -0.391722
     3  H    0.050142
     4  H    0.050378
     5  H    0.073550
     6  H    0.151734
 Sum of Mulliken charges =   0.00000

 Dipole moment (field-independent basis, Debye):
    X=             -0.8120    Y=             -1.3851    Z=              0.0622  Tot=              1.6068
 Quadrupole moment (field-independent basis, Debye-Ang):
   XX=            -12.9201   YY=            -12.4080   ZZ=            -13.7111
   XY=             -2.1026   XZ=              0.0582   YZ=             -0.0260

 Normal termination of Gaussian 09 at Thu Aug 27 00:11:26 2020.
