 Gaussian 09, Revision D.01,
 Gaussian 09:  ES64L-G09RevD.01 24-Apr-2013

 --------------------
 #p B2PLYPD3/Def2QZVP
 --------------------

 --------
 methanol
 --------
 Symbolic Z-matrix:
 Charge =  0 Multiplicity = 1

                         Standard orientation:
 ---------------------------------------------------------------------
 Center     Atomic      Atomic             Coordinates (Angstroms)
 Number     Number       Type             X           Y           Z
 ---------------------------------------------------------------------
      1          6           0       -0.704596   -0.003826   -0.028021
      2          8           0        0.755742   -0.161032    0.000862
      3          1           0       -1.078774    0.479011   -0.799895
      4          1           0       -0.959438    0.594235    0.865529
      5          1           0       -0.978064   -0.808472    0.124392
      6          1           0        1.197921    1.046441   -0.028797
 ---------------------------------------------------------------------

 SCF Done:  E(RB2PLYPD3) =  -115.433499784     A.U. after   12 cycles
 E2(B2PLYPD3) =    -0.1539701645D+00 E(B2PLYPD3) =    -0.11558746994887D+03

 The electronic state is 1-A.
 Alpha  occ. eigenvalues --  -19.74445 -10.62162  -1.10684  -0.80903  -0.57768
 Alpha  occ. eigenvalues --   -0.51100  -0.48475  -0.40967  -0.34758
 Alpha virt. eigenvalues --    0.01040   0.07570   0.12414   0.12987   0.14391
 Alpha virt. eigenvalues --    0.17096   0.18294   0.24583   0.29248   0.32049
 Alpha virt. eigenvalues --    0.33868   0.36896   0.41633   0.41778   0.44587

 Mulliken charges:
               1
     1  C    0.044135
     2  O   -0.507868
     3  H    0.057075
     4  H    0.038048
     5  H    0.122775
     6  H    0.245835
 Sum of Mulliken charges =   0.00000

 Dipole moment (field-independent basis, Debye):
    X=             -1.1642    Y=              1.6475    Z=             -0.0913  Tot=              2.0194
 Quadrupole moment (field-independent basis, Debye-Ang):
   XX=            -13.0893   YY=            -11.4481   ZZ=            -13.8758
   XY=              2.4705   XZ=              0.1191   YZ=             -0.2231

 Normal termination of Gaussian 09 at Wed Aug 26 23:08:55 2020.
