 Gaussian 09, Revision D.01,
 Gaussian 09:  ES64L-G09RevD.01 24-Apr-2013

 --------------------
 #p B2PLYPD3/Def2QZVP
 --------------------

 --------
 methanol
 --------
 Symbolic Z-matrix:
 Charge =  0 Multiplicity = 1

                         Standard orientation:
 ---------------------------------------------------------------------
 Center     Atomic      Atomic             Coordinates (Angstroms)
 Number     Number       Type             X           Y           Z
 ---------------------------------------------------------------------
      1          6           0       -0.669910   -0.022552   -0.011526
      2          8           0        0.747127    0.133871    0.005360
      3          1           0       -0.983232   -0.554891    0.903161
      4          1           0       -1.038547   -0.498383   -0.860085
      5          1           0       -1.076091    0.942113    0.029067
      6          1           0        1.140309   -0.824496   -0.045870
 ---------------------------------------------------------------------

 SCF Done:  E(RB2PLYPD3) =  -115.543481186     A.U. after   10 cycles
 E2(B2PLYPD3) =    -0.1485257263D+00 E(B2PLYPD3) =    -0.11569200691267D+03

 The electronic state is 1-A.
 Alpha  occ. eigenvalues --  -19.73075 -10.64609  -1.14575  -0.78776  -0.57591
 Alpha  occ. eigenvalues --   -0.52132  -0.49747  -0.41139  -0.35237
 Alpha virt. eigenvalues --    0.04428   0.08066   0.12370   0.12646   0.14751
 Alpha virt. eigenvalues --    0.17349   0.18232   0.29091   0.32141   0.33122
 Alpha virt. eigenvalues --    0.34033   0.38998   0.40204   0.41603   0.44256

 Mulliken charges:
               1
     1  C    0.075308
     2  O   -0.479840
     3  H    0.044406
     4  H    0.050290
     5  H    0.068643
     6  H    0.241194
 Sum of Mulliken charges =   0.00000

 Dipole moment (field-independent basis, Debye):
    X=             -0.9383    Y=             -1.5532    Z=             -0.1345  Tot=              1.8196
 Quadrupole moment (field-independent basis, Debye-Ang):
   XX=            -13.0875   YY=            -12.0923   ZZ=            -13.7445
   XY=             -2.3458   XZ=              0.0056   YZ=              0.1229

 Normal termination of Gaussian 09 at Thu Aug 27 00:03:53 2020.
