 Gaussian 09, Revision D.01,
 Gaussian 09:  ES64L-G09RevD.01 24-Apr-2013

 --------------------
 #p B2PLYPD3/Def2QZVP
 --------------------

 --------
 methanol
 --------
 Symbolic Z-matrix:
 Charge =  0 Multiplicity = 1

                         Standard orientation:
 ---------------------------------------------------------------------
 Center     Atomic      Atomic             Coordinates (Angstroms)
 Number     Number       Type             X           Y           Z
 ---------------------------------------------------------------------
      1          6           0        0.663574    0.019618    0.000981
      2          8           0       -0.743132   -0.138173   -0.002966
      3          1           0        1.032558    0.491988    0.886140
      4          1           0        1.074318    0.584464   -0.825588
      5          1           0        1.069602   -0.938953   -0.044420
      6          1           0       -1.212862    0.850183    0.001711
 ---------------------------------------------------------------------

 SCF Done:  E(RB2PLYPD3) =  -115.535370301     A.U. after   11 cycles
 E2(B2PLYPD3) =    -0.1494580065D+00 E(B2PLYPD3) =    -0.11568482830734D+03

 The electronic state is 1-A.
 Alpha  occ. eigenvalues --  -19.73636 -10.64503  -1.13993  -0.78528  -0.57272
 Alpha  occ. eigenvalues --   -0.51397  -0.49911  -0.40775  -0.35054
 Alpha virt. eigenvalues --    0.03850   0.07754   0.12584   0.12713   0.15066
 Alpha virt. eigenvalues --    0.17242   0.18316   0.28937   0.30430   0.33480
 Alpha virt. eigenvalues --    0.34335   0.38906   0.39811   0.41318   0.43790

 Mulliken charges:
               1
     1  C    0.074448
     2  O   -0.485310
     3  H    0.046254
     4  H    0.042481
     5  H    0.070194
     6  H    0.251934
 Sum of Mulliken charges =   0.00000

 Dipole moment (field-independent basis, Debye):
    X=              0.8047    Y=              1.5837    Z=              0.0159  Tot=              1.7765
 Quadrupole moment (field-independent basis, Debye-Ang):
   XX=            -12.7336   YY=            -12.0717   ZZ=            -13.9653
   XY=             -2.4282   XZ=             -0.0395   YZ=              0.0162

 Normal termination of Gaussian 09 at Wed Aug 26 22:57:46 2020.
