 Gaussian 09, Revision D.01,
 Gaussian 09:  ES64L-G09RevD.01 24-Apr-2013

 --------------------
 #p B2PLYPD3/Def2QZVP
 --------------------

 --------
 methanol
 --------
 Symbolic Z-matrix:
 Charge =  0 Multiplicity = 1

                         Standard orientation:
 ---------------------------------------------------------------------
 Center     Atomic      Atomic             Coordinates (Angstroms)
 Number     Number       Type             X           Y           Z
 ---------------------------------------------------------------------
      1          6           0        0.663081   -0.013583    0.008256
      2          8           0       -0.759284    0.101391   -0.001673
      3          1           0        1.005109   -0.596907   -0.927124
      4          1           0        1.062485   -0.467143    0.952644
      5          1           0        1.073751    0.998372   -0.088614
      6          1           0       -1.045558   -0.663951    0.026941
 ---------------------------------------------------------------------

 SCF Done:  E(RB2PLYPD3) =  -115.524491717     A.U. after   10 cycles
 E2(B2PLYPD3) =    -0.1454592316D+00 E(B2PLYPD3) =    -0.11566995094839D+03

 The electronic state is 1-A.
 Alpha  occ. eigenvalues --  -19.71386 -10.66995  -1.20082  -0.79379  -0.60122
 Alpha  occ. eigenvalues --   -0.51632  -0.50215  -0.41648  -0.35872
 Alpha virt. eigenvalues --    0.05353   0.08759   0.11897   0.12357   0.14490
 Alpha virt. eigenvalues --    0.17316   0.18095   0.28769   0.32579   0.33210
 Alpha virt. eigenvalues --    0.36766   0.39098   0.39711   0.40332   0.43580

 Mulliken charges:
               1
     1  C    0.059384
     2  O   -0.367785
     3  H    0.044371
     4  H    0.053250
     5  H    0.073943
     6  H    0.136838
 Sum of Mulliken charges =   0.00000

 Dipole moment (field-independent basis, Debye):
    X=              1.0148    Y=             -1.3357    Z=              0.0735  Tot=              1.6790
 Quadrupole moment (field-independent basis, Debye-Ang):
   XX=            -13.3568   YY=            -12.3903   ZZ=            -13.5910
   XY=              2.0726   XZ=              0.0006   YZ=             -0.0934

 Normal termination of Gaussian 09 at Wed Aug 26 12:43:14 2020.
