 Gaussian 09, Revision D.01,
 Gaussian 09:  ES64L-G09RevD.01 24-Apr-2013

 --------------------
 #p B2PLYPD3/Def2QZVP
 --------------------

 --------
 methanol
 --------
 Symbolic Z-matrix:
 Charge =  0 Multiplicity = 1

                         Standard orientation:
 ---------------------------------------------------------------------
 Center     Atomic      Atomic             Coordinates (Angstroms)
 Number     Number       Type             X           Y           Z
 ---------------------------------------------------------------------
      1          6           0        0.659454   -0.015853   -0.001986
      2          8           0       -0.750352    0.099749   -0.007673
      3          1           0        1.048622   -0.683054   -0.828153
      4          1           0        1.037001   -0.416779    0.972732
      5          1           0        1.060300    1.040005   -0.118928
      6          1           0       -1.099836   -0.643049    0.047646
 ---------------------------------------------------------------------

 SCF Done:  E(RB2PLYPD3) =  -115.527543368     A.U. after   10 cycles
 E2(B2PLYPD3) =    -0.1453165904D+00 E(B2PLYPD3) =    -0.11567285995828D+03

 The electronic state is 1-A.
 Alpha  occ. eigenvalues --  -19.71351 -10.67064  -1.19942  -0.79471  -0.60674
 Alpha  occ. eigenvalues --   -0.51450  -0.49943  -0.41270  -0.35677
 Alpha virt. eigenvalues --    0.05344   0.08749   0.12025   0.12249   0.14879
 Alpha virt. eigenvalues --    0.17055   0.17952   0.28981   0.33114   0.33430
 Alpha virt. eigenvalues --    0.37422   0.38646   0.39677   0.40098   0.42682

 Mulliken charges:
               1
     1  C    0.061042
     2  O   -0.371643
     3  H    0.046533
     4  H    0.049357
     5  H    0.072349
     6  H    0.142363
 Sum of Mulliken charges =   0.00000

 Dipole moment (field-independent basis, Debye):
    X=              0.8710    Y=             -1.3729    Z=              0.1115  Tot=              1.6297
 Quadrupole moment (field-independent basis, Debye-Ang):
   XX=            -13.1362   YY=            -12.3473   ZZ=            -13.7507
   XY=              2.0286   XZ=             -0.1525   YZ=             -0.0554

 Normal termination of Gaussian 09 at Wed Aug 26 22:47:47 2020.
