 Gaussian 09, Revision D.01,
 Gaussian 09:  ES64L-G09RevD.01 24-Apr-2013

 --------------------
 #p B2PLYPD3/Def2QZVP
 --------------------

 --------
 methanol
 --------
 Symbolic Z-matrix:
 Charge =  0 Multiplicity = 1

                         Standard orientation:
 ---------------------------------------------------------------------
 Center     Atomic      Atomic             Coordinates (Angstroms)
 Number     Number       Type             X           Y           Z
 ---------------------------------------------------------------------
      1          6           0       -0.644608   -0.009631    0.033187
      2          8           0        0.752865   -0.100121   -0.050617
      3          1           0       -1.053590    1.007121   -0.588497
      4          1           0       -1.012563    0.017575    1.020433
      5          1           0       -1.194939   -0.794592   -0.476575
      6          1           0        1.105824    0.628645    0.250453
 ---------------------------------------------------------------------

 SCF Done:  E(RB2PLYPD3) =  -115.527972355     A.U. after   11 cycles
 E2(B2PLYPD3) =    -0.1461001429D+00 E(B2PLYPD3) =    -0.11567407249789D+03

 The electronic state is 1-A.
 Alpha  occ. eigenvalues --  -19.72304 -10.67109  -1.19404  -0.79419  -0.60533
 Alpha  occ. eigenvalues --   -0.52052  -0.50686  -0.40388  -0.35390
 Alpha virt. eigenvalues --    0.05157   0.08360   0.11692   0.12734   0.14402
 Alpha virt. eigenvalues --    0.18000   0.18216   0.28767   0.31780   0.33386
 Alpha virt. eigenvalues --    0.35358   0.37614   0.40344   0.41757   0.44341

 Mulliken charges:
               1
     1  C    0.061739
     2  O   -0.393030
     3  H    0.012670
     4  H    0.059889
     5  H    0.075084
     6  H    0.183648
 Sum of Mulliken charges =   0.00000

 Dipole moment (field-independent basis, Debye):
    X=             -0.8075    Y=              1.1078    Z=              0.6707  Tot=              1.5261
 Quadrupole moment (field-independent basis, Debye-Ang):
   XX=            -12.9739   YY=            -12.9273   ZZ=            -13.5449
   XY=              2.2830   XZ=              0.7597   YZ=              0.4726

 Normal termination of Gaussian 09 at Wed Aug 26 20:09:23 2020.
