 Gaussian 09, Revision D.01,
 Gaussian 09:  ES64L-G09RevD.01 24-Apr-2013

 --------------------
 #p B2PLYPD3/Def2QZVP
 --------------------

 --------
 methanol
 --------
 Symbolic Z-matrix:
 Charge =  0 Multiplicity = 1

                         Standard orientation:
 ---------------------------------------------------------------------
 Center     Atomic      Atomic             Coordinates (Angstroms)
 Number     Number       Type             X           Y           Z
 ---------------------------------------------------------------------
      1          6           0        0.639872    0.000151   -0.004636
      2          8           0       -0.729993   -0.020736   -0.086849
      3          1           0        0.951560   -0.706456    0.917983
      4          1           0        0.983806    1.153260    0.213052
      5          1           0        1.196476   -0.387869   -0.874073
      6          1           0       -1.131128    0.106047    0.465646
 ---------------------------------------------------------------------

 SCF Done:  E(RB2PLYPD3) =  -115.402948400     A.U. after   11 cycles
 E2(B2PLYPD3) =    -0.1436910772D+00 E(B2PLYPD3) =    -0.11554663947708D+03

 The electronic state is 1-A.
 Alpha  occ. eigenvalues --  -19.69882 -10.68899  -1.25325  -0.82586  -0.62162
 Alpha  occ. eigenvalues --   -0.52494  -0.51399  -0.39424  -0.35117
 Alpha virt. eigenvalues --    0.05275   0.09171   0.11473   0.12585   0.14034
 Alpha virt. eigenvalues --    0.17384   0.17672   0.28480   0.31879   0.33229
 Alpha virt. eigenvalues --    0.36768   0.37538   0.38340   0.42175   0.43280

 Mulliken charges:
               1
     1  C    0.050011
     2  O   -0.220580
     3  H    0.027257
     4  H    0.033671
     5  H    0.093303
     6  H    0.016338
 Sum of Mulliken charges =   0.00000

 Dipole moment (field-independent basis, Debye):
    X=              0.6373    Y=              0.1703    Z=              1.0134  Tot=              1.2092
 Quadrupole moment (field-independent basis, Debye-Ang):
   XX=            -12.8489   YY=            -13.5939   ZZ=            -12.9677
   XY=             -0.6318   XZ=             -2.1783   YZ=              0.2360

 Normal termination of Gaussian 09 at Wed Aug 26 23:52:33 2020.
