 Gaussian 09, Revision D.01,
 Gaussian 09:  ES64L-G09RevD.01 24-Apr-2013

 --------------------
 #p B2PLYPD3/Def2QZVP
 --------------------

 --------
 methanol
 --------
 Symbolic Z-matrix:
 Charge =  0 Multiplicity = 1

                         Standard orientation:
 ---------------------------------------------------------------------
 Center     Atomic      Atomic             Coordinates (Angstroms)
 Number     Number       Type             X           Y           Z
 ---------------------------------------------------------------------
      1          6           0       -0.670176    0.004357    0.006048
      2          8           0        0.760041   -0.105203   -0.031700
      3          1           0       -1.093959    0.817379   -0.748980
      4          1           0       -1.045843    0.255444    1.008544
      5          1           0       -1.094925   -0.934215   -0.221177
      6          1           0        1.175450    0.676874    0.178926
 ---------------------------------------------------------------------

 SCF Done:  E(RB2PLYPD3) =  -115.544528752     A.U. after   11 cycles
 E2(B2PLYPD3) =    -0.1468716492D+00 E(B2PLYPD3) =    -0.11569140040078D+03

 The electronic state is 1-A.
 Alpha  occ. eigenvalues --  -19.72274 -10.66685  -1.16706  -0.79187  -0.59027
 Alpha  occ. eigenvalues --   -0.50674  -0.50434  -0.40989  -0.35376
 Alpha virt. eigenvalues --    0.05180   0.08129   0.12037   0.12630   0.14713
 Alpha virt. eigenvalues --    0.17233   0.18225   0.29018   0.32755   0.33045
 Alpha virt. eigenvalues --    0.35668   0.38170   0.39662   0.40424   0.43780

 Mulliken charges:
               1
     1  C    0.067833
     2  O   -0.443816
     3  H    0.037663
     4  H    0.050891
     5  H    0.080486
     6  H    0.206943
 Sum of Mulliken charges =   0.00000

 Dipole moment (field-independent basis, Debye):
    X=             -0.8583    Y=              1.2978    Z=              0.4477  Tot=              1.6190
 Quadrupole moment (field-independent basis, Debye-Ang):
   XX=            -12.7721   YY=            -12.4916   ZZ=            -13.7927
   XY=              2.2822   XZ=              0.5143   YZ=              0.2922

 Normal termination of Gaussian 09 at Wed Aug 26 15:18:46 2020.
