 Gaussian 09, Revision D.01,
 Gaussian 09:  ES64L-G09RevD.01 24-Apr-2013

 --------------------
 #p B2PLYPD3/Def2QZVP
 --------------------

 --------
 methanol
 --------
 Symbolic Z-matrix:
 Charge =  0 Multiplicity = 1

                         Standard orientation:
 ---------------------------------------------------------------------
 Center     Atomic      Atomic             Coordinates (Angstroms)
 Number     Number       Type             X           Y           Z
 ---------------------------------------------------------------------
      1          6           0        0.675831    0.018423   -0.007220
      2          8           0       -0.751306   -0.135521    0.008258
      3          1           0        1.038924    0.536483    0.883830
      4          1           0        1.049191    0.476949   -0.862338
      5          1           0        0.995875   -0.937647    0.007302
      6          1           0       -1.128533    0.897841   -0.051536
 ---------------------------------------------------------------------

 SCF Done:  E(RB2PLYPD3) =  -115.528748228     A.U. after   11 cycles
 E2(B2PLYPD3) =    -0.1499833891D+00 E(B2PLYPD3) =    -0.11567873161754D+03

 The electronic state is 1-A.
 Alpha  occ. eigenvalues --  -19.73628 -10.64014  -1.13464  -0.78909  -0.57051
 Alpha  occ. eigenvalues --   -0.51981  -0.49051  -0.41479  -0.35299
 Alpha virt. eigenvalues --    0.03808   0.07905   0.12454   0.12619   0.14883
 Alpha virt. eigenvalues --    0.17031   0.18395   0.28623   0.30439   0.33380
 Alpha virt. eigenvalues --    0.33832   0.38568   0.40277   0.41542   0.44167

 Mulliken charges:
               1
     1  C    0.074178
     2  O   -0.487632
     3  H    0.046753
     4  H    0.049367
     5  H    0.071351
     6  H    0.245983
 Sum of Mulliken charges =   0.00000

 Dipole moment (field-independent basis, Debye):
    X=              1.0183    Y=              1.5777    Z=             -0.1412  Tot=              1.8831
 Quadrupole moment (field-independent basis, Debye-Ang):
   XX=            -13.2361   YY=            -11.8682   ZZ=            -13.7785
   XY=             -2.2629   XZ=              0.0457   YZ=             -0.0990

 Normal termination of Gaussian 09 at Wed Aug 26 13:00:23 2020.
