 Gaussian 09, Revision D.01,
 Gaussian 09:  ES64L-G09RevD.01 24-Apr-2013

 --------------------
 #p B2PLYPD3/Def2QZVP
 --------------------

 --------
 methanol
 --------
 Symbolic Z-matrix:
 Charge =  0 Multiplicity = 1

                         Standard orientation:
 ---------------------------------------------------------------------
 Center     Atomic      Atomic             Coordinates (Angstroms)
 Number     Number       Type             X           Y           Z
 ---------------------------------------------------------------------
      1          6           0       -0.700151    0.007570    0.010617
      2          8           0        0.759663    0.005390    0.046165
      3          1           0       -1.036601   -1.024822   -0.639653
      4          1           0       -1.005784    1.052503   -0.578905
      5          1           0       -1.035598   -0.060321    1.084029
      6          1           0        1.201585   -0.055898   -0.298488
 ---------------------------------------------------------------------

 SCF Done:  E(RB2PLYPD3) =  -115.059645299     A.U. after   11 cycles
 E2(B2PLYPD3) =    -0.1442076482D+00 E(B2PLYPD3) =    -0.11520385294683D+03

 The electronic state is 1-A.
 Alpha  occ. eigenvalues --  -19.67054 -10.71749  -1.27728  -0.84501  -0.60826
 Alpha  occ. eigenvalues --   -0.51534  -0.49688  -0.38330  -0.35706
 Alpha virt. eigenvalues --    0.04746   0.09636   0.10733   0.11762   0.13203
 Alpha virt. eigenvalues --    0.16486   0.17223   0.28467   0.29566   0.31702
 Alpha virt. eigenvalues --    0.33924   0.35949   0.37780   0.41523   0.42131

 Mulliken charges:
               1
     1  C    0.064474
     2  O   -0.162537
     3  H    0.048985
     4  H    0.066808
     5  H    0.111772
     6  H   -0.129502
 Sum of Mulliken charges =   0.00000

 Dipole moment (field-independent basis, Debye):
    X=             -1.0080    Y=             -0.1301    Z=             -0.7576  Tot=              1.2676
 Quadrupole moment (field-independent basis, Debye-Ang):
   XX=            -12.6655   YY=            -13.3200   ZZ=            -12.7794
   XY=             -0.2394   XZ=             -1.7202   YZ=             -0.0319

 Normal termination of Gaussian 09 at Wed Aug 26 20:35:18 2020.
