 Gaussian 09, Revision D.01,
 Gaussian 09:  ES64L-G09RevD.01 24-Apr-2013

 --------------------
 #p B2PLYPD3/Def2QZVP
 --------------------

 --------
 methanol
 --------
 Symbolic Z-matrix:
 Charge =  0 Multiplicity = 1

                         Standard orientation:
 ---------------------------------------------------------------------
 Center     Atomic      Atomic             Coordinates (Angstroms)
 Number     Number       Type             X           Y           Z
 ---------------------------------------------------------------------
      1          6           0        0.687006    0.028521    0.013939
      2          8           0       -0.755266   -0.151484   -0.007359
      3          1           0        1.017172    0.412396    0.841335
      4          1           0        1.027366    0.615930   -0.791547
      5          1           0        1.032330   -0.945936   -0.105400
      6          1           0       -1.156774    0.958351    0.030853
 ---------------------------------------------------------------------

 SCF Done:  E(RB2PLYPD3) =  -115.504914044     A.U. after   11 cycles
 E2(B2PLYPD3) =    -0.1516053797D+00 E(B2PLYPD3) =    -0.11565651942329D+03

 The electronic state is 1-A.
 Alpha  occ. eigenvalues --  -19.74048 -10.63253  -1.11950  -0.79473  -0.56309
 Alpha  occ. eigenvalues --   -0.52780  -0.48030  -0.41154  -0.35421
 Alpha virt. eigenvalues --    0.02815   0.07745   0.12363   0.12738   0.14878
 Alpha virt. eigenvalues --    0.17113   0.18208   0.26963   0.29519   0.32972
 Alpha virt. eigenvalues --    0.33776   0.38857   0.39479   0.42718   0.44840

 Mulliken charges:
               1
     1  C    0.091175
     2  O   -0.501414
     3  H    0.053422
     4  H    0.044233
     5  H    0.066566
     6  H    0.246018
 Sum of Mulliken charges =   0.00000

 Dipole moment (field-independent basis, Debye):
    X=              1.1113    Y=              1.6850    Z=              0.1057  Tot=              2.0212
 Quadrupole moment (field-independent basis, Debye-Ang):
   XX=            -13.1750   YY=            -11.6703   ZZ=            -13.8440
   XY=             -2.2660   XZ=             -0.0185   YZ=              0.1009

 Normal termination of Gaussian 09 at Wed Aug 26 15:33:23 2020.
