 Gaussian 09, Revision D.01,
 Gaussian 09:  ES64L-G09RevD.01 24-Apr-2013

 --------------------
 #p B2PLYPD3/Def2QZVP
 --------------------

 --------
 methanol
 --------
 Symbolic Z-matrix:
 Charge =  0 Multiplicity = 1

                         Standard orientation:
 ---------------------------------------------------------------------
 Center     Atomic      Atomic             Coordinates (Angstroms)
 Number     Number       Type             X           Y           Z
 ---------------------------------------------------------------------
      1          6           0        0.688645    0.032829    0.013542
      2          8           0       -0.713497   -0.196738    0.001838
      3          1           0        1.050823    0.423738    0.827213
      4          1           0        0.856582    0.621662   -0.812621
      5          1           0        1.055898   -0.727153   -0.152262
      6          1           0       -1.387201    1.058677    0.041714
 ---------------------------------------------------------------------

 SCF Done:  E(RB2PLYPD3) =  -115.395167094     A.U. after   12 cycles
 E2(B2PLYPD3) =    -0.1554954285D+00 E(B2PLYPD3) =    -0.11555066252269D+03

 The electronic state is 1-A.
 Alpha  occ. eigenvalues --  -19.74605 -10.60543  -1.11385  -0.81058  -0.56133
 Alpha  occ. eigenvalues --   -0.53493  -0.49332  -0.38741  -0.34715
 Alpha virt. eigenvalues --   -0.01665   0.07632   0.12769   0.13170   0.14488
 Alpha virt. eigenvalues --    0.17282   0.18394   0.22145   0.29504   0.32927
 Alpha virt. eigenvalues --    0.34295   0.38261   0.41706   0.43788   0.44964

 Mulliken charges:
               1
     1  C    0.049181
     2  O   -0.494680
     3  H    0.050396
     4  H    0.044607
     5  H    0.113750
     6  H    0.236746
 Sum of Mulliken charges =   0.00000

 Dipole moment (field-independent basis, Debye):
    X=              0.9124    Y=              1.6412    Z=              0.0383  Tot=              1.8782
 Quadrupole moment (field-independent basis, Debye-Ang):
   XX=            -12.2868   YY=            -11.7675   ZZ=            -13.7304
   XY=             -2.8646   XZ=              0.0557   YZ=              0.1339

 Normal termination of Gaussian 09 at Wed Aug 26 21:56:19 2020.
