 Gaussian 09, Revision D.01,
 Gaussian 09:  ES64L-G09RevD.01 24-Apr-2013

 --------------------
 #p B2PLYPD3/Def2QZVP
 --------------------

 --------
 methanol
 --------
 Symbolic Z-matrix:
 Charge =  0 Multiplicity = 1

                         Standard orientation:
 ---------------------------------------------------------------------
 Center     Atomic      Atomic             Coordinates (Angstroms)
 Number     Number       Type             X           Y           Z
 ---------------------------------------------------------------------
      1          6           0        0.662575    0.009493   -0.030561
      2          8           0       -0.749990   -0.186139    0.035824
      3          1           0        1.087909    0.676312    0.794052
      4          1           0        0.941615    0.380786   -0.783826
      5          1           0        1.204828   -0.743397    0.030388
      6          1           0       -1.209889    1.118458   -0.143841
 ---------------------------------------------------------------------

 SCF Done:  E(RB2PLYPD3) =  -115.400561280     A.U. after   11 cycles
 E2(B2PLYPD3) =    -0.1556708806D+00 E(B2PLYPD3) =    -0.11555623216021D+03

 The electronic state is 1-A.
 Alpha  occ. eigenvalues --  -19.75634 -10.61679  -1.11610  -0.81827  -0.55308
 Alpha  occ. eigenvalues --   -0.51082  -0.50319  -0.39682  -0.35081
 Alpha virt. eigenvalues --   -0.01519   0.07254   0.12712   0.12969   0.14529
 Alpha virt. eigenvalues --    0.18315   0.18850   0.22353   0.29660   0.32833
 Alpha virt. eigenvalues --    0.33479   0.37779   0.40127   0.42166   0.44977

 Mulliken charges:
               1
     1  C    0.073446
     2  O   -0.482746
     3  H    0.031019
     4  H    0.067675
     5  H    0.061160
     6  H    0.249446
 Sum of Mulliken charges =   0.00000

 Dipole moment (field-independent basis, Debye):
    X=              1.0442    Y=              1.6832    Z=             -0.4610  Tot=              2.0337
 Quadrupole moment (field-independent basis, Debye-Ang):
   XX=            -12.8110   YY=            -11.5827   ZZ=            -13.9906
   XY=             -2.7156   XZ=              0.1389   YZ=             -0.3314

 Normal termination of Gaussian 09 at Wed Aug 26 22:03:20 2020.
