 Gaussian 09, Revision D.01,
 Gaussian 09:  ES64L-G09RevD.01 24-Apr-2013

 --------------------
 #p B2PLYPD3/Def2QZVP
 --------------------

 --------
 methanol
 --------
 Symbolic Z-matrix:
 Charge =  0 Multiplicity = 1

                         Standard orientation:
 ---------------------------------------------------------------------
 Center     Atomic      Atomic             Coordinates (Angstroms)
 Number     Number       Type             X           Y           Z
 ---------------------------------------------------------------------
      1          6           0        0.674764    0.030601    0.008261
      2          8           0       -0.747387   -0.164152   -0.010231
      3          1           0        1.070839    0.409843    0.805629
      4          1           0        1.025534    0.648509   -0.760891
      5          1           0        1.065343   -0.923811   -0.083749
      6          1           0       -1.231206    0.995073    0.071293
 ---------------------------------------------------------------------

 SCF Done:  E(RB2PLYPD3) =  -115.484405789     A.U. after   11 cycles
 E2(B2PLYPD3) =    -0.1528799962D+00 E(B2PLYPD3) =    -0.11563728578473D+03

 The electronic state is 1-A.
 Alpha  occ. eigenvalues --  -19.74699 -10.62907  -1.11863  -0.79650  -0.55892
 Alpha  occ. eigenvalues --   -0.52120  -0.48564  -0.40585  -0.35245
 Alpha virt. eigenvalues --    0.01468   0.07518   0.12414   0.13029   0.15047
 Alpha virt. eigenvalues --    0.17212   0.18376   0.24938   0.29485   0.33416
 Alpha virt. eigenvalues --    0.34160   0.38810   0.38882   0.42474   0.45031

 Mulliken charges:
               1
     1  C    0.093652
     2  O   -0.494000
     3  H    0.048162
     4  H    0.040877
     5  H    0.063298
     6  H    0.248010
 Sum of Mulliken charges =   0.00000

 Dipole moment (field-independent basis, Debye):
    X=              0.9887    Y=              1.7180    Z=              0.1835  Tot=              1.9906
 Quadrupole moment (field-independent basis, Debye-Ang):
   XX=            -12.8026   YY=            -11.6523   ZZ=            -14.0537
   XY=             -2.4022   XZ=             -0.0355   YZ=              0.1167

 Normal termination of Gaussian 09 at Wed Aug 26 14:35:00 2020.
