 Gaussian 09, Revision D.01,
 Gaussian 09:  ES64L-G09RevD.01 24-Apr-2013

 --------------------
 #p B2PLYPD3/Def2QZVP
 --------------------

 --------
 methanol
 --------
 Symbolic Z-matrix:
 Charge =  0 Multiplicity = 1

                         Standard orientation:
 ---------------------------------------------------------------------
 Center     Atomic      Atomic             Coordinates (Angstroms)
 Number     Number       Type             X           Y           Z
 ---------------------------------------------------------------------
      1          6           0        0.691912    0.001704   -0.003323
      2          8           0       -0.765695    0.045392    0.012285
      3          1           0        0.934075   -0.689568   -0.973172
      4          1           0        1.210850   -0.432773    1.014398
      5          1           0        0.885421    1.148609   -0.183612
      6          1           0       -1.056255   -0.399629    0.064041
 ---------------------------------------------------------------------

 SCF Done:  E(RB2PLYPD3) =  -114.949439378     A.U. after   12 cycles
 E2(B2PLYPD3) =    -0.1438167992D+00 E(B2PLYPD3) =    -0.11509325617723D+03

 The electronic state is 1-A.
 Alpha  occ. eigenvalues --  -19.68007 -10.70651  -1.31185  -0.83396  -0.61357
 Alpha  occ. eigenvalues --   -0.50734  -0.49513  -0.41070  -0.36439
 Alpha virt. eigenvalues --    0.04936   0.09212   0.11229   0.11533   0.13987
 Alpha virt. eigenvalues --    0.16137   0.17675   0.28242   0.29894   0.32837
 Alpha virt. eigenvalues --    0.34084   0.36312   0.37358   0.41565   0.42250

 Mulliken charges:
               1
     1  C    0.039269
     2  O   -0.081831
     3  H    0.055879
     4  H    0.061013
     5  H    0.096760
     6  H   -0.171089
 Sum of Mulliken charges =   0.00000

 Dipole moment (field-independent basis, Debye):
    X=              1.1086    Y=             -1.0060    Z=              0.1018  Tot=              1.5004
 Quadrupole moment (field-independent basis, Debye-Ang):
   XX=            -13.3561   YY=            -12.3876   ZZ=            -13.3138
   XY=              1.5583   XZ=              0.0994   YZ=             -0.1486

 Normal termination of Gaussian 09 at Wed Aug 26 20:11:24 2020.
