 Gaussian 09, Revision D.01,
 Gaussian 09:  ES64L-G09RevD.01 24-Apr-2013

 --------------------
 #p B2PLYPD3/Def2QZVP
 --------------------

 --------
 methanol
 --------
 Symbolic Z-matrix:
 Charge =  0 Multiplicity = 1

                         Standard orientation:
 ---------------------------------------------------------------------
 Center     Atomic      Atomic             Coordinates (Angstroms)
 Number     Number       Type             X           Y           Z
 ---------------------------------------------------------------------
      1          6           0       -0.656645    0.016442    0.003855
      2          8           0        0.742565   -0.132746   -0.004050
      3          1           0       -1.033069    0.565706   -0.872581
      4          1           0       -1.040058    0.490868    0.890372
      5          1           0       -1.066465   -0.931583   -0.033352
      6          1           0        1.138940    0.838325    0.024833
 ---------------------------------------------------------------------

 SCF Done:  E(RB2PLYPD3) =  -115.542692393     A.U. after   11 cycles
 E2(B2PLYPD3) =    -0.1486055647D+00 E(B2PLYPD3) =    -0.11569129795723D+03

 The electronic state is 1-A.
 Alpha  occ. eigenvalues --  -19.73394 -10.64646  -1.15105  -0.78541  -0.57760
 Alpha  occ. eigenvalues --   -0.51725  -0.50288  -0.41044  -0.35148
 Alpha virt. eigenvalues --    0.04268   0.07994   0.12457   0.12704   0.14933
 Alpha virt. eigenvalues --    0.17386   0.18311   0.29028   0.31681   0.33369
 Alpha virt. eigenvalues --    0.34519   0.38818   0.40504   0.41170   0.43812

 Mulliken charges:
               1
     1  C    0.070968
     2  O   -0.471932
     3  H    0.041059
     4  H    0.044929
     5  H    0.069284
     6  H    0.245691
 Sum of Mulliken charges =   0.00000

 Dipole moment (field-independent basis, Debye):
    X=             -0.8587    Y=              1.5407    Z=              0.0677  Tot=              1.7651
 Quadrupole moment (field-independent basis, Debye-Ang):
   XX=            -13.0607   YY=            -12.0832   ZZ=            -13.8452
   XY=              2.3606   XZ=              0.0339   YZ=              0.0560

 Normal termination of Gaussian 09 at Thu Aug 27 00:13:08 2020.
