 Gaussian 09, Revision D.01,
 Gaussian 09:  ES64L-G09RevD.01 24-Apr-2013

 --------------------
 #p B2PLYPD3/Def2QZVP
 --------------------

 --------
 methanol
 --------
 Symbolic Z-matrix:
 Charge =  0 Multiplicity = 1

                         Standard orientation:
 ---------------------------------------------------------------------
 Center     Atomic      Atomic             Coordinates (Angstroms)
 Number     Number       Type             X           Y           Z
 ---------------------------------------------------------------------
      1          6           0       -0.668240   -0.018155   -0.002518
      2          8           0        0.743187    0.110173   -0.000967
      3          1           0       -1.034226   -0.539871    0.901956
      4          1           0       -0.992716   -0.587182   -0.887908
      5          1           0       -1.068908    1.023170   -0.016530
      6          1           0        1.159794   -0.668569    0.025325
 ---------------------------------------------------------------------

 SCF Done:  E(RB2PLYPD3) =  -115.546557957     A.U. after   10 cycles
 E2(B2PLYPD3) =    -0.1459523694D+00 E(B2PLYPD3) =    -0.11569251032623D+03

 The electronic state is 1-A.
 Alpha  occ. eigenvalues --  -19.71567 -10.66331  -1.17705  -0.79224  -0.59805
 Alpha  occ. eigenvalues --   -0.51685  -0.49950  -0.40839  -0.35358
 Alpha virt. eigenvalues --    0.05271   0.08553   0.12227   0.12335   0.14873
 Alpha virt. eigenvalues --    0.17056   0.17836   0.29174   0.33096   0.33564
 Alpha virt. eigenvalues --    0.37246   0.38746   0.39659   0.40495   0.43157

 Mulliken charges:
               1
     1  C    0.069703
     2  O   -0.429534
     3  H    0.047357
     4  H    0.049054
     5  H    0.074658
     6  H    0.188762
 Sum of Mulliken charges =   0.00000

 Dipole moment (field-independent basis, Debye):
    X=             -0.8160    Y=             -1.4277    Z=              0.0449  Tot=              1.6451
 Quadrupole moment (field-independent basis, Debye-Ang):
   XX=            -12.9333   YY=            -12.3140   ZZ=            -13.7621
   XY=             -2.1840   XZ=              0.0337   YZ=             -0.0167

 Normal termination of Gaussian 09 at Wed Aug 26 15:15:17 2020.
