 Gaussian 09, Revision D.01,
 Gaussian 09:  ES64L-G09RevD.01 24-Apr-2013

 --------------------
 #p B2PLYPD3/Def2QZVP
 --------------------

 --------
 methanol
 --------
 Symbolic Z-matrix:
 Charge =  0 Multiplicity = 1

                         Standard orientation:
 ---------------------------------------------------------------------
 Center     Atomic      Atomic             Coordinates (Angstroms)
 Number     Number       Type             X           Y           Z
 ---------------------------------------------------------------------
      1          6           0        0.662498    0.026953    0.016450
      2          8           0       -0.735417   -0.141589   -0.011075
      3          1           0        0.945672    0.470854    0.887844
      4          1           0        1.043869    0.543626   -0.878397
      5          1           0        1.056731   -0.912391   -0.034385
      6          1           0       -1.137922    0.868907    0.014842
 ---------------------------------------------------------------------

 SCF Done:  E(RB2PLYPD3) =  -115.531080020     A.U. after   11 cycles
 E2(B2PLYPD3) =    -0.1491231614D+00 E(B2PLYPD3) =    -0.11568020318171D+03

 The electronic state is 1-A.
 Alpha  occ. eigenvalues --  -19.73342 -10.63751  -1.14453  -0.78793  -0.57220
 Alpha  occ. eigenvalues --   -0.52936  -0.49849  -0.40736  -0.35168
 Alpha virt. eigenvalues --    0.03929   0.08041   0.12403   0.12795   0.14735
 Alpha virt. eigenvalues --    0.17355   0.18369   0.28858   0.30544   0.33294
 Alpha virt. eigenvalues --    0.34469   0.38833   0.40791   0.42188   0.44118

 Mulliken charges:
               1
     1  C    0.077073
     2  O   -0.481951
     3  H    0.050082
     4  H    0.041385
     5  H    0.065759
     6  H    0.247653
 Sum of Mulliken charges =   0.00000

 Dipole moment (field-independent basis, Debye):
    X=              0.9060    Y=              1.5685    Z=              0.1071  Tot=              1.8145
 Quadrupole moment (field-independent basis, Debye-Ang):
   XX=            -13.1549   YY=            -12.0306   ZZ=            -13.6733
   XY=             -2.3966   XZ=             -0.0657   YZ=              0.1031

 Normal termination of Gaussian 09 at Wed Aug 26 15:48:07 2020.
