 Gaussian 09, Revision D.01,
 Gaussian 09:  ES64L-G09RevD.01 24-Apr-2013

 --------------------
 #p B2PLYPD3/Def2QZVP
 --------------------

 --------
 methanol
 --------
 Symbolic Z-matrix:
 Charge =  0 Multiplicity = 1

                         Standard orientation:
 ---------------------------------------------------------------------
 Center     Atomic      Atomic             Coordinates (Angstroms)
 Number     Number       Type             X           Y           Z
 ---------------------------------------------------------------------
      1          6           0       -0.666566   -0.016102    0.008292
      2          8           0        0.758936    0.094554   -0.019085
      3          1           0       -0.999023   -0.457066    0.974035
      4          1           0       -1.098196   -0.632892   -0.891228
      5          1           0       -1.078473    1.037931   -0.055530
      6          1           0        1.103603   -0.607794    0.075648
 ---------------------------------------------------------------------

 SCF Done:  E(RB2PLYPD3) =  -115.507308821     A.U. after   10 cycles
 E2(B2PLYPD3) =    -0.1451242739D+00 E(B2PLYPD3) =    -0.11565243309480D+03

 The electronic state is 1-A.
 Alpha  occ. eigenvalues --  -19.70962 -10.67651  -1.20632  -0.79790  -0.60611
 Alpha  occ. eigenvalues --   -0.51271  -0.49927  -0.41161  -0.35916
 Alpha virt. eigenvalues --    0.05384   0.08756   0.11949   0.12146   0.14594
 Alpha virt. eigenvalues --    0.17091   0.18014   0.28828   0.32573   0.33097
 Alpha virt. eigenvalues --    0.36808   0.38555   0.39537   0.40006   0.42842

 Mulliken charges:
               1
     1  C    0.057960
     2  O   -0.343100
     3  H    0.054142
     4  H    0.047445
     5  H    0.075343
     6  H    0.108209
 Sum of Mulliken charges =   0.00000

 Dipole moment (field-independent basis, Debye):
    X=             -0.9323    Y=             -1.2983    Z=              0.2448  Tot=              1.6170
 Quadrupole moment (field-independent basis, Debye-Ang):
   XX=            -13.0927   YY=            -12.5025   ZZ=            -13.6355
   XY=             -2.0386   XZ=              0.2630   YZ=             -0.1378

 Normal termination of Gaussian 09 at Thu Aug 27 00:13:59 2020.
