 Gaussian 09, Revision D.01,
 Gaussian 09:  ES64L-G09RevD.01 24-Apr-2013

 --------------------
 #p B2PLYPD3/Def2QZVP
 --------------------

 --------
 methanol
 --------
 Symbolic Z-matrix:
 Charge =  0 Multiplicity = 1

                         Standard orientation:
 ---------------------------------------------------------------------
 Center     Atomic      Atomic             Coordinates (Angstroms)
 Number     Number       Type             X           Y           Z
 ---------------------------------------------------------------------
      1          6           0        0.659071    0.018576    0.003635
      2          8           0       -0.748745   -0.130228   -0.015345
      3          1           0        0.988385    0.436862    0.920234
      4          1           0        1.054391    0.620661   -0.839737
      5          1           0        1.098623   -0.943684   -0.048904
      6          1           0       -1.105862    0.816532    0.069359
 ---------------------------------------------------------------------

 SCF Done:  E(RB2PLYPD3) =  -115.547333025     A.U. after   10 cycles
 E2(B2PLYPD3) =    -0.1481817793D+00 E(B2PLYPD3) =    -0.11569551480476D+03

 The electronic state is 1-A.
 Alpha  occ. eigenvalues --  -19.73159 -10.64972  -1.15461  -0.78570  -0.57951
 Alpha  occ. eigenvalues --   -0.51965  -0.50040  -0.41187  -0.35336
 Alpha virt. eigenvalues --    0.04555   0.08092   0.12343   0.12647   0.14780
 Alpha virt. eigenvalues --    0.17538   0.18240   0.29069   0.32441   0.33316
 Alpha virt. eigenvalues --    0.34296   0.38944   0.40359   0.41105   0.44112

 Mulliken charges:
               1
     1  C    0.072072
     2  O   -0.467618
     3  H    0.047102
     4  H    0.042604
     5  H    0.067251
     6  H    0.238590
 Sum of Mulliken charges =   0.00000

 Dipole moment (field-independent basis, Debye):
    X=              0.9340    Y=              1.5345    Z=              0.1900  Tot=              1.8064
 Quadrupole moment (field-independent basis, Debye-Ang):
   XX=            -13.1816   YY=            -12.1179   ZZ=            -13.7879
   XY=             -2.2950   XZ=             -0.1842   YZ=              0.1041

 Normal termination of Gaussian 09 at Wed Aug 26 10:17:01 2020.
