 Gaussian 09, Revision D.01,
 Gaussian 09:  ES64L-G09RevD.01 24-Apr-2013

 --------------------
 #p B2PLYPD3/Def2QZVP
 --------------------

 --------
 methanol
 --------
 Symbolic Z-matrix:
 Charge =  0 Multiplicity = 1

                         Standard orientation:
 ---------------------------------------------------------------------
 Center     Atomic      Atomic             Coordinates (Angstroms)
 Number     Number       Type             X           Y           Z
 ---------------------------------------------------------------------
      1          6           0        0.672194   -0.038678    0.013984
      2          8           0       -0.768491    0.078503   -0.013378
      3          1           0        0.937875   -0.891091   -0.717810
      4          1           0        1.074179   -0.133833    0.981927
      5          1           0        1.029578    1.125047   -0.380060
      6          1           0       -0.926867   -0.496075    0.139067
 ---------------------------------------------------------------------

 SCF Done:  E(RB2PLYPD3) =  -115.243129972     A.U. after   11 cycles
 E2(B2PLYPD3) =    -0.1439315325D+00 E(B2PLYPD3) =    -0.11538706150477D+03

 The electronic state is 1-A.
 Alpha  occ. eigenvalues --  -19.69044 -10.68593  -1.29026  -0.80774  -0.62439
 Alpha  occ. eigenvalues --   -0.53482  -0.48351  -0.41678  -0.37187
 Alpha virt. eigenvalues --    0.04975   0.09301   0.10786   0.11949   0.14521
 Alpha virt. eigenvalues --    0.16834   0.17882   0.28030   0.30071   0.33225
 Alpha virt. eigenvalues --    0.33856   0.37607   0.40415   0.42049   0.43449

 Mulliken charges:
               1
     1  C    0.048048
     2  O   -0.182883
     3  H    0.059717
     4  H    0.072195
     5  H    0.055747
     6  H   -0.052824
 Sum of Mulliken charges =   0.00000

 Dipole moment (field-independent basis, Debye):
    X=              1.2386    Y=             -1.2722    Z=              0.4245  Tot=              1.8256
 Quadrupole moment (field-independent basis, Debye-Ang):
   XX=            -13.8248   YY=            -12.2621   ZZ=            -13.3392
   XY=              1.4947   XZ=             -0.1281   YZ=             -0.1100

 Normal termination of Gaussian 09 at Wed Aug 26 22:23:08 2020.
