 Gaussian 09, Revision D.01,
 Gaussian 09:  ES64L-G09RevD.01 24-Apr-2013

 --------------------
 #p B2PLYPD3/Def2QZVP
 --------------------

 --------
 methanol
 --------
 Symbolic Z-matrix:
 Charge =  0 Multiplicity = 1

                         Standard orientation:
 ---------------------------------------------------------------------
 Center     Atomic      Atomic             Coordinates (Angstroms)
 Number     Number       Type             X           Y           Z
 ---------------------------------------------------------------------
      1          6           0       -0.659418   -0.024187   -0.004666
      2          8           0        0.743705    0.105136   -0.005674
      3          1           0       -1.031616   -0.493594    0.946293
      4          1           0       -0.971847   -0.626012   -0.891232
      5          1           0       -1.122840    1.027856   -0.046363
      6          1           0        1.133170   -0.604223    0.064690
 ---------------------------------------------------------------------

 SCF Done:  E(RB2PLYPD3) =  -115.521967276     A.U. after   10 cycles
 E2(B2PLYPD3) =    -0.1449854337D+00 E(B2PLYPD3) =    -0.11566695270972D+03

 The electronic state is 1-A.
 Alpha  occ. eigenvalues --  -19.70983 -10.67143  -1.20141  -0.79779  -0.60689
 Alpha  occ. eigenvalues --   -0.52070  -0.50031  -0.40480  -0.35670
 Alpha virt. eigenvalues --    0.05387   0.08801   0.12135   0.12198   0.14602
 Alpha virt. eigenvalues --    0.17223   0.17874   0.28952   0.32904   0.33644
 Alpha virt. eigenvalues --    0.36960   0.38807   0.39740   0.40379   0.43092

 Mulliken charges:
               1
     1  C    0.063050
     2  O   -0.366309
     3  H    0.047307
     4  H    0.051411
     5  H    0.071387
     6  H    0.133154
 Sum of Mulliken charges =   0.00000

 Dipole moment (field-independent basis, Debye):
    X=             -0.8137    Y=             -1.3548    Z=              0.1316  Tot=              1.5859
 Quadrupole moment (field-independent basis, Debye-Ang):
   XX=            -12.9655   YY=            -12.5279   ZZ=            -13.6512
   XY=             -2.1360   XZ=              0.1373   YZ=             -0.0433

 Normal termination of Gaussian 09 at Wed Aug 26 21:25:47 2020.
