 Gaussian 09, Revision D.01,
 Gaussian 09:  ES64L-G09RevD.01 24-Apr-2013

 --------------------
 #p B2PLYPD3/Def2QZVP
 --------------------

 --------
 methanol
 --------
 Symbolic Z-matrix:
 Charge =  0 Multiplicity = 1

                         Standard orientation:
 ---------------------------------------------------------------------
 Center     Atomic      Atomic             Coordinates (Angstroms)
 Number     Number       Type             X           Y           Z
 ---------------------------------------------------------------------
      1          6           0       -0.687976    0.019514    0.010771
      2          8           0        0.744309   -0.163968   -0.012423
      3          1           0       -1.069912    0.578748   -0.791340
      4          1           0       -0.951600    0.521968    0.797476
      5          1           0       -1.051536   -0.894578    0.002190
      6          1           0        1.246430    0.988527    0.026436
 ---------------------------------------------------------------------

 SCF Done:  E(RB2PLYPD3) =  -115.480504888     A.U. after   11 cycles
 E2(B2PLYPD3) =    -0.1526528229D+00 E(B2PLYPD3) =    -0.11563315771105D+03

 The electronic state is 1-A.
 Alpha  occ. eigenvalues --  -19.74257 -10.62446  -1.11434  -0.79825  -0.56507
 Alpha  occ. eigenvalues --   -0.51965  -0.48777  -0.40748  -0.34921
 Alpha virt. eigenvalues --    0.01554   0.07617   0.12547   0.12986   0.14884
 Alpha virt. eigenvalues --    0.17237   0.18010   0.25193   0.29566   0.33120
 Alpha virt. eigenvalues --    0.33751   0.38873   0.40129   0.42069   0.44980

 Mulliken charges:
               1
     1  C    0.098652
     2  O   -0.507317
     3  H    0.041973
     4  H    0.047054
     5  H    0.072276
     6  H    0.247362
 Sum of Mulliken charges =   0.00000

 Dipole moment (field-independent basis, Debye):
    X=             -1.0168    Y=              1.7016    Z=              0.1253  Tot=              1.9862
 Quadrupole moment (field-independent basis, Debye-Ang):
   XX=            -12.7876   YY=            -11.5664   ZZ=            -13.9974
   XY=              2.4827   XZ=              0.0820   YZ=              0.0891

 Normal termination of Gaussian 09 at Wed Aug 26 14:01:06 2020.
