 Gaussian 09, Revision D.01,
 Gaussian 09:  ES64L-G09RevD.01 24-Apr-2013

 --------------------
 #p B2PLYPD3/Def2QZVP
 --------------------

 --------
 methanol
 --------
 Symbolic Z-matrix:
 Charge =  0 Multiplicity = 1

                         Standard orientation:
 ---------------------------------------------------------------------
 Center     Atomic      Atomic             Coordinates (Angstroms)
 Number     Number       Type             X           Y           Z
 ---------------------------------------------------------------------
      1          6           0       -0.682095    0.010893    0.004528
      2          8           0        0.757315   -0.139547   -0.024476
      3          1           0       -1.081971    0.668253   -0.820487
      4          1           0       -1.015671    0.391745    0.923862
      5          1           0       -1.095056   -0.870857   -0.059157
      6          1           0        1.226744    0.861880    0.124423
 ---------------------------------------------------------------------

 SCF Done:  E(RB2PLYPD3) =  -115.520611551     A.U. after   11 cycles
 E2(B2PLYPD3) =    -0.1502053780D+00 E(B2PLYPD3) =    -0.11567081692890D+03

 The electronic state is 1-A.
 Alpha  occ. eigenvalues --  -19.73682 -10.64319  -1.12606  -0.79359  -0.56013
 Alpha  occ. eigenvalues --   -0.51097  -0.50381  -0.40793  -0.35104
 Alpha virt. eigenvalues --    0.03634   0.07606   0.12393   0.12929   0.14685
 Alpha virt. eigenvalues --    0.17375   0.18426   0.28645   0.29864   0.32860
 Alpha virt. eigenvalues --    0.33411   0.38418   0.40537   0.41323   0.43370

 Mulliken charges:
               1
     1  C    0.079769
     2  O   -0.501585
     3  H    0.043513
     4  H    0.048081
     5  H    0.075318
     6  H    0.254904
 Sum of Mulliken charges =   0.00000

 Dipole moment (field-independent basis, Debye):
    X=             -0.9274    Y=              1.5239    Z=              0.3151  Tot=              1.8115
 Quadrupole moment (field-independent basis, Debye-Ang):
   XX=            -12.6645   YY=            -12.1133   ZZ=            -13.8575
   XY=              2.5663   XZ=              0.2976   YZ=              0.1754

 Normal termination of Gaussian 09 at Wed Aug 26 14:01:01 2020.
