 Gaussian 09, Revision D.01,
 Gaussian 09:  ES64L-G09RevD.01 24-Apr-2013

 --------------------
 #p B2PLYPD3/Def2QZVP
 --------------------

 --------
 methanol
 --------
 Symbolic Z-matrix:
 Charge =  0 Multiplicity = 1

                         Standard orientation:
 ---------------------------------------------------------------------
 Center     Atomic      Atomic             Coordinates (Angstroms)
 Number     Number       Type             X           Y           Z
 ---------------------------------------------------------------------
      1          6           0       -0.645090   -0.009342    0.005375
      2          8           0        0.726714   -0.138550   -0.024534
      3          1           0       -1.055192    0.624523   -0.841497
      4          1           0       -0.915484    0.439847    0.908081
      5          1           0       -0.997589   -0.854507   -0.003434
      6          1           0        1.025097    0.954591    0.100871
 ---------------------------------------------------------------------

 SCF Done:  E(RB2PLYPD3) =  -115.496486308     A.U. after   11 cycles
 E2(B2PLYPD3) =    -0.1498901044D+00 E(B2PLYPD3) =    -0.11564637641241D+03

 The electronic state is 1-A.
 Alpha  occ. eigenvalues --  -19.73815 -10.62960  -1.15348  -0.79136  -0.57976
 Alpha  occ. eigenvalues --   -0.52108  -0.51057  -0.41456  -0.34496
 Alpha virt. eigenvalues --    0.02999   0.08126   0.12301   0.12939   0.14891
 Alpha virt. eigenvalues --    0.17502   0.18157   0.27925   0.29550   0.32687
 Alpha virt. eigenvalues --    0.35300   0.38638   0.40622   0.42816   0.43956

 Mulliken charges:
               1
     1  C    0.065424
     2  O   -0.465236
     3  H    0.030423
     4  H    0.034953
     5  H    0.081689
     6  H    0.252747
 Sum of Mulliken charges =   0.00000

 Dipole moment (field-independent basis, Debye):
    X=             -0.9541    Y=              1.5329    Z=              0.2915  Tot=              1.8290
 Quadrupole moment (field-independent basis, Debye-Ang):
   XX=            -13.7120   YY=            -11.5918   ZZ=            -13.7921
   XY=              2.2934   XZ=              0.2139   YZ=              0.1775

 Normal termination of Gaussian 09 at Wed Aug 26 19:14:26 2020.
