 Gaussian 09, Revision D.01,
 Gaussian 09:  ES64L-G09RevD.01 24-Apr-2013

 --------------------
 #p B2PLYPD3/Def2QZVP
 --------------------

 --------
 methanol
 --------
 Symbolic Z-matrix:
 Charge =  0 Multiplicity = 1

                         Standard orientation:
 ---------------------------------------------------------------------
 Center     Atomic      Atomic             Coordinates (Angstroms)
 Number     Number       Type             X           Y           Z
 ---------------------------------------------------------------------
      1          6           0        0.693366    0.002796    0.007283
      2          8           0       -0.759100    0.093699   -0.017428
      3          1           0        1.036486   -0.719742   -0.860948
      4          1           0        1.026241   -0.405317    0.994369
      5          1           0        1.013117    0.981727   -0.141561
      6          1           0       -1.163240   -0.623035    0.103862
 ---------------------------------------------------------------------

 SCF Done:  E(RB2PLYPD3) =  -115.525305795     A.U. after   10 cycles
 E2(B2PLYPD3) =    -0.1456756866D+00 E(B2PLYPD3) =    -0.11567098148187D+03

 The electronic state is 1-A.
 Alpha  occ. eigenvalues --  -19.70754 -10.67033  -1.17881  -0.80136  -0.59269
 Alpha  occ. eigenvalues --   -0.51021  -0.50553  -0.41113  -0.35354
 Alpha virt. eigenvalues --    0.05368   0.08624   0.11859   0.12434   0.14481
 Alpha virt. eigenvalues --    0.16807   0.17766   0.29013   0.31602   0.33005
 Alpha virt. eigenvalues --    0.36814   0.39139   0.39577   0.40710   0.43297

 Mulliken charges:
               1
     1  C    0.070866
     2  O   -0.408988
     3  H    0.044973
     4  H    0.054185
     5  H    0.089802
     6  H    0.149162
 Sum of Mulliken charges =   0.00000

 Dipole moment (field-independent basis, Debye):
    X=              0.9662    Y=             -1.2654    Z=              0.2772  Tot=              1.6160
 Quadrupole moment (field-independent basis, Debye-Ang):
   XX=            -12.9740   YY=            -12.3609   ZZ=            -13.6247
   XY=              2.1693   XZ=             -0.2850   YZ=             -0.2135

 Normal termination of Gaussian 09 at Wed Aug 26 14:54:13 2020.
