 Gaussian 09, Revision D.01,
 Gaussian 09:  ES64L-G09RevD.01 24-Apr-2013

 --------------------
 #p B2PLYPD3/Def2QZVP
 --------------------

 --------
 methanol
 --------
 Symbolic Z-matrix:
 Charge =  0 Multiplicity = 1

                         Standard orientation:
 ---------------------------------------------------------------------
 Center     Atomic      Atomic             Coordinates (Angstroms)
 Number     Number       Type             X           Y           Z
 ---------------------------------------------------------------------
      1          6           0        0.658048    0.005629   -0.003750
      2          8           0       -0.751227    0.071358   -0.019931
      3          1           0        1.080177   -0.905600   -0.711168
      4          1           0        1.084562   -0.199319    1.102119
      5          1           0        1.055056    0.985155   -0.349786
      6          1           0       -1.158270   -0.484870    0.140784
 ---------------------------------------------------------------------

 SCF Done:  E(RB2PLYPD3) =  -115.422526832     A.U. after   11 cycles
 E2(B2PLYPD3) =    -0.1443683125D+00 E(B2PLYPD3) =    -0.11556689514478D+03

 The electronic state is 1-A.
 Alpha  occ. eigenvalues --  -19.70079 -10.69284  -1.23702  -0.81766  -0.61418
 Alpha  occ. eigenvalues --   -0.51327  -0.50153  -0.40355  -0.35440
 Alpha virt. eigenvalues --    0.05279   0.08961   0.11552   0.12138   0.14537
 Alpha virt. eigenvalues --    0.16860   0.17802   0.28741   0.32264   0.32976
 Alpha virt. eigenvalues --    0.35539   0.37488   0.38800   0.40880   0.41897

 Mulliken charges:
               1
     1  C    0.051189
     2  O   -0.249036
     3  H    0.036137
     4  H    0.042717
     5  H    0.093680
     6  H    0.025312
 Sum of Mulliken charges =   0.00000

 Dipole moment (field-independent basis, Debye):
    X=              0.7418    Y=             -1.0267    Z=              0.3115  Tot=              1.3044
 Quadrupole moment (field-independent basis, Debye-Ang):
   XX=            -12.8149   YY=            -12.7292   ZZ=            -13.7287
   XY=              1.9620   XZ=             -0.5478   YZ=             -0.2846

 Normal termination of Gaussian 09 at Wed Aug 26 13:51:37 2020.
