 Gaussian 09, Revision D.01,
 Gaussian 09:  ES64L-G09RevD.01 24-Apr-2013

 --------------------
 #p B2PLYPD3/Def2QZVP
 --------------------

 --------
 methanol
 --------
 Symbolic Z-matrix:
 Charge =  0 Multiplicity = 1

                         Standard orientation:
 ---------------------------------------------------------------------
 Center     Atomic      Atomic             Coordinates (Angstroms)
 Number     Number       Type             X           Y           Z
 ---------------------------------------------------------------------
      1          6           0        0.659965   -0.010070    0.010732
      2          8           0       -0.751867    0.114399   -0.016832
      3          1           0        1.047393   -0.685893   -0.843733
      4          1           0        1.009165   -0.409037    0.954055
      5          1           0        1.111095    0.956260   -0.120249
      6          1           0       -1.112504   -0.716104    0.080190
 ---------------------------------------------------------------------

 SCF Done:  E(RB2PLYPD3) =  -115.548845636     A.U. after   10 cycles
 E2(B2PLYPD3) =    -0.1465287907D+00 E(B2PLYPD3) =    -0.11569537442698D+03

 The electronic state is 1-A.
 Alpha  occ. eigenvalues --  -19.72273 -10.66144  -1.17460  -0.78981  -0.59323
 Alpha  occ. eigenvalues --   -0.51424  -0.50532  -0.41220  -0.35403
 Alpha virt. eigenvalues --    0.05143   0.08378   0.12163   0.12558   0.14721
 Alpha virt. eigenvalues --    0.17499   0.18049   0.29049   0.33055   0.33404
 Alpha virt. eigenvalues --    0.35902   0.38729   0.40019   0.40617   0.44077

 Mulliken charges:
               1
     1  C    0.068305
     2  O   -0.435072
     3  H    0.037185
     4  H    0.050110
     5  H    0.074218
     6  H    0.205255
 Sum of Mulliken charges =   0.00000

 Dipole moment (field-independent basis, Debye):
    X=              0.8944    Y=             -1.4044    Z=              0.2366  Tot=              1.6817
 Quadrupole moment (field-independent basis, Debye-Ang):
   XX=            -13.0719   YY=            -12.3407   ZZ=            -13.7587
   XY=              2.2668   XZ=             -0.2039   YZ=             -0.1778

 Normal termination of Gaussian 09 at Thu Aug 27 00:05:11 2020.
