 Gaussian 09, Revision D.01,
 Gaussian 09:  ES64L-G09RevD.01 24-Apr-2013

 --------------------
 #p B2PLYPD3/Def2QZVP
 --------------------

 --------
 methanol
 --------
 Symbolic Z-matrix:
 Charge =  0 Multiplicity = 1

                         Standard orientation:
 ---------------------------------------------------------------------
 Center     Atomic      Atomic             Coordinates (Angstroms)
 Number     Number       Type             X           Y           Z
 ---------------------------------------------------------------------
      1          6           0       -0.663884   -0.029490   -0.004341
      2          8           0        0.737200    0.138367   -0.001829
      3          1           0       -1.009040   -0.486261    0.883328
      4          1           0       -1.003158   -0.603013   -0.811830
      5          1           0       -1.091637    0.972544   -0.046940
      6          1           0        1.189534   -0.813269    0.016119
 ---------------------------------------------------------------------

 SCF Done:  E(RB2PLYPD3) =  -115.542406396     A.U. after   11 cycles
 E2(B2PLYPD3) =    -0.1485117474D+00 E(B2PLYPD3) =    -0.11569091814372D+03

 The electronic state is 1-A.
 Alpha  occ. eigenvalues --  -19.73107 -10.64483  -1.14643  -0.78556  -0.57888
 Alpha  occ. eigenvalues --   -0.52310  -0.49528  -0.40685  -0.35139
 Alpha virt. eigenvalues --    0.04277   0.07986   0.12426   0.12700   0.15027
 Alpha virt. eigenvalues --    0.17282   0.18095   0.29199   0.31716   0.33418
 Alpha virt. eigenvalues --    0.34325   0.38872   0.39772   0.42064   0.44407

 Mulliken charges:
               1
     1  C    0.078538
     2  O   -0.482239
     3  H    0.046691
     4  H    0.046181
     5  H    0.066197
     6  H    0.244632
 Sum of Mulliken charges =   0.00000

 Dipole moment (field-independent basis, Debye):
    X=             -0.8159    Y=             -1.6141    Z=              0.0251  Tot=              1.8088
 Quadrupole moment (field-independent basis, Debye-Ang):
   XX=            -12.8642   YY=            -12.0788   ZZ=            -13.8630
   XY=             -2.3471   XZ=              0.0489   YZ=              0.0079

 Normal termination of Gaussian 09 at Thu Aug 27 00:15:12 2020.
