 Gaussian 09, Revision D.01,
 Gaussian 09:  ES64L-G09RevD.01 24-Apr-2013

 --------------------
 #p B2PLYPD3/Def2QZVP
 --------------------

 --------
 methanol
 --------
 Symbolic Z-matrix:
 Charge =  0 Multiplicity = 1

                         Standard orientation:
 ---------------------------------------------------------------------
 Center     Atomic      Atomic             Coordinates (Angstroms)
 Number     Number       Type             X           Y           Z
 ---------------------------------------------------------------------
      1          6           0       -0.660174   -0.023312   -0.013863
      2          8           0        0.740090    0.085975   -0.002528
      3          1           0       -0.998931   -0.492511    1.016007
      4          1           0       -0.947629   -0.653330   -0.900747
      5          1           0       -1.112451    1.071432   -0.060784
      6          1           0        1.099337   -0.473519    0.048921
 ---------------------------------------------------------------------

 SCF Done:  E(RB2PLYPD3) =  -115.368070248     A.U. after   11 cycles
 E2(B2PLYPD3) =    -0.1434170095D+00 E(B2PLYPD3) =    -0.11551148725786D+03

 The electronic state is 1-A.
 Alpha  occ. eigenvalues --  -19.69087 -10.68591  -1.25666  -0.82145  -0.61750
 Alpha  occ. eigenvalues --   -0.52293  -0.50335  -0.40170  -0.35936
 Alpha virt. eigenvalues --    0.05316   0.09452   0.11758   0.11882   0.14243
 Alpha virt. eigenvalues --    0.16919   0.17582   0.28575   0.32621   0.33084
 Alpha virt. eigenvalues --    0.36018   0.37968   0.39603   0.40770   0.43003

 Mulliken charges:
               1
     1  C    0.056647
     2  O   -0.220517
     3  H    0.042964
     4  H    0.056607
     5  H    0.077777
     6  H   -0.013478
 Sum of Mulliken charges =   0.00000

 Dipole moment (field-independent basis, Debye):
    X=             -0.8410    Y=             -1.1798    Z=              0.0548  Tot=              1.4499
 Quadrupole moment (field-independent basis, Debye-Ang):
   XX=            -13.1073   YY=            -12.6089   ZZ=            -13.4599
   XY=             -1.9703   XZ=              0.1802   YZ=              0.0369

 Normal termination of Gaussian 09 at Wed Aug 26 14:20:01 2020.
