 Gaussian 09, Revision D.01,
 Gaussian 09:  ES64L-G09RevD.01 24-Apr-2013

 --------------------
 #p B2PLYPD3/Def2QZVP
 --------------------

 --------
 methanol
 --------
 Symbolic Z-matrix:
 Charge =  0 Multiplicity = 1

                         Standard orientation:
 ---------------------------------------------------------------------
 Center     Atomic      Atomic             Coordinates (Angstroms)
 Number     Number       Type             X           Y           Z
 ---------------------------------------------------------------------
      1          6           0        0.671225    0.002917   -0.005479
      2          8           0       -0.781009    0.077818    0.005961
      3          1           0        1.178636   -0.530388   -0.898843
      4          1           0        1.032024   -0.641368    0.926962
      5          1           0        1.071061    1.090803    0.054649
      6          1           0       -1.060995   -0.559092   -0.097588
 ---------------------------------------------------------------------

 SCF Done:  E(RB2PLYPD3) =  -115.420868377     A.U. after   11 cycles
 E2(B2PLYPD3) =    -0.1448514738D+00 E(B2PLYPD3) =    -0.11556571985087D+03

 The electronic state is 1-A.
 Alpha  occ. eigenvalues --  -19.70376 -10.69019  -1.23794  -0.80192  -0.61597
 Alpha  occ. eigenvalues --   -0.50320  -0.49274  -0.42335  -0.36016
 Alpha virt. eigenvalues --    0.05249   0.08741   0.11684   0.11821   0.14844
 Alpha virt. eigenvalues --    0.17039   0.17713   0.28789   0.30699   0.33296
 Alpha virt. eigenvalues --    0.36445   0.37360   0.37889   0.40387   0.41931

 Mulliken charges:
               1
     1  C    0.052407
     2  O   -0.260247
     3  H    0.051219
     4  H    0.046022
     5  H    0.082673
     6  H    0.027926
 Sum of Mulliken charges =   0.00000

 Dipole moment (field-independent basis, Debye):
    X=              1.0953    Y=             -1.2282    Z=             -0.2425  Tot=              1.6634
 Quadrupole moment (field-independent basis, Debye-Ang):
   XX=            -13.1596   YY=            -12.3450   ZZ=            -13.8517
   XY=              1.8346   XZ=              0.1030   YZ=              0.1747

 Normal termination of Gaussian 09 at Wed Aug 26 21:13:58 2020.
