 Gaussian 09, Revision D.01,
 Gaussian 09:  ES64L-G09RevD.01 24-Apr-2013

 --------------------
 #p B2PLYPD3/Def2QZVP
 --------------------

 --------
 methanol
 --------
 Symbolic Z-matrix:
 Charge =  0 Multiplicity = 1

                         Standard orientation:
 ---------------------------------------------------------------------
 Center     Atomic      Atomic             Coordinates (Angstroms)
 Number     Number       Type             X           Y           Z
 ---------------------------------------------------------------------
      1          6           0        0.663950   -0.021391    0.001452
      2          8           0       -0.747777    0.112750   -0.011310
      3          1           0        1.071917   -0.630362   -0.846697
      4          1           0        1.027412   -0.465454    0.928951
      5          1           0        1.079780    1.014856   -0.053463
      6          1           0       -1.180597   -0.692695    0.052975
 ---------------------------------------------------------------------

 SCF Done:  E(RB2PLYPD3) =  -115.550182035     A.U. after   10 cycles
 E2(B2PLYPD3) =    -0.1466390399D+00 E(B2PLYPD3) =    -0.11569682107496D+03

 The electronic state is 1-A.
 Alpha  occ. eigenvalues --  -19.72177 -10.66346  -1.16972  -0.78883  -0.59518
 Alpha  occ. eigenvalues --   -0.51356  -0.49776  -0.40703  -0.35445
 Alpha virt. eigenvalues --    0.05182   0.08256   0.12249   0.12431   0.14945
 Alpha virt. eigenvalues --    0.17098   0.18135   0.29117   0.33334   0.33646
 Alpha virt. eigenvalues --    0.36265   0.38510   0.39445   0.40434   0.43125

 Mulliken charges:
               1
     1  C    0.066155
     2  O   -0.443048
     3  H    0.047260
     4  H    0.050357
     5  H    0.071239
     6  H    0.208037
 Sum of Mulliken charges =   0.00000

 Dipole moment (field-independent basis, Debye):
    X=              0.7853    Y=             -1.4474    Z=              0.1500  Tot=              1.6536
 Quadrupole moment (field-independent basis, Debye-Ang):
   XX=            -12.7848   YY=            -12.3856   ZZ=            -13.8350
   XY=              2.2090   XZ=             -0.1627   YZ=             -0.0703

 Normal termination of Gaussian 09 at Thu Aug 27 00:02:38 2020.
