 Gaussian 09, Revision D.01,
 Gaussian 09:  ES64L-G09RevD.01 24-Apr-2013

 --------------------
 #p B2PLYPD3/Def2QZVP
 --------------------

 --------
 methanol
 --------
 Symbolic Z-matrix:
 Charge =  0 Multiplicity = 1

                         Standard orientation:
 ---------------------------------------------------------------------
 Center     Atomic      Atomic             Coordinates (Angstroms)
 Number     Number       Type             X           Y           Z
 ---------------------------------------------------------------------
      1          6           0        0.682785    0.029318   -0.013108
      2          8           0       -0.726978   -0.205925    0.011272
      3          1           0        1.032260    0.486193    0.808290
      4          1           0        0.829533    0.644943   -0.706168
      5          1           0        1.177516   -0.762810   -0.111843
      6          1           0       -1.320193    1.103163   -0.001800
 ---------------------------------------------------------------------

 SCF Done:  E(RB2PLYPD3) =  -115.412802032     A.U. after   12 cycles
 E2(B2PLYPD3) =    -0.1558884709D+00 E(B2PLYPD3) =    -0.11556869050302D+03

 The electronic state is 1-A.
 Alpha  occ. eigenvalues --  -19.74945 -10.60792  -1.11101  -0.80844  -0.56118
 Alpha  occ. eigenvalues --   -0.52688  -0.49198  -0.39203  -0.34719
 Alpha virt. eigenvalues --   -0.02116   0.07520   0.12737   0.13204   0.14454
 Alpha virt. eigenvalues --    0.17753   0.18184   0.21930   0.29750   0.32691
 Alpha virt. eigenvalues --    0.33862   0.39614   0.40787   0.42878   0.45162

 Mulliken charges:
               1
     1  C    0.107925
     2  O   -0.493740
     3  H    0.039443
     4  H    0.046516
     5  H    0.065496
     6  H    0.234360
 Sum of Mulliken charges =   0.00000

 Dipole moment (field-independent basis, Debye):
    X=              1.0219    Y=              1.7803    Z=             -0.0754  Tot=              2.0541
 Quadrupole moment (field-independent basis, Debye-Ang):
   XX=            -12.5233   YY=            -11.4403   ZZ=            -14.0233
   XY=             -2.7899   XZ=              0.0843   YZ=             -0.0503

 Normal termination of Gaussian 09 at Wed Aug 26 22:24:06 2020.
