 Gaussian 09, Revision D.01,
 Gaussian 09:  ES64L-G09RevD.01 24-Apr-2013

 --------------------
 #p B2PLYPD3/Def2QZVP
 --------------------

 --------
 methanol
 --------
 Symbolic Z-matrix:
 Charge =  0 Multiplicity = 1

                         Standard orientation:
 ---------------------------------------------------------------------
 Center     Atomic      Atomic             Coordinates (Angstroms)
 Number     Number       Type             X           Y           Z
 ---------------------------------------------------------------------
      1          6           0        0.658818    0.023627    0.008623
      2          8           0       -0.730103   -0.150181   -0.016755
      3          1           0        0.943216    0.408654    0.879748
      4          1           0        1.021229    0.627211   -0.800050
      5          1           0        1.054198   -0.901460   -0.064881
      6          1           0       -1.130725    0.925276    0.067490
 ---------------------------------------------------------------------

 SCF Done:  E(RB2PLYPD3) =  -115.514147366     A.U. after   11 cycles
 E2(B2PLYPD3) =    -0.1500389816D+00 E(B2PLYPD3) =    -0.11566418634754D+03

 The electronic state is 1-A.
 Alpha  occ. eigenvalues --  -19.73713 -10.62864  -1.14063  -0.78986  -0.57054
 Alpha  occ. eigenvalues --   -0.53084  -0.49810  -0.40796  -0.35024
 Alpha virt. eigenvalues --    0.03098   0.08000   0.12579   0.12791   0.14924
 Alpha virt. eigenvalues --    0.17412   0.18211   0.27811   0.29610   0.33287
 Alpha virt. eigenvalues --    0.34942   0.39241   0.40692   0.42483   0.44421

 Mulliken charges:
               1
     1  C    0.087253
     2  O   -0.484333
     3  H    0.044438
     4  H    0.038603
     5  H    0.064087
     6  H    0.249951
 Sum of Mulliken charges =   0.00000

 Dipole moment (field-independent basis, Debye):
    X=              0.9382    Y=              1.6291    Z=              0.1958  Tot=              1.8901
 Quadrupole moment (field-independent basis, Debye-Ang):
   XX=            -13.2193   YY=            -11.7841   ZZ=            -13.7527
   XY=             -2.3668   XZ=             -0.1565   YZ=              0.1205

 Normal termination of Gaussian 09 at Wed Aug 26 16:06:56 2020.
