 Gaussian 09, Revision D.01,
 Gaussian 09:  ES64L-G09RevD.01 24-Apr-2013

 --------------------
 #p B2PLYPD3/Def2QZVP
 --------------------

 --------
 methanol
 --------
 Symbolic Z-matrix:
 Charge =  0 Multiplicity = 1

                         Standard orientation:
 ---------------------------------------------------------------------
 Center     Atomic      Atomic             Coordinates (Angstroms)
 Number     Number       Type             X           Y           Z
 ---------------------------------------------------------------------
      1          6           0       -0.652404   -0.019033    0.008213
      2          8           0        0.740973    0.067329   -0.022309
      3          1           0       -1.001623   -0.408123    0.979558
      4          1           0       -0.956003   -0.790274   -0.844660
      5          1           0       -1.067648    1.164232   -0.165330
      6          1           0        1.011912   -0.390266    0.159626
 ---------------------------------------------------------------------

 SCF Done:  E(RB2PLYPD3) =  -115.079283685     A.U. after   11 cycles
 E2(B2PLYPD3) =    -0.1427912236D+00 E(B2PLYPD3) =    -0.11522207490870D+03

 The electronic state is 1-A.
 Alpha  occ. eigenvalues --  -19.68512 -10.69249  -1.31625  -0.83567  -0.63293
 Alpha  occ. eigenvalues --   -0.52275  -0.49848  -0.41063  -0.36278
 Alpha virt. eigenvalues --    0.04978   0.09889   0.11060   0.11765   0.14706
 Alpha virt. eigenvalues --    0.16703   0.17146   0.28288   0.31923   0.32912
 Alpha virt. eigenvalues --    0.34792   0.37750   0.39764   0.41482   0.42705

 Mulliken charges:
               1
     1  C    0.054416
     2  O   -0.110138
     3  H    0.054113
     4  H    0.048255
     5  H    0.070231
     6  H   -0.116877
 Sum of Mulliken charges =   0.00000

 Dipole moment (field-independent basis, Debye):
    X=             -0.9196    Y=             -1.0886    Z=              0.5264  Tot=              1.5192
 Quadrupole moment (field-independent basis, Debye-Ang):
   XX=            -13.4539   YY=            -12.4059   ZZ=            -13.3684
   XY=             -1.5743   XZ=              0.3918   YZ=             -0.2665

 Normal termination of Gaussian 09 at Wed Aug 26 23:55:17 2020.
