 Gaussian 09, Revision D.01,
 Gaussian 09:  ES64L-G09RevD.01 24-Apr-2013

 --------------------
 #p B2PLYPD3/Def2QZVP
 --------------------

 --------
 methanol
 --------
 Symbolic Z-matrix:
 Charge =  0 Multiplicity = 1

                         Standard orientation:
 ---------------------------------------------------------------------
 Center     Atomic      Atomic             Coordinates (Angstroms)
 Number     Number       Type             X           Y           Z
 ---------------------------------------------------------------------
      1          6           0       -0.679822    0.032249   -0.001561
      2          8           0        0.746168   -0.149794   -0.003329
      3          1           0       -1.039894    0.515871   -0.838444
      4          1           0       -0.970548    0.553379    0.840122
      5          1           0       -1.104319   -0.935336    0.036515
      6          1           0        1.224348    0.870942   -0.002193
 ---------------------------------------------------------------------

 SCF Done:  E(RB2PLYPD3) =  -115.525846034     A.U. after   11 cycles
 E2(B2PLYPD3) =    -0.1500678659D+00 E(B2PLYPD3) =    -0.11567591389954D+03

 The electronic state is 1-A.
 Alpha  occ. eigenvalues --  -19.73520 -10.63811  -1.12738  -0.79006  -0.56386
 Alpha  occ. eigenvalues --   -0.52540  -0.49162  -0.40628  -0.35206
 Alpha virt. eigenvalues --    0.03544   0.07747   0.12567   0.12718   0.14840
 Alpha virt. eigenvalues --    0.17329   0.18169   0.28570   0.29821   0.33190
 Alpha virt. eigenvalues --    0.33721   0.39398   0.39730   0.42463   0.44051

 Mulliken charges:
               1
     1  C    0.087035
     2  O   -0.502561
     3  H    0.049787
     4  H    0.048198
     5  H    0.066919
     6  H    0.250622
 Sum of Mulliken charges =   0.00000

 Dipole moment (field-independent basis, Debye):
    X=             -0.9265    Y=              1.6540    Z=              0.0097  Tot=              1.8958
 Quadrupole moment (field-independent basis, Debye-Ang):
   XX=            -12.7407   YY=            -11.9943   ZZ=            -13.8445
   XY=              2.4578   XZ=              0.0498   YZ=             -0.0104

 Normal termination of Gaussian 09 at Wed Aug 26 09:59:49 2020.
