 Gaussian 09, Revision D.01,
 Gaussian 09:  ES64L-G09RevD.01 24-Apr-2013

 --------------------
 #p B2PLYPD3/Def2QZVP
 --------------------

 --------
 methanol
 --------
 Symbolic Z-matrix:
 Charge =  0 Multiplicity = 1

                         Standard orientation:
 ---------------------------------------------------------------------
 Center     Atomic      Atomic             Coordinates (Angstroms)
 Number     Number       Type             X           Y           Z
 ---------------------------------------------------------------------
      1          6           0        0.667367    0.038412    0.013578
      2          8           0       -0.744149   -0.155472   -0.014431
      3          1           0        1.063057    0.412972    0.815992
      4          1           0        1.037358    0.626484   -0.798740
      5          1           0        1.087896   -0.945626   -0.068072
      6          1           0       -1.239321    0.919472    0.084796
 ---------------------------------------------------------------------

 SCF Done:  E(RB2PLYPD3) =  -115.504842603     A.U. after   11 cycles
 E2(B2PLYPD3) =    -0.1513427385D+00 E(B2PLYPD3) =    -0.11565618534100D+03

 The electronic state is 1-A.
 Alpha  occ. eigenvalues --  -19.74323 -10.63544  -1.12728  -0.79221  -0.56323
 Alpha  occ. eigenvalues --   -0.52250  -0.48836  -0.40385  -0.35346
 Alpha virt. eigenvalues --    0.02637   0.07550   0.12454   0.12898   0.15110
 Alpha virt. eigenvalues --    0.17230   0.18526   0.26749   0.29477   0.33568
 Alpha virt. eigenvalues --    0.34377   0.38332   0.39161   0.42208   0.45059

 Mulliken charges:
               1
     1  C    0.083239
     2  O   -0.490702
     3  H    0.051467
     4  H    0.043754
     5  H    0.059876
     6  H    0.252366
 Sum of Mulliken charges =   0.00000

 Dipole moment (field-independent basis, Debye):
    X=              0.8743    Y=              1.6842    Z=              0.2358  Tot=              1.9122
 Quadrupole moment (field-independent basis, Debye-Ang):
   XX=            -12.6683   YY=            -11.9493   ZZ=            -13.9688
   XY=             -2.4102   XZ=             -0.0791   YZ=              0.1448

 Normal termination of Gaussian 09 at Wed Aug 26 11:11:08 2020.
