 Gaussian 09, Revision D.01,
 Gaussian 09:  ES64L-G09RevD.01 24-Apr-2013

 --------------------
 #p B2PLYPD3/Def2QZVP
 --------------------

 --------
 methanol
 --------
 Symbolic Z-matrix:
 Charge =  0 Multiplicity = 1

                         Standard orientation:
 ---------------------------------------------------------------------
 Center     Atomic      Atomic             Coordinates (Angstroms)
 Number     Number       Type             X           Y           Z
 ---------------------------------------------------------------------
      1          6           0        0.664228    0.010444   -0.004391
      2          8           0       -0.744853   -0.134286    0.006089
      3          1           0        1.074121    0.542538    0.882303
      4          1           0        1.032508    0.538745   -0.871932
      5          1           0        1.062124   -0.914354   -0.014520
      6          1           0       -1.195297    0.844695   -0.018223
 ---------------------------------------------------------------------

 SCF Done:  E(RB2PLYPD3) =  -115.535432989     A.U. after   11 cycles
 E2(B2PLYPD3) =    -0.1491843373D+00 E(B2PLYPD3) =    -0.11568461732611D+03

 The electronic state is 1-A.
 Alpha  occ. eigenvalues --  -19.73531 -10.64610  -1.14207  -0.78699  -0.57288
 Alpha  occ. eigenvalues --   -0.51066  -0.50530  -0.40966  -0.34963
 Alpha virt. eigenvalues --    0.04002   0.07809   0.12525   0.12759   0.14976
 Alpha virt. eigenvalues --    0.17299   0.18296   0.29018   0.30872   0.33355
 Alpha virt. eigenvalues --    0.34124   0.38624   0.40514   0.40792   0.43590

 Mulliken charges:
               1
     1  C    0.073714
     2  O   -0.483313
     3  H    0.040782
     4  H    0.043227
     5  H    0.074316
     6  H    0.251274
 Sum of Mulliken charges =   0.00000

 Dipole moment (field-independent basis, Debye):
    X=              0.8194    Y=              1.5355    Z=             -0.0774  Tot=              1.7421
 Quadrupole moment (field-independent basis, Debye-Ang):
   XX=            -12.8114   YY=            -12.0801   ZZ=            -13.9382
   XY=             -2.4643   XZ=              0.0377   YZ=             -0.0451

 Normal termination of Gaussian 09 at Wed Aug 26 21:51:23 2020.
