 Gaussian 09, Revision D.01,
 Gaussian 09:  ES64L-G09RevD.01 24-Apr-2013

 --------------------
 #p B2PLYPD3/Def2QZVP
 --------------------

 --------
 methanol
 --------
 Symbolic Z-matrix:
 Charge =  0 Multiplicity = 1

                         Standard orientation:
 ---------------------------------------------------------------------
 Center     Atomic      Atomic             Coordinates (Angstroms)
 Number     Number       Type             X           Y           Z
 ---------------------------------------------------------------------
      1          6           0        0.662227    0.005626    0.003401
      2          8           0       -0.747987   -0.081129   -0.038160
      3          1           0        1.063658    0.114776    1.099769
      4          1           0        1.026801    0.928654   -0.673345
      5          1           0        1.104024   -0.913628   -0.388045
      6          1           0       -1.183949    0.485477    0.246494
 ---------------------------------------------------------------------

 SCF Done:  E(RB2PLYPD3) =  -115.488225269     A.U. after   11 cycles
 E2(B2PLYPD3) =    -0.1447812869D+00 E(B2PLYPD3) =    -0.11563300655589D+03

 The electronic state is 1-A.
 Alpha  occ. eigenvalues --  -19.70565 -10.68309  -1.21122  -0.80821  -0.60833
 Alpha  occ. eigenvalues --   -0.51269  -0.50638  -0.39979  -0.35482
 Alpha virt. eigenvalues --    0.05389   0.08766   0.11725   0.12472   0.14334
 Alpha virt. eigenvalues --    0.17082   0.18008   0.28802   0.32449   0.33095
 Alpha virt. eigenvalues --    0.36252   0.38285   0.39015   0.40971   0.42492

 Mulliken charges:
               1
     1  C    0.056699
     2  O   -0.321022
     3  H    0.044748
     4  H    0.042150
     5  H    0.087399
     6  H    0.090026
 Sum of Mulliken charges =   0.00000

 Dipole moment (field-independent basis, Debye):
    X=              0.7399    Y=              1.0129    Z=              0.5542  Tot=              1.3713
 Quadrupole moment (field-independent basis, Debye-Ang):
   XX=            -12.6842   YY=            -12.9261   ZZ=            -13.5250
   XY=             -2.0236   XZ=             -0.8966   YZ=              0.3374

 Normal termination of Gaussian 09 at Wed Aug 26 13:05:02 2020.
