 Gaussian 09, Revision D.01,
 Gaussian 09:  ES64L-G09RevD.01 24-Apr-2013

 --------------------
 #p B2PLYPD3/Def2QZVP
 --------------------

 --------
 methanol
 --------
 Symbolic Z-matrix:
 Charge =  0 Multiplicity = 1

                         Standard orientation:
 ---------------------------------------------------------------------
 Center     Atomic      Atomic             Coordinates (Angstroms)
 Number     Number       Type             X           Y           Z
 ---------------------------------------------------------------------
      1          6           0        0.669680   -0.018916    0.003372
      2          8           0       -0.746932    0.104435   -0.008315
      3          1           0        1.046347   -0.592447   -0.892735
      4          1           0        1.004815   -0.509684    0.930528
      5          1           0        1.050980    1.032573   -0.024778
      6          1           0       -1.144770   -0.652428    0.033273
 ---------------------------------------------------------------------

 SCF Done:  E(RB2PLYPD3) =  -115.539783152     A.U. after   10 cycles
 E2(B2PLYPD3) =    -0.1456970024D+00 E(B2PLYPD3) =    -0.11568548015484D+03

 The electronic state is 1-A.
 Alpha  occ. eigenvalues --  -19.71354 -10.66685  -1.18377  -0.79392  -0.59958
 Alpha  occ. eigenvalues --   -0.51622  -0.49861  -0.40902  -0.35552
 Alpha virt. eigenvalues --    0.05337   0.08640   0.12180   0.12228   0.14782
 Alpha virt. eigenvalues --    0.16969   0.17937   0.29073   0.33168   0.33245
 Alpha virt. eigenvalues --    0.37523   0.38763   0.39668   0.40263   0.42943

 Mulliken charges:
               1
     1  C    0.065187
     2  O   -0.409916
     3  H    0.048921
     4  H    0.051660
     5  H    0.074688
     6  H    0.169461
 Sum of Mulliken charges =   0.00000

 Dipole moment (field-independent basis, Debye):
    X=              0.8464    Y=             -1.3905    Z=              0.1060  Tot=              1.6313
 Quadrupole moment (field-independent basis, Debye-Ang):
   XX=            -13.0019   YY=            -12.3697   ZZ=            -13.6947
   XY=              2.1236   XZ=             -0.1111   YZ=             -0.0571

 Normal termination of Gaussian 09 at Thu Aug 27 00:15:08 2020.
