 Gaussian 09, Revision D.01,
 Gaussian 09:  ES64L-G09RevD.01 24-Apr-2013

 --------------------
 #p B2PLYPD3/Def2QZVP
 --------------------

 --------
 methanol
 --------
 Symbolic Z-matrix:
 Charge =  0 Multiplicity = 1

                         Standard orientation:
 ---------------------------------------------------------------------
 Center     Atomic      Atomic             Coordinates (Angstroms)
 Number     Number       Type             X           Y           Z
 ---------------------------------------------------------------------
      1          6           0        0.663750    0.035185   -0.006741
      2          8           0       -0.732760   -0.148893    0.000978
      3          1           0        0.984643    0.512733    0.862915
      4          1           0        0.983975    0.538974   -0.824869
      5          1           0        1.088657   -0.940961   -0.005218
      6          1           0       -1.177698    0.869287   -0.000211
 ---------------------------------------------------------------------

 SCF Done:  E(RB2PLYPD3) =  -115.528489147     A.U. after   11 cycles
 E2(B2PLYPD3) =    -0.1493750139D+00 E(B2PLYPD3) =    -0.11567786416093D+03

 The electronic state is 1-A.
 Alpha  occ. eigenvalues --  -19.73416 -10.63516  -1.14024  -0.78789  -0.57133
 Alpha  occ. eigenvalues --   -0.53148  -0.49451  -0.40552  -0.35162
 Alpha virt. eigenvalues --    0.03674   0.07960   0.12582   0.12696   0.14936
 Alpha virt. eigenvalues --    0.17379   0.18174   0.28790   0.30028   0.33431
 Alpha virt. eigenvalues --    0.34527   0.39249   0.39960   0.42865   0.44417

 Mulliken charges:
               1
     1  C    0.084908
     2  O   -0.488383
     3  H    0.045182
     4  H    0.046702
     5  H    0.062820
     6  H    0.248771
 Sum of Mulliken charges =   0.00000

 Dipole moment (field-independent basis, Debye):
    X=              0.8744    Y=              1.6534    Z=             -0.0212  Tot=              1.8705
 Quadrupole moment (field-independent basis, Debye-Ang):
   XX=            -12.9683   YY=            -11.9733   ZZ=            -13.7712
   XY=             -2.3843   XZ=             -0.0247   YZ=             -0.0399

 Normal termination of Gaussian 09 at Wed Aug 26 12:35:08 2020.
