 Gaussian 09, Revision D.01,
 Gaussian 09:  ES64L-G09RevD.01 24-Apr-2013

 --------------------
 #p B2PLYPD3/Def2QZVP
 --------------------

 --------
 methanol
 --------
 Symbolic Z-matrix:
 Charge =  0 Multiplicity = 1

                         Standard orientation:
 ---------------------------------------------------------------------
 Center     Atomic      Atomic             Coordinates (Angstroms)
 Number     Number       Type             X           Y           Z
 ---------------------------------------------------------------------
      1          6           0        0.678537   -0.040179    0.036430
      2          8           0       -0.757056    0.087071   -0.032805
      3          1           0        0.918795   -0.981645   -0.662468
      4          1           0        1.012399   -0.057230    0.980235
      5          1           0        1.133842    1.030299   -0.463703
      6          1           0       -1.079810   -0.446922    0.189796
 ---------------------------------------------------------------------

 SCF Done:  E(RB2PLYPD3) =  -115.342720983     A.U. after   11 cycles
 E2(B2PLYPD3) =    -0.1439395793D+00 E(B2PLYPD3) =    -0.11548666056236D+03

 The electronic state is 1-A.
 Alpha  occ. eigenvalues --  -19.69011 -10.68419  -1.25303  -0.81822  -0.62253
 Alpha  occ. eigenvalues --   -0.53141  -0.48514  -0.40178  -0.36699
 Alpha virt. eigenvalues --    0.05085   0.09344   0.11078   0.11887   0.14200
 Alpha virt. eigenvalues --    0.16920   0.17919   0.28531   0.30939   0.33058
 Alpha virt. eigenvalues --    0.33673   0.36811   0.40351   0.42676   0.43994

 Mulliken charges:
               1
     1  C    0.055816
     2  O   -0.230632
     3  H    0.054615
     4  H    0.075688
     5  H    0.060972
     6  H   -0.016460
 Sum of Mulliken charges =   0.00000

 Dipole moment (field-independent basis, Debye):
    X=              1.0189    Y=             -1.1693    Z=              0.6375  Tot=              1.6769
 Quadrupole moment (field-independent basis, Debye-Ang):
   XX=            -13.2046   YY=            -12.6654   ZZ=            -13.2623
   XY=              1.8245   XZ=             -0.4353   YZ=             -0.1661

 Normal termination of Gaussian 09 at Wed Aug 26 20:13:36 2020.
