 Gaussian 09, Revision D.01,
 Gaussian 09:  ES64L-G09RevD.01 24-Apr-2013

 --------------------
 #p B2PLYPD3/Def2QZVP
 --------------------

 --------
 methanol
 --------
 Symbolic Z-matrix:
 Charge =  0 Multiplicity = 1

                         Standard orientation:
 ---------------------------------------------------------------------
 Center     Atomic      Atomic             Coordinates (Angstroms)
 Number     Number       Type             X           Y           Z
 ---------------------------------------------------------------------
      1          6           0       -0.667765   -0.016783    0.008685
      2          8           0        0.747804    0.102380   -0.013848
      3          1           0       -1.024798   -0.445956    0.934551
      4          1           0       -1.019864   -0.657208   -0.872643
      5          1           0       -1.048756    1.032652   -0.087245
      6          1           0        1.117575   -0.647833    0.084016
 ---------------------------------------------------------------------

 SCF Done:  E(RB2PLYPD3) =  -115.534972965     A.U. after   10 cycles
 E2(B2PLYPD3) =    -0.1454785354D+00 E(B2PLYPD3) =    -0.11568045150070D+03

 The electronic state is 1-A.
 Alpha  occ. eigenvalues --  -19.71272 -10.66646  -1.18958  -0.79522  -0.60267
 Alpha  occ. eigenvalues --   -0.51665  -0.49867  -0.41200  -0.35592
 Alpha virt. eigenvalues --    0.05341   0.08741   0.12139   0.12204   0.14819
 Alpha virt. eigenvalues --    0.17004   0.17890   0.29058   0.32918   0.33434
 Alpha virt. eigenvalues --    0.37606   0.38547   0.39734   0.40660   0.43036

 Mulliken charges:
               1
     1  C    0.065174
     2  O   -0.396084
     3  H    0.053661
     4  H    0.045277
     5  H    0.074118
     6  H    0.157854
 Sum of Mulliken charges =   0.00000

 Dipole moment (field-independent basis, Debye):
    X=             -0.8805    Y=             -1.3746    Z=              0.2428  Tot=              1.6503
 Quadrupole moment (field-independent basis, Debye-Ang):
   XX=            -13.1129   YY=            -12.3392   ZZ=            -13.6673
   XY=             -2.0766   XZ=              0.1697   YZ=             -0.1571

 Normal termination of Gaussian 09 at Wed Aug 26 16:38:47 2020.
