 Gaussian 09, Revision D.01,
 Gaussian 09:  ES64L-G09RevD.01 24-Apr-2013

 --------------------
 #p B2PLYPD3/Def2QZVP
 --------------------

 --------
 methanol
 --------
 Symbolic Z-matrix:
 Charge =  0 Multiplicity = 1

                         Standard orientation:
 ---------------------------------------------------------------------
 Center     Atomic      Atomic             Coordinates (Angstroms)
 Number     Number       Type             X           Y           Z
 ---------------------------------------------------------------------
      1          6           0        0.663944    0.023625    0.003632
      2          8           0       -0.740469   -0.147687   -0.005382
      3          1           0        1.064985    0.448598    0.868986
      4          1           0        0.997381    0.618117   -0.826847
      5          1           0        1.097614   -0.904474   -0.074474
      6          1           0       -1.219887    0.877508    0.053595
 ---------------------------------------------------------------------

 SCF Done:  E(RB2PLYPD3) =  -115.525379165     A.U. after   11 cycles
 E2(B2PLYPD3) =    -0.1500121618D+00 E(B2PLYPD3) =    -0.11567539132670D+03

 The electronic state is 1-A.
 Alpha  occ. eigenvalues --  -19.73803 -10.63903  -1.13525  -0.78784  -0.56653
 Alpha  occ. eigenvalues --   -0.51900  -0.49996  -0.40545  -0.35044
 Alpha virt. eigenvalues --    0.03361   0.07720   0.12675   0.12782   0.14949
 Alpha virt. eigenvalues --    0.17408   0.18361   0.28265   0.29723   0.33391
 Alpha virt. eigenvalues --    0.34371   0.39108   0.40165   0.41887   0.43806

 Mulliken charges:
               1
     1  C    0.080375
     2  O   -0.490641
     3  H    0.046173
     4  H    0.041685
     5  H    0.067516
     6  H    0.254893
 Sum of Mulliken charges =   0.00000

 Dipole moment (field-independent basis, Debye):
    X=              0.8306    Y=              1.6088    Z=              0.1143  Tot=              1.8141
 Quadrupole moment (field-independent basis, Debye-Ang):
   XX=            -12.7018   YY=            -12.0462   ZZ=            -13.9157
   XY=             -2.5129   XZ=             -0.0546   YZ=              0.0824

 Normal termination of Gaussian 09 at Wed Aug 26 15:23:43 2020.
