 Gaussian 09, Revision D.01,
 Gaussian 09:  ES64L-G09RevD.01 24-Apr-2013

 --------------------
 #p B2PLYPD3/Def2QZVP
 --------------------

 --------
 methanol
 --------
 Symbolic Z-matrix:
 Charge =  0 Multiplicity = 1

                         Standard orientation:
 ---------------------------------------------------------------------
 Center     Atomic      Atomic             Coordinates (Angstroms)
 Number     Number       Type             X           Y           Z
 ---------------------------------------------------------------------
      1          6           0       -0.666550   -0.015187   -0.000984
      2          8           0        0.745120    0.114863   -0.001464
      3          1           0       -0.986025   -0.556468    0.903980
      4          1           0       -1.026209   -0.527962   -0.903434
      5          1           0       -1.047905    0.986703    0.023167
      6          1           0        1.098476   -0.730055   -0.006099
 ---------------------------------------------------------------------

 SCF Done:  E(RB2PLYPD3) =  -115.551356341     A.U. after   10 cycles
 E2(B2PLYPD3) =    -0.1464398230D+00 E(B2PLYPD3) =    -0.11569779616369D+03

 The electronic state is 1-A.
 Alpha  occ. eigenvalues --  -19.71989 -10.65634  -1.17227  -0.78999  -0.59200
 Alpha  occ. eigenvalues --   -0.51988  -0.50123  -0.41420  -0.35377
 Alpha virt. eigenvalues --    0.05136   0.08558   0.12237   0.12441   0.14779
 Alpha virt. eigenvalues --    0.17186   0.17950   0.29109   0.33144   0.33476
 Alpha virt. eigenvalues --    0.36471   0.39013   0.40293   0.40756   0.44030

 Mulliken charges:
               1
     1  C    0.069437
     2  O   -0.440967
     3  H    0.046162
     4  H    0.047619
     5  H    0.073571
     6  H    0.204177
 Sum of Mulliken charges =   0.00000

 Dipole moment (field-independent basis, Debye):
    X=             -0.9206    Y=             -1.4529    Z=             -0.0076  Tot=              1.7200
 Quadrupole moment (field-independent basis, Debye-Ang):
   XX=            -13.2436   YY=            -12.1784   ZZ=            -13.6839
   XY=             -2.1857   XZ=              0.0242   YZ=              0.0183

 Normal termination of Gaussian 09 at Thu Aug 27 00:03:17 2020.
