 Gaussian 09, Revision D.01,
 Gaussian 09:  ES64L-G09RevD.01 24-Apr-2013

 --------------------
 #p B2PLYPD3/Def2QZVP
 --------------------

 --------
 methanol
 --------
 Symbolic Z-matrix:
 Charge =  0 Multiplicity = 1

                         Standard orientation:
 ---------------------------------------------------------------------
 Center     Atomic      Atomic             Coordinates (Angstroms)
 Number     Number       Type             X           Y           Z
 ---------------------------------------------------------------------
      1          6           0        0.652793    0.057888   -0.012875
      2          8           0       -0.736590   -0.217828   -0.013713
      3          1           0        0.974714    0.379536    0.773245
      4          1           0        0.979697    0.652281   -0.662208
      5          1           0        1.288171   -0.805902   -0.015322
      6          1           0       -1.266621    1.169385    0.091243
 ---------------------------------------------------------------------

 SCF Done:  E(RB2PLYPD3) =  -115.389349629     A.U. after   12 cycles
 E2(B2PLYPD3) =    -0.1574274929D+00 E(B2PLYPD3) =    -0.11554677712182D+03

 The electronic state is 1-A.
 Alpha  occ. eigenvalues --  -19.76018 -10.61146  -1.11709  -0.81730  -0.54900
 Alpha  occ. eigenvalues --   -0.52599  -0.49294  -0.38434  -0.35558
 Alpha virt. eigenvalues --   -0.03385   0.07144   0.12616   0.13265   0.14422
 Alpha virt. eigenvalues --    0.17942   0.19172   0.21231   0.29643   0.33622
 Alpha virt. eigenvalues --    0.33980   0.38270   0.40237   0.42616   0.44587

 Mulliken charges:
               1
     1  C    0.103290
     2  O   -0.471483
     3  H    0.057684
     4  H    0.042217
     5  H    0.040606
     6  H    0.227686
 Sum of Mulliken charges =   0.00000

 Dipole moment (field-independent basis, Debye):
    X=              1.0828    Y=              1.9007    Z=              0.2268  Tot=              2.1992
 Quadrupole moment (field-independent basis, Debye-Ang):
   XX=            -12.6858   YY=            -11.4972   ZZ=            -14.0923
   XY=             -2.5093   XZ=             -0.0272   YZ=              0.0047

 Normal termination of Gaussian 09 at Wed Aug 26 23:38:40 2020.
