 Gaussian 09, Revision D.01,
 Gaussian 09:  ES64L-G09RevD.01 24-Apr-2013

 --------------------
 #p B2PLYPD3/Def2QZVP
 --------------------

 --------
 methanol
 --------
 Symbolic Z-matrix:
 Charge =  0 Multiplicity = 1

                         Standard orientation:
 ---------------------------------------------------------------------
 Center     Atomic      Atomic             Coordinates (Angstroms)
 Number     Number       Type             X           Y           Z
 ---------------------------------------------------------------------
      1          6           0        0.663495    0.029127   -0.004205
      2          8           0       -0.746583   -0.147324   -0.002748
      3          1           0        1.020364    0.510588    0.850033
      4          1           0        1.035725    0.559247   -0.813828
      5          1           0        1.114023   -0.948275   -0.004861
      6          1           0       -1.178419    0.882271    0.015868
 ---------------------------------------------------------------------

 SCF Done:  E(RB2PLYPD3) =  -115.529192130     A.U. after   11 cycles
 E2(B2PLYPD3) =    -0.1499038390D+00 E(B2PLYPD3) =    -0.11567909596867D+03

 The electronic state is 1-A.
 Alpha  occ. eigenvalues --  -19.73835 -10.64083  -1.13657  -0.78747  -0.56924
 Alpha  occ. eigenvalues --   -0.52147  -0.49324  -0.40822  -0.35272
 Alpha virt. eigenvalues --    0.03573   0.07746   0.12505   0.12767   0.14986
 Alpha virt. eigenvalues --    0.17501   0.18254   0.28564   0.29926   0.33597
 Alpha virt. eigenvalues --    0.34093   0.38876   0.39761   0.42148   0.44112

 Mulliken charges:
               1
     1  C    0.083120
     2  O   -0.487823
     3  H    0.044854
     4  H    0.046005
     5  H    0.062652
     6  H    0.251193
 Sum of Mulliken charges =   0.00000

 Dipole moment (field-independent basis, Debye):
    X=              0.9060    Y=              1.6694    Z=              0.0315  Tot=              1.8997
 Quadrupole moment (field-independent basis, Debye-Ang):
   XX=            -12.8932   YY=            -11.9621   ZZ=            -13.9368
   XY=             -2.3665   XZ=             -0.0497   YZ=             -0.0050

 Normal termination of Gaussian 09 at Wed Aug 26 23:51:55 2020.
