 Gaussian 09, Revision D.01,
 Gaussian 09:  ES64L-G09RevD.01 24-Apr-2013

 --------------------
 #p B2PLYPD3/Def2QZVP
 --------------------

 --------
 methanol
 --------
 Symbolic Z-matrix:
 Charge =  0 Multiplicity = 1

                         Standard orientation:
 ---------------------------------------------------------------------
 Center     Atomic      Atomic             Coordinates (Angstroms)
 Number     Number       Type             X           Y           Z
 ---------------------------------------------------------------------
      1          6           0       -0.666839   -0.016346   -0.001645
      2          8           0        0.751796    0.120463   -0.008384
      3          1           0       -1.011339   -0.489267    0.932721
      4          1           0       -1.014855   -0.612707   -0.874125
      5          1           0       -1.132517    0.955813   -0.034691
      6          1           0        1.145378   -0.719465    0.053034
 ---------------------------------------------------------------------

 SCF Done:  E(RB2PLYPD3) =  -115.551766647     A.U. after   10 cycles
 E2(B2PLYPD3) =    -0.1467963343D+00 E(B2PLYPD3) =    -0.11569856298146D+03

 The electronic state is 1-A.
 Alpha  occ. eigenvalues --  -19.72247 -10.65990  -1.16575  -0.78916  -0.58807
 Alpha  occ. eigenvalues --   -0.51607  -0.50354  -0.40919  -0.35383
 Alpha virt. eigenvalues --    0.05107   0.08281   0.12229   0.12591   0.14621
 Alpha virt. eigenvalues --    0.17501   0.18041   0.29128   0.33106   0.33231
 Alpha virt. eigenvalues --    0.35450   0.39312   0.39991   0.40463   0.44043

 Mulliken charges:
               1
     1  C    0.071174
     2  O   -0.451749
     3  H    0.046164
     4  H    0.046736
     5  H    0.073897
     6  H    0.213778
 Sum of Mulliken charges =   0.00000

 Dipole moment (field-independent basis, Debye):
    X=             -0.8943    Y=             -1.4482    Z=              0.1211  Tot=              1.7064
 Quadrupole moment (field-independent basis, Debye-Ang):
   XX=            -12.9355   YY=            -12.3516   ZZ=            -13.7558
   XY=             -2.3358   XZ=              0.1411   YZ=             -0.0535

 Normal termination of Gaussian 09 at Thu Aug 27 00:09:11 2020.
