 Gaussian 09, Revision D.01,
 Gaussian 09:  ES64L-G09RevD.01 24-Apr-2013

 --------------------
 #p B2PLYPD3/Def2QZVP
 --------------------

 --------
 methanol
 --------
 Symbolic Z-matrix:
 Charge =  0 Multiplicity = 1

                         Standard orientation:
 ---------------------------------------------------------------------
 Center     Atomic      Atomic             Coordinates (Angstroms)
 Number     Number       Type             X           Y           Z
 ---------------------------------------------------------------------
      1          6           0        0.683056    0.016676   -0.005755
      2          8           0       -0.744528   -0.155554    0.002149
      3          1           0        1.073813    0.473812    0.888201
      4          1           0        0.969071    0.580519   -0.846998
      5          1           0        1.070231   -0.839909   -0.054414
      6          1           0       -1.255230    0.929956    0.030545
 ---------------------------------------------------------------------

 SCF Done:  E(RB2PLYPD3) =  -115.496346917     A.U. after   11 cycles
 E2(B2PLYPD3) =    -0.1514446883D+00 E(B2PLYPD3) =    -0.11564779160495D+03

 The electronic state is 1-A.
 Alpha  occ. eigenvalues --  -19.73950 -10.63201  -1.11992  -0.79563  -0.55620
 Alpha  occ. eigenvalues --   -0.51830  -0.50134  -0.40431  -0.34914
 Alpha virt. eigenvalues --    0.02461   0.07633   0.12568   0.12989   0.14664
 Alpha virt. eigenvalues --    0.17331   0.18379   0.26598   0.29448   0.33081
 Alpha virt. eigenvalues --    0.33661   0.38579   0.41042   0.42078   0.43315

 Mulliken charges:
               1
     1  C    0.079774
     2  O   -0.506398
     3  H    0.045931
     4  H    0.046921
     5  H    0.077969
     6  H    0.255802
 Sum of Mulliken charges =   0.00000

 Dipole moment (field-independent basis, Debye):
    X=              0.9156    Y=              1.5956    Z=              0.0093  Tot=              1.8396
 Quadrupole moment (field-independent basis, Debye-Ang):
   XX=            -12.6464   YY=            -11.9376   ZZ=            -13.8440
   XY=             -2.6618   XZ=             -0.0212   YZ=              0.0139

 Normal termination of Gaussian 09 at Wed Aug 26 16:05:45 2020.
