 Gaussian 09, Revision D.01,
 Gaussian 09:  ES64L-G09RevD.01 24-Apr-2013

 --------------------
 #p B2PLYPD3/Def2QZVP
 --------------------

 --------
 methanol
 --------
 Symbolic Z-matrix:
 Charge =  0 Multiplicity = 1

                         Standard orientation:
 ---------------------------------------------------------------------
 Center     Atomic      Atomic             Coordinates (Angstroms)
 Number     Number       Type             X           Y           Z
 ---------------------------------------------------------------------
      1          6           0        0.641519    0.067386   -0.009624
      2          8           0       -0.700771   -0.212196    0.000221
      3          1           0        1.021856    0.451608    0.764747
      4          1           0        0.824936    0.595560   -0.738218
      5          1           0        1.248631   -0.801086   -0.036637
      6          1           0       -1.338368    1.047168    0.066087
 ---------------------------------------------------------------------

 SCF Done:  E(RB2PLYPD3) =  -115.415082822     A.U. after   12 cycles
 E2(B2PLYPD3) =    -0.1545228358D+00 E(B2PLYPD3) =    -0.11556960565793D+03

 The electronic state is 1-A.
 Alpha  occ. eigenvalues --  -19.74960 -10.60705  -1.13373  -0.80358  -0.56160
 Alpha  occ. eigenvalues --   -0.53957  -0.49788  -0.38130  -0.35046
 Alpha virt. eigenvalues --   -0.01792   0.07423   0.12872   0.13180   0.14772
 Alpha virt. eigenvalues --    0.17963   0.18682   0.21988   0.29471   0.32898
 Alpha virt. eigenvalues --    0.35656   0.39385   0.40817   0.43364   0.45511

 Mulliken charges:
               1
     1  C    0.098430
     2  O   -0.475854
     3  H    0.040696
     4  H    0.052530
     5  H    0.046422
     6  H    0.237776
 Sum of Mulliken charges =   0.00000

 Dipole moment (field-independent basis, Debye):
    X=              0.8107    Y=              1.8223    Z=              0.1023  Tot=              1.9971
 Quadrupole moment (field-independent basis, Debye-Ang):
   XX=            -12.3215   YY=            -11.8552   ZZ=            -13.8958
   XY=             -2.7031   XZ=              0.0612   YZ=             -0.0225

 Normal termination of Gaussian 09 at Wed Aug 26 21:54:44 2020.
