 Gaussian 09, Revision D.01,
 Gaussian 09:  ES64L-G09RevD.01 24-Apr-2013

 --------------------
 #p B2PLYPD3/Def2QZVP
 --------------------

 --------
 methanol
 --------
 Symbolic Z-matrix:
 Charge =  0 Multiplicity = 1

                         Standard orientation:
 ---------------------------------------------------------------------
 Center     Atomic      Atomic             Coordinates (Angstroms)
 Number     Number       Type             X           Y           Z
 ---------------------------------------------------------------------
      1          6           0        0.652267    0.044690   -0.009151
      2          8           0       -0.723766   -0.175261    0.017333
      3          1           0        0.996515    0.527906    0.838224
      4          1           0        1.012725    0.451900   -0.765318
      5          1           0        1.040752   -0.899872   -0.048736
      6          1           0       -1.173470    1.054014   -0.107927
 ---------------------------------------------------------------------

 SCF Done:  E(RB2PLYPD3) =  -115.458577892     A.U. after   11 cycles
 E2(B2PLYPD3) =    -0.1534176474D+00 E(B2PLYPD3) =    -0.11561199553950D+03

 The electronic state is 1-A.
 Alpha  occ. eigenvalues --  -19.74918 -10.61758  -1.13216  -0.79773  -0.56001
 Alpha  occ. eigenvalues --   -0.53944  -0.49022  -0.39619  -0.35338
 Alpha virt. eigenvalues --    0.00372   0.07677   0.12631   0.12818   0.15069
 Alpha virt. eigenvalues --    0.17263   0.18565   0.23669   0.29406   0.33544
 Alpha virt. eigenvalues --    0.35711   0.38742   0.39562   0.43103   0.46036

 Mulliken charges:
               1
     1  C    0.091491
     2  O   -0.473641
     3  H    0.044815
     4  H    0.044897
     5  H    0.053609
     6  H    0.238829
 Sum of Mulliken charges =   0.00000

 Dipole moment (field-independent basis, Debye):
    X=              0.9932    Y=              1.7151    Z=             -0.2710  Tot=              2.0004
 Quadrupole moment (field-independent basis, Debye-Ang):
   XX=            -13.1840   YY=            -11.6012   ZZ=            -13.8114
   XY=             -2.3021   XZ=              0.0630   YZ=             -0.1488

 Normal termination of Gaussian 09 at Wed Aug 26 23:56:05 2020.
