 Gaussian 09, Revision D.01,
 Gaussian 09:  ES64L-G09RevD.01 24-Apr-2013

 --------------------
 #p B2PLYPD3/Def2QZVP
 --------------------

 --------
 methanol
 --------
 Symbolic Z-matrix:
 Charge =  0 Multiplicity = 1

                         Standard orientation:
 ---------------------------------------------------------------------
 Center     Atomic      Atomic             Coordinates (Angstroms)
 Number     Number       Type             X           Y           Z
 ---------------------------------------------------------------------
      1          6           0        0.679528    0.016105    0.010925
      2          8           0       -0.735049   -0.161012   -0.014318
      3          1           0        1.027972    0.400661    0.872655
      4          1           0        0.996143    0.670197   -0.806081
      5          1           0        1.054447   -0.831894   -0.105267
      6          1           0       -1.275339    0.952506    0.087689
 ---------------------------------------------------------------------

 SCF Done:  E(RB2PLYPD3) =  -115.481092897     A.U. after   11 cycles
 E2(B2PLYPD3) =    -0.1520021675D+00 E(B2PLYPD3) =    -0.11563309506401D+03

 The electronic state is 1-A.
 Alpha  occ. eigenvalues --  -19.74103 -10.62630  -1.12060  -0.79704  -0.55990
 Alpha  occ. eigenvalues --   -0.51864  -0.50107  -0.40252  -0.34773
 Alpha virt. eigenvalues --    0.01746   0.07660   0.12689   0.12973   0.14790
 Alpha virt. eigenvalues --    0.17277   0.18315   0.25502   0.29501   0.33282
 Alpha virt. eigenvalues --    0.34068   0.38203   0.41451   0.41879   0.44137

 Mulliken charges:
               1
     1  C    0.083845
     2  O   -0.503860
     3  H    0.047728
     4  H    0.039530
     5  H    0.078280
     6  H    0.254476
 Sum of Mulliken charges =   0.00000

 Dipole moment (field-independent basis, Debye):
    X=              0.8780    Y=              1.6053    Z=              0.2113  Tot=              1.8419
 Quadrupole moment (field-independent basis, Debye-Ang):
   XX=            -12.6043   YY=            -11.8504   ZZ=            -13.8675
   XY=             -2.6721   XZ=             -0.1210   YZ=              0.1744

 Normal termination of Gaussian 09 at Wed Aug 26 13:30:24 2020.
