 Gaussian 09, Revision D.01,
 Gaussian 09:  ES64L-G09RevD.01 24-Apr-2013

 --------------------
 #p B2PLYPD3/Def2QZVP
 --------------------

 --------
 methanol
 --------
 Symbolic Z-matrix:
 Charge =  0 Multiplicity = 1

                         Standard orientation:
 ---------------------------------------------------------------------
 Center     Atomic      Atomic             Coordinates (Angstroms)
 Number     Number       Type             X           Y           Z
 ---------------------------------------------------------------------
      1          6           0       -0.672485   -0.012048    0.001920
      2          8           0        0.743981    0.101728   -0.005653
      3          1           0       -1.022973   -0.473088    0.962662
      4          1           0       -1.001528   -0.657458   -0.879559
      5          1           0       -1.059268    1.010919   -0.091150
      6          1           0        1.166833   -0.621913    0.041751
 ---------------------------------------------------------------------

 SCF Done:  E(RB2PLYPD3) =  -115.533511380     A.U. after   10 cycles
 E2(B2PLYPD3) =    -0.1453843538D+00 E(B2PLYPD3) =    -0.11567889573402D+03

 The electronic state is 1-A.
 Alpha  occ. eigenvalues --  -19.70989 -10.66921  -1.18649  -0.79757  -0.59940
 Alpha  occ. eigenvalues --   -0.51349  -0.50538  -0.40639  -0.35348
 Alpha virt. eigenvalues --    0.05372   0.08707   0.12102   0.12324   0.14656
 Alpha virt. eigenvalues --    0.16961   0.17797   0.29101   0.32922   0.33138
 Alpha virt. eigenvalues --    0.37519   0.39418   0.39635   0.39906   0.42867

 Mulliken charges:
               1
     1  C    0.067477
     2  O   -0.401196
     3  H    0.049872
     4  H    0.045395
     5  H    0.080936
     6  H    0.157515
 Sum of Mulliken charges =   0.00000

 Dipole moment (field-independent basis, Debye):
    X=             -0.8129    Y=             -1.3272    Z=              0.1020  Tot=              1.5597
 Quadrupole moment (field-independent basis, Debye-Ang):
   XX=            -12.9041   YY=            -12.4257   ZZ=            -13.6894
   XY=             -2.1921   XZ=              0.1052   YZ=             -0.0766

 Normal termination of Gaussian 09 at Wed Aug 26 13:14:31 2020.
