 Gaussian 09, Revision D.01,
 Gaussian 09:  ES64L-G09RevD.01 24-Apr-2013

 --------------------
 #p B2PLYPD3/Def2QZVP
 --------------------

 --------
 methanol
 --------
 Symbolic Z-matrix:
 Charge =  0 Multiplicity = 1

                         Standard orientation:
 ---------------------------------------------------------------------
 Center     Atomic      Atomic             Coordinates (Angstroms)
 Number     Number       Type             X           Y           Z
 ---------------------------------------------------------------------
      1          6           0        0.666675    0.021562    0.020574
      2          8           0       -0.744254   -0.152704   -0.015076
      3          1           0        1.034406    0.381300    0.860172
      4          1           0        1.052244    0.674700   -0.790925
      5          1           0        1.083551   -0.893881   -0.137948
      6          1           0       -1.216220    0.930144    0.065866
 ---------------------------------------------------------------------

 SCF Done:  E(RB2PLYPD3) =  -115.506476902     A.U. after   11 cycles
 E2(B2PLYPD3) =    -0.1511765766D+00 E(B2PLYPD3) =    -0.11565765347861D+03

 The electronic state is 1-A.
 Alpha  occ. eigenvalues --  -19.74241 -10.63548  -1.12873  -0.79129  -0.56379
 Alpha  occ. eigenvalues --   -0.51735  -0.49646  -0.40581  -0.35115
 Alpha virt. eigenvalues --    0.02631   0.07615   0.12654   0.12786   0.14973
 Alpha virt. eigenvalues --    0.17381   0.18416   0.26790   0.29544   0.33558
 Alpha virt. eigenvalues --    0.34150   0.38315   0.39987   0.41860   0.44616

 Mulliken charges:
               1
     1  C    0.086129
     2  O   -0.492451
     3  H    0.050944
     4  H    0.034317
     5  H    0.065925
     6  H    0.255137
 Sum of Mulliken charges =   0.00000

 Dipole moment (field-independent basis, Debye):
    X=              0.8879    Y=              1.6267    Z=              0.2147  Tot=              1.8656
 Quadrupole moment (field-independent basis, Debye-Ang):
   XX=            -12.7819   YY=            -11.9217   ZZ=            -13.9408
   XY=             -2.5058   XZ=             -0.0776   YZ=              0.1932

 Normal termination of Gaussian 09 at Wed Aug 26 13:01:50 2020.
