 Gaussian 09, Revision D.01,
 Gaussian 09:  ES64L-G09RevD.01 24-Apr-2013

 --------------------
 #p B2PLYPD3/Def2QZVP
 --------------------

 --------
 methanol
 --------
 Symbolic Z-matrix:
 Charge =  0 Multiplicity = 1

                         Standard orientation:
 ---------------------------------------------------------------------
 Center     Atomic      Atomic             Coordinates (Angstroms)
 Number     Number       Type             X           Y           Z
 ---------------------------------------------------------------------
      1          6           0        0.711639    0.017896    0.004781
      2          8           0       -0.757063   -0.149324    0.000233
      3          1           0        1.042116    0.422678    0.931842
      4          1           0        0.915385    0.638068   -0.853691
      5          1           0        1.112689   -0.822706   -0.145293
      6          1           0       -1.283520    0.849175    0.036594
 ---------------------------------------------------------------------

 SCF Done:  E(RB2PLYPD3) =  -115.509149377     A.U. after   11 cycles
 E2(B2PLYPD3) =    -0.1504978882D+00 E(B2PLYPD3) =    -0.11565964726485D+03

 The electronic state is 1-A.
 Alpha  occ. eigenvalues --  -19.73041 -10.63870  -1.11145  -0.79924  -0.55024
 Alpha  occ. eigenvalues --   -0.52097  -0.50658  -0.39942  -0.34912
 Alpha virt. eigenvalues --    0.03557   0.07641   0.12308   0.12965   0.14185
 Alpha virt. eigenvalues --    0.17337   0.18165   0.28782   0.29211   0.31658
 Alpha virt. eigenvalues --    0.33413   0.38574   0.41404   0.42398   0.43113

 Mulliken charges:
               1
     1  C    0.083380
     2  O   -0.526093
     3  H    0.057771
     4  H    0.049540
     5  H    0.081268
     6  H    0.254135
 Sum of Mulliken charges =   0.00000

 Dipole moment (field-independent basis, Debye):
    X=              0.9988    Y=              1.5483    Z=              0.0371  Tot=              1.8429
 Quadrupole moment (field-independent basis, Debye-Ang):
   XX=            -12.4875   YY=            -12.1968   ZZ=            -13.6535
   XY=             -2.7464   XZ=             -0.0269   YZ=              0.0952

 Normal termination of Gaussian 09 at Wed Aug 26 23:49:51 2020.
