 Gaussian 09, Revision D.01,
 Gaussian 09:  ES64L-G09RevD.01 24-Apr-2013

 --------------------
 #p B2PLYPD3/Def2QZVP
 --------------------

 --------
 methanol
 --------
 Symbolic Z-matrix:
 Charge =  0 Multiplicity = 1

                         Standard orientation:
 ---------------------------------------------------------------------
 Center     Atomic      Atomic             Coordinates (Angstroms)
 Number     Number       Type             X           Y           Z
 ---------------------------------------------------------------------
      1          6           0        0.671995    0.026527    0.005468
      2          8           0       -0.732859   -0.161574   -0.016067
      3          1           0        0.969415    0.354208    0.904109
      4          1           0        1.053573    0.684021   -0.743372
      5          1           0        1.061867   -0.863151   -0.125669
      6          1           0       -1.253953    0.958353    0.060656
 ---------------------------------------------------------------------

 SCF Done:  E(RB2PLYPD3) =  -115.491751333     A.U. after   11 cycles
 E2(B2PLYPD3) =    -0.1518709764D+00 E(B2PLYPD3) =    -0.11564362230920D+03

 The electronic state is 1-A.
 Alpha  occ. eigenvalues --  -19.74164 -10.62694  -1.12448  -0.79254  -0.55838
 Alpha  occ. eigenvalues --   -0.52501  -0.49660  -0.40201  -0.34945
 Alpha virt. eigenvalues --    0.01837   0.07678   0.12645   0.12977   0.14883
 Alpha virt. eigenvalues --    0.17217   0.18376   0.25557   0.29522   0.33382
 Alpha virt. eigenvalues --    0.34520   0.38822   0.40594   0.42506   0.44071

 Mulliken charges:
               1
     1  C    0.088148
     2  O   -0.498223
     3  H    0.049263
     4  H    0.040406
     5  H    0.068029
     6  H    0.252378
 Sum of Mulliken charges =   0.00000

 Dipole moment (field-independent basis, Debye):
    X=              0.8847    Y=              1.6382    Z=              0.1597  Tot=              1.8686
 Quadrupole moment (field-independent basis, Debye-Ang):
   XX=            -12.7128   YY=            -11.8294   ZZ=            -13.8710
   XY=             -2.5715   XZ=             -0.1858   YZ=              0.0976

 Normal termination of Gaussian 09 at Wed Aug 26 13:55:47 2020.
