 Gaussian 09, Revision D.01,
 Gaussian 09:  ES64L-G09RevD.01 24-Apr-2013

 --------------------
 #p B2PLYPD3/Def2QZVP
 --------------------

 --------
 methanol
 --------
 Symbolic Z-matrix:
 Charge =  0 Multiplicity = 1

                         Standard orientation:
 ---------------------------------------------------------------------
 Center     Atomic      Atomic             Coordinates (Angstroms)
 Number     Number       Type             X           Y           Z
 ---------------------------------------------------------------------
      1          6           0        0.658644    0.021525   -0.021549
      2          8           0       -0.737357   -0.033707    0.056594
      3          1           0        0.845529    1.066643   -0.514487
      4          1           0        1.115012   -1.037412   -0.528482
      5          1           0        0.970081    0.041157    1.100985
      6          1           0       -0.983629    0.070121   -0.381472
 ---------------------------------------------------------------------

 SCF Done:  E(RB2PLYPD3) =  -114.848003389     A.U. after   11 cycles
 E2(B2PLYPD3) =    -0.1429409606D+00 E(B2PLYPD3) =    -0.11499094434967D+03

 The electronic state is 1-A.
 Alpha  occ. eigenvalues --  -19.68492 -10.69747  -1.34139  -0.84491  -0.61848
 Alpha  occ. eigenvalues --   -0.52468  -0.50949  -0.40837  -0.36422
 Alpha virt. eigenvalues --    0.05006   0.09691   0.11216   0.11669   0.13573
 Alpha virt. eigenvalues --    0.16540   0.17861   0.27564   0.31950   0.32255
 Alpha virt. eigenvalues --    0.34432   0.36948   0.38737   0.41968   0.43814

 Mulliken charges:
               1
     1  C    0.042054
     2  O   -0.035566
     3  H    0.054265
     4  H    0.049826
     5  H    0.080133
     6  H   -0.190711
 Sum of Mulliken charges =   0.00000

 Dipole moment (field-independent basis, Debye):
    X=              0.9387    Y=              0.3587    Z=             -0.9439  Tot=              1.3787
 Quadrupole moment (field-independent basis, Debye-Ang):
   XX=            -13.6454   YY=            -12.9604   ZZ=            -12.6625
   XY=             -0.4912   XZ=              1.6767   YZ=             -0.1786

 Normal termination of Gaussian 09 at Wed Aug 26 21:36:48 2020.
