 Gaussian 09, Revision D.01,
 Gaussian 09:  ES64L-G09RevD.01 24-Apr-2013

 --------------------
 #p B2PLYPD3/Def2QZVP
 --------------------

 --------
 methanol
 --------
 Symbolic Z-matrix:
 Charge =  0 Multiplicity = 1

                         Standard orientation:
 ---------------------------------------------------------------------
 Center     Atomic      Atomic             Coordinates (Angstroms)
 Number     Number       Type             X           Y           Z
 ---------------------------------------------------------------------
      1          6           0       -0.668627    0.025901    0.010755
      2          8           0        0.740399   -0.145352   -0.011662
      3          1           0       -1.043857    0.563139   -0.841426
      4          1           0       -0.959834    0.500569    0.845676
      5          1           0       -1.075545   -0.935612   -0.007566
      6          1           0        1.167807    0.879311    0.032081
 ---------------------------------------------------------------------

 SCF Done:  E(RB2PLYPD3) =  -115.527787763     A.U. after   11 cycles
 E2(B2PLYPD3) =    -0.1496016907D+00 E(B2PLYPD3) =    -0.11567738945382D+03

 The electronic state is 1-A.
 Alpha  occ. eigenvalues --  -19.73506 -10.63665  -1.13700  -0.78911  -0.57117
 Alpha  occ. eigenvalues --   -0.52510  -0.49475  -0.40935  -0.35138
 Alpha virt. eigenvalues --    0.03670   0.07918   0.12591   0.12660   0.14947
 Alpha virt. eigenvalues --    0.17353   0.18139   0.28776   0.30080   0.33367
 Alpha virt. eigenvalues --    0.34128   0.39305   0.39997   0.42039   0.44458

 Mulliken charges:
               1
     1  C    0.084820
     2  O   -0.490632
     3  H    0.042814
     4  H    0.047446
     5  H    0.066730
     6  H    0.248822
 Sum of Mulliken charges =   0.00000

 Dipole moment (field-independent basis, Debye):
    X=             -0.9248    Y=              1.6331    Z=              0.1315  Tot=              1.8814
 Quadrupole moment (field-independent basis, Debye-Ang):
   XX=            -13.0098   YY=            -11.9105   ZZ=            -13.8210
   XY=              2.3772   XZ=              0.0853   YZ=              0.0950

 Normal termination of Gaussian 09 at Thu Aug 27 00:07:54 2020.
