 Gaussian 09, Revision D.01,
 Gaussian 09:  ES64L-G09RevD.01 24-Apr-2013

 --------------------
 #p B2PLYPD3/Def2QZVP
 --------------------

 --------
 methanol
 --------
 Symbolic Z-matrix:
 Charge =  0 Multiplicity = 1

                         Standard orientation:
 ---------------------------------------------------------------------
 Center     Atomic      Atomic             Coordinates (Angstroms)
 Number     Number       Type             X           Y           Z
 ---------------------------------------------------------------------
      1          6           0       -0.634003   -0.020010    0.048264
      2          8           0        0.751303    0.076333   -0.045265
      3          1           0       -0.953192   -0.173510    0.986885
      4          1           0       -1.156728   -0.894318   -0.730414
      5          1           0       -1.130359    1.077316   -0.342675
      6          1           0        1.033874   -0.500093    0.158735
 ---------------------------------------------------------------------

 SCF Done:  E(RB2PLYPD3) =  -115.356378379     A.U. after   11 cycles
 E2(B2PLYPD3) =    -0.1441215582D+00 E(B2PLYPD3) =    -0.11550049993706D+03

 The electronic state is 1-A.
 Alpha  occ. eigenvalues --  -19.70463 -10.68750  -1.27134  -0.81636  -0.63722
 Alpha  occ. eigenvalues --   -0.52012  -0.50127  -0.40482  -0.36262
 Alpha virt. eigenvalues --    0.05076   0.09063   0.10959   0.11992   0.14807
 Alpha virt. eigenvalues --    0.17257   0.18104   0.28202   0.31618   0.32899
 Alpha virt. eigenvalues --    0.34459   0.35778   0.40338   0.42317   0.44210

 Mulliken charges:
               1
     1  C    0.043021
     2  O   -0.205126
     3  H    0.074083
     4  H    0.026608
     5  H    0.056371
     6  H    0.005043
 Sum of Mulliken charges =   0.00000

 Dipole moment (field-independent basis, Debye):
    X=             -0.7953    Y=             -1.1199    Z=              0.6846  Tot=              1.5348
 Quadrupole moment (field-independent basis, Debye-Ang):
   XX=            -13.2913   YY=            -12.8431   ZZ=            -13.4709
   XY=             -1.7441   XZ=              0.4438   YZ=             -0.3612

 Normal termination of Gaussian 09 at Wed Aug 26 20:53:30 2020.
