 Gaussian 09, Revision D.01,
 Gaussian 09:  ES64L-G09RevD.01 24-Apr-2013

 --------------------
 #p B2PLYPD3/Def2QZVP
 --------------------

 --------
 methanol
 --------
 Symbolic Z-matrix:
 Charge =  0 Multiplicity = 1

                         Standard orientation:
 ---------------------------------------------------------------------
 Center     Atomic      Atomic             Coordinates (Angstroms)
 Number     Number       Type             X           Y           Z
 ---------------------------------------------------------------------
      1          6           0       -0.659948   -0.003818    0.009377
      2          8           0        0.735675   -0.129562   -0.013513
      3          1           0       -1.037755    0.629746   -0.844687
      4          1           0       -0.988760    0.470593    0.888277
      5          1           0       -0.997769   -0.911687   -0.052143
      6          1           0        1.098572    0.870750    0.060398
 ---------------------------------------------------------------------

 SCF Done:  E(RB2PLYPD3) =  -115.529458024     A.U. after   11 cycles
 E2(B2PLYPD3) =    -0.1487158496D+00 E(B2PLYPD3) =    -0.11567817387389D+03

 The electronic state is 1-A.
 Alpha  occ. eigenvalues --  -19.73271 -10.63895  -1.15093  -0.78941  -0.58261
 Alpha  occ. eigenvalues --   -0.51481  -0.50715  -0.41730  -0.34691
 Alpha virt. eigenvalues --    0.04003   0.08182   0.12450   0.12707   0.15069
 Alpha virt. eigenvalues --    0.17250   0.17964   0.29116   0.31255   0.33059
 Alpha virt. eigenvalues --    0.34687   0.38480   0.40710   0.41518   0.44156

 Mulliken charges:
               1
     1  C    0.076779
     2  O   -0.473289
     3  H    0.031964
     4  H    0.041619
     5  H    0.077248
     6  H    0.245679
 Sum of Mulliken charges =   0.00000

 Dipole moment (field-independent basis, Debye):
    X=             -0.9037    Y=              1.5275    Z=              0.1924  Tot=              1.7852
 Quadrupole moment (field-independent basis, Debye-Ang):
   XX=            -13.3476   YY=            -11.7794   ZZ=            -13.8642
   XY=              2.3033   XZ=              0.1002   YZ=              0.1590

 Normal termination of Gaussian 09 at Wed Aug 26 11:37:13 2020.
