 Gaussian 09, Revision D.01,
 Gaussian 09:  ES64L-G09RevD.01 24-Apr-2013

 --------------------
 #p B2PLYPD3/Def2QZVP
 --------------------

 --------
 methanol
 --------
 Symbolic Z-matrix:
 Charge =  0 Multiplicity = 1

                         Standard orientation:
 ---------------------------------------------------------------------
 Center     Atomic      Atomic             Coordinates (Angstroms)
 Number     Number       Type             X           Y           Z
 ---------------------------------------------------------------------
      1          6           0        0.668431   -0.011561   -0.003355
      2          8           0       -0.751821    0.101350    0.003656
      3          1           0        0.997905   -0.549728   -0.929794
      4          1           0        0.982002   -0.579385    0.937502
      5          1           0        1.098676    1.007728    0.011313
      6          1           0       -1.074599   -0.620052   -0.028133
 ---------------------------------------------------------------------

 SCF Done:  E(RB2PLYPD3) =  -115.511859244     A.U. after   10 cycles
 E2(B2PLYPD3) =    -0.1448006353D+00 E(B2PLYPD3) =    -0.11565665987975D+03

 The electronic state is 1-A.
 Alpha  occ. eigenvalues --  -19.70687 -10.67072  -1.20641  -0.79895  -0.60406
 Alpha  occ. eigenvalues --   -0.51731  -0.50539  -0.41397  -0.35656
 Alpha virt. eigenvalues --    0.05388   0.08969   0.11935   0.12292   0.14482
 Alpha virt. eigenvalues --    0.17268   0.17665   0.28890   0.32609   0.33023
 Alpha virt. eigenvalues --    0.37391   0.39304   0.39742   0.40053   0.43489

 Mulliken charges:
               1
     1  C    0.065595
     2  O   -0.349847
     3  H    0.048739
     4  H    0.046407
     5  H    0.078761
     6  H    0.110346
 Sum of Mulliken charges =   0.00000

 Dipole moment (field-independent basis, Debye):
    X=              0.9773    Y=             -1.3201    Z=             -0.0819  Tot=              1.6446
 Quadrupole moment (field-independent basis, Debye-Ang):
   XX=            -13.2639   YY=            -12.3644   ZZ=            -13.5884
   XY=              2.1235   XZ=              0.0357   YZ=              0.0597

 Normal termination of Gaussian 09 at Wed Aug 26 23:38:41 2020.
