 Gaussian 09, Revision D.01,
 Gaussian 09:  ES64L-G09RevD.01 24-Apr-2013

 --------------------
 #p B2PLYPD3/Def2QZVP
 --------------------

 --------
 methanol
 --------
 Symbolic Z-matrix:
 Charge =  0 Multiplicity = 1

                         Standard orientation:
 ---------------------------------------------------------------------
 Center     Atomic      Atomic             Coordinates (Angstroms)
 Number     Number       Type             X           Y           Z
 ---------------------------------------------------------------------
      1          6           0        0.672837   -0.022880    0.010949
      2          8           0       -0.753734    0.099671   -0.005927
      3          1           0        1.026462   -0.637179   -0.891324
      4          1           0        1.051695   -0.459565    0.937991
      5          1           0        1.064156    1.053775   -0.102172
      6          1           0       -1.149463   -0.617115    0.037221
 ---------------------------------------------------------------------

 SCF Done:  E(RB2PLYPD3) =  -115.524106829     A.U. after   10 cycles
 E2(B2PLYPD3) =    -0.1454427269D+00 E(B2PLYPD3) =    -0.11566954955541D+03

 The electronic state is 1-A.
 Alpha  occ. eigenvalues --  -19.71038 -10.67331  -1.19178  -0.79652  -0.60339
 Alpha  occ. eigenvalues --   -0.51539  -0.49444  -0.40742  -0.35812
 Alpha virt. eigenvalues --    0.05374   0.08684   0.12003   0.12151   0.14699
 Alpha virt. eigenvalues --    0.16937   0.17996   0.28992   0.32603   0.33314
 Alpha virt. eigenvalues --    0.37025   0.38552   0.39553   0.40544   0.42347

 Mulliken charges:
               1
     1  C    0.061406
     2  O   -0.380891
     3  H    0.048193
     4  H    0.059674
     5  H    0.073001
     6  H    0.138617
 Sum of Mulliken charges =   0.00000

 Dipole moment (field-independent basis, Debye):
    X=              0.8743    Y=             -1.3642    Z=              0.1275  Tot=              1.6253
 Quadrupole moment (field-independent basis, Debye-Ang):
   XX=            -12.9409   YY=            -12.4767   ZZ=            -13.6644
   XY=              2.0655   XZ=             -0.0434   YZ=             -0.1084

 Normal termination of Gaussian 09 at Thu Aug 27 00:01:13 2020.
