 Gaussian 09, Revision D.01,
 Gaussian 09:  ES64L-G09RevD.01 24-Apr-2013

 --------------------
 #p B2PLYPD3/Def2QZVP
 --------------------

 --------
 methanol
 --------
 Symbolic Z-matrix:
 Charge =  0 Multiplicity = 1

                         Standard orientation:
 ---------------------------------------------------------------------
 Center     Atomic      Atomic             Coordinates (Angstroms)
 Number     Number       Type             X           Y           Z
 ---------------------------------------------------------------------
      1          6           0        0.666947    0.050859    0.011398
      2          8           0       -0.735115   -0.174555   -0.006267
      3          1           0        1.014846    0.453963    0.799503
      4          1           0        1.034596    0.573649   -0.778236
      5          1           0        1.117468   -0.915653   -0.058028
      6          1           0       -1.287675    0.979327    0.018509
 ---------------------------------------------------------------------

 SCF Done:  E(RB2PLYPD3) =  -115.476087236     A.U. after   11 cycles
 E2(B2PLYPD3) =    -0.1528515271D+00 E(B2PLYPD3) =    -0.11562893876273D+03

 The electronic state is 1-A.
 Alpha  occ. eigenvalues --  -19.74684 -10.62555  -1.12138  -0.79694  -0.55351
 Alpha  occ. eigenvalues --   -0.53210  -0.48805  -0.39669  -0.35402
 Alpha virt. eigenvalues --    0.01102   0.07466   0.12551   0.13039   0.15034
 Alpha virt. eigenvalues --    0.17356   0.18508   0.24425   0.29442   0.33912
 Alpha virt. eigenvalues --    0.34380   0.38309   0.39559   0.43400   0.44689

 Mulliken charges:
               1
     1  C    0.093860
     2  O   -0.493452
     3  H    0.051333
     4  H    0.044432
     5  H    0.055503
     6  H    0.248323
 Sum of Mulliken charges =   0.00000

 Dipole moment (field-independent basis, Debye):
    X=              0.8860    Y=              1.7485    Z=              0.0769  Tot=              1.9616
 Quadrupole moment (field-independent basis, Debye-Ang):
   XX=            -12.5270   YY=            -11.8662   ZZ=            -13.9515
   XY=             -2.4942   XZ=             -0.0168   YZ=              0.0621

 Normal termination of Gaussian 09 at Wed Aug 26 15:16:45 2020.
