 Gaussian 09, Revision D.01,
 Gaussian 09:  ES64L-G09RevD.01 24-Apr-2013

 --------------------
 #p B2PLYPD3/Def2QZVP
 --------------------

 --------
 methanol
 --------
 Symbolic Z-matrix:
 Charge =  0 Multiplicity = 1

                         Standard orientation:
 ---------------------------------------------------------------------
 Center     Atomic      Atomic             Coordinates (Angstroms)
 Number     Number       Type             X           Y           Z
 ---------------------------------------------------------------------
      1          6           0       -0.658259   -0.021083    0.030546
      2          8           0        0.754381    0.075974   -0.027351
      3          1           0       -1.016480   -0.346452    1.002742
      4          1           0       -1.132858   -0.727901   -0.868602
      5          1           0       -1.062396    1.090390   -0.197395
      6          1           0        1.126245   -0.497332    0.098788
 ---------------------------------------------------------------------

 SCF Done:  E(RB2PLYPD3) =  -115.405383529     A.U. after   11 cycles
 E2(B2PLYPD3) =    -0.1442713016D+00 E(B2PLYPD3) =    -0.11554965483043D+03

 The electronic state is 1-A.
 Alpha  occ. eigenvalues --  -19.70002 -10.68969  -1.24423  -0.81460  -0.62106
 Alpha  occ. eigenvalues --   -0.51360  -0.49607  -0.40317  -0.36129
 Alpha virt. eigenvalues --    0.05275   0.08999   0.11535   0.11888   0.14614
 Alpha virt. eigenvalues --    0.16803   0.18138   0.28611   0.32612   0.32806
 Alpha virt. eigenvalues --    0.35383   0.36636   0.40456   0.40803   0.41977

 Mulliken charges:
               1
     1  C    0.044445
     2  O   -0.236816
     3  H    0.067679
     4  H    0.039911
     5  H    0.072313
     6  H    0.012469
 Sum of Mulliken charges =   0.00000

 Dipole moment (field-independent basis, Debye):
    X=             -0.8093    Y=             -1.1529    Z=              0.4142  Tot=              1.4682
 Quadrupole moment (field-independent basis, Debye-Ang):
   XX=            -12.9326   YY=            -12.7987   ZZ=            -13.5194
   XY=             -1.8461   XZ=              0.3075   YZ=             -0.2740

 Normal termination of Gaussian 09 at Wed Aug 26 10:54:04 2020.
