 Gaussian 09, Revision D.01,
 Gaussian 09:  ES64L-G09RevD.01 24-Apr-2013

 --------------------
 #p B2PLYPD3/Def2QZVP
 --------------------

 --------
 methanol
 --------
 Symbolic Z-matrix:
 Charge =  0 Multiplicity = 1

                         Standard orientation:
 ---------------------------------------------------------------------
 Center     Atomic      Atomic             Coordinates (Angstroms)
 Number     Number       Type             X           Y           Z
 ---------------------------------------------------------------------
      1          6           0        0.657535   -0.025653    0.002506
      2          8           0       -0.744448    0.081941    0.002616
      3          1           0        1.007296   -0.640646   -0.903908
      4          1           0        1.079681   -0.505616    0.945714
      5          1           0        1.084735    1.126008   -0.086901
      6          1           0       -1.161336   -0.481359    0.009132
 ---------------------------------------------------------------------

 SCF Done:  E(RB2PLYPD3) =  -115.415605528     A.U. after   11 cycles
 E2(B2PLYPD3) =    -0.1440557679D+00 E(B2PLYPD3) =    -0.11555966129592D+03

 The electronic state is 1-A.
 Alpha  occ. eigenvalues --  -19.69733 -10.68913  -1.23975  -0.81758  -0.62098
 Alpha  occ. eigenvalues --   -0.51563  -0.49603  -0.39666  -0.36029
 Alpha virt. eigenvalues --    0.05269   0.09124   0.11513   0.12094   0.14699
 Alpha virt. eigenvalues --    0.16782   0.17774   0.28850   0.32810   0.33383
 Alpha virt. eigenvalues --    0.35089   0.38493   0.39210   0.40332   0.41962

 Mulliken charges:
               1
     1  C    0.049982
     2  O   -0.241809
     3  H    0.050409
     4  H    0.056187
     5  H    0.071224
     6  H    0.014007
 Sum of Mulliken charges =   0.00000

 Dipole moment (field-independent basis, Debye):
    X=              0.7309    Y=             -1.2401    Z=              0.0230  Tot=              1.4396
 Quadrupole moment (field-independent basis, Debye-Ang):
   XX=            -12.7750   YY=            -12.6769   ZZ=            -13.6710
   XY=              1.8353   XZ=              0.0482   YZ=             -0.0258

 Normal termination of Gaussian 09 at Wed Aug 26 10:52:36 2020.
