 Gaussian 09, Revision D.01,
 Gaussian 09:  ES64L-G09RevD.01 24-Apr-2013

 --------------------
 #p B2PLYPD3/Def2QZVP
 --------------------

 --------
 methanol
 --------
 Symbolic Z-matrix:
 Charge =  0 Multiplicity = 1

                         Standard orientation:
 ---------------------------------------------------------------------
 Center     Atomic      Atomic             Coordinates (Angstroms)
 Number     Number       Type             X           Y           Z
 ---------------------------------------------------------------------
      1          6           0       -0.660000   -0.060198    0.026208
      2          8           0        0.731969    0.072952   -0.027557
      3          1           0       -0.862543   -0.391572    1.041589
      4          1           0       -1.009633   -0.690142   -0.905859
      5          1           0       -1.154357    1.169199   -0.144844
      6          1           0        1.130778   -0.309910    0.072323
 ---------------------------------------------------------------------

 SCF Done:  E(RB2PLYPD3) =  -115.059698151     A.U. after   11 cycles
 E2(B2PLYPD3) =    -0.1433265098D+00 E(B2PLYPD3) =    -0.11520302466091D+03

 The electronic state is 1-A.
 Alpha  occ. eigenvalues --  -19.67861 -10.70124  -1.30123  -0.85274  -0.62346
 Alpha  occ. eigenvalues --   -0.53819  -0.49072  -0.38017  -0.36556
 Alpha virt. eigenvalues --    0.04759   0.09765   0.10915   0.11675   0.13731
 Alpha virt. eigenvalues --    0.16711   0.17722   0.28334   0.31489   0.32611
 Alpha virt. eigenvalues --    0.32719   0.37577   0.40810   0.41052   0.42818

 Mulliken charges:
               1
     1  C    0.052288
     2  O   -0.107410
     3  H    0.071950
     4  H    0.064266
     5  H    0.053922
     6  H   -0.135016
 Sum of Mulliken charges =   0.00000

 Dipole moment (field-independent basis, Debye):
    X=             -0.7272    Y=             -1.1215    Z=              0.3471  Tot=              1.3809
 Quadrupole moment (field-independent basis, Debye-Ang):
   XX=            -12.9296   YY=            -13.0584   ZZ=            -13.0429
   XY=             -1.5273   XZ=              0.4629   YZ=             -0.0882

 Normal termination of Gaussian 09 at Wed Aug 26 18:38:12 2020.
