 Gaussian 09, Revision D.01,
 Gaussian 09:  ES64L-G09RevD.01 24-Apr-2013

 --------------------
 #p B2PLYPD3/Def2QZVP
 --------------------

 --------
 methanol
 --------
 Symbolic Z-matrix:
 Charge =  0 Multiplicity = 1

                         Standard orientation:
 ---------------------------------------------------------------------
 Center     Atomic      Atomic             Coordinates (Angstroms)
 Number     Number       Type             X           Y           Z
 ---------------------------------------------------------------------
      1          6           0       -0.664433   -0.032097    0.015684
      2          8           0        0.755249    0.110456   -0.024900
      3          1           0       -1.052592   -0.320963    0.939218
      4          1           0       -1.088093   -0.710514   -0.812352
      5          1           0       -1.070361    1.033091   -0.154011
      6          1           0        1.155647   -0.692685    0.132242
 ---------------------------------------------------------------------

 SCF Done:  E(RB2PLYPD3) =  -115.544171100     A.U. after   11 cycles
 E2(B2PLYPD3) =    -0.1469393247D+00 E(B2PLYPD3) =    -0.11569111042446D+03

 The electronic state is 1-A.
 Alpha  occ. eigenvalues --  -19.72389 -10.66540  -1.17090  -0.78867  -0.59600
 Alpha  occ. eigenvalues --   -0.51656  -0.49012  -0.40646  -0.35870
 Alpha virt. eigenvalues --    0.05169   0.08211   0.12016   0.12374   0.14919
 Alpha virt. eigenvalues --    0.17049   0.18447   0.28894   0.33087   0.33614
 Alpha virt. eigenvalues --    0.36423   0.37310   0.38988   0.41231   0.43328

 Mulliken charges:
               1
     1  C    0.059830
     2  O   -0.435024
     3  H    0.061814
     4  H    0.047634
     5  H    0.062334
     6  H    0.203411
 Sum of Mulliken charges =   0.00000

 Dipole moment (field-independent basis, Debye):
    X=             -0.8387    Y=             -1.4423    Z=              0.3857  Tot=              1.7124
 Quadrupole moment (field-independent basis, Debye-Ang):
   XX=            -12.8994   YY=            -12.4737   ZZ=            -13.7392
   XY=             -2.0967   XZ=              0.2913   YZ=             -0.1982

 Normal termination of Gaussian 09 at Wed Aug 26 15:50:40 2020.
