 Gaussian 09, Revision D.01,
 Gaussian 09:  ES64L-G09RevD.01 24-Apr-2013

 --------------------
 #p B2PLYPD3/Def2QZVP
 --------------------

 --------
 methanol
 --------
 Symbolic Z-matrix:
 Charge =  0 Multiplicity = 1

                         Standard orientation:
 ---------------------------------------------------------------------
 Center     Atomic      Atomic             Coordinates (Angstroms)
 Number     Number       Type             X           Y           Z
 ---------------------------------------------------------------------
      1          6           0        0.658579    0.024376    0.000799
      2          8           0       -0.747152   -0.147227   -0.002166
      3          1           0        1.085124    0.459166    0.843325
      4          1           0        1.091840    0.575171   -0.788491
      5          1           0        1.027080   -0.954866   -0.054480
      6          1           0       -1.178302    0.952090    0.012185
 ---------------------------------------------------------------------

 SCF Done:  E(RB2PLYPD3) =  -115.512780553     A.U. after   11 cycles
 E2(B2PLYPD3) =    -0.1514313443D+00 E(B2PLYPD3) =    -0.11566421189725D+03

 The electronic state is 1-A.
 Alpha  occ. eigenvalues --  -19.74566 -10.63843  -1.13340  -0.78702  -0.56806
 Alpha  occ. eigenvalues --   -0.51411  -0.49139  -0.40888  -0.35235
 Alpha virt. eigenvalues --    0.02660   0.07588   0.12390   0.12927   0.15277
 Alpha virt. eigenvalues --    0.17131   0.18487   0.26801   0.29552   0.33903
 Alpha virt. eigenvalues --    0.34433   0.38402   0.39216   0.41829   0.44399

 Mulliken charges:
               1
     1  C    0.076405
     2  O   -0.479129
     3  H    0.045719
     4  H    0.041799
     5  H    0.063529
     6  H    0.251678
 Sum of Mulliken charges =   0.00000

 Dipole moment (field-independent basis, Debye):
    X=              0.9051    Y=              1.6726    Z=              0.0331  Tot=              1.9021
 Quadrupole moment (field-independent basis, Debye-Ang):
   XX=            -12.9579   YY=            -11.7817   ZZ=            -14.0870
   XY=             -2.2782   XZ=             -0.0167   YZ=              0.0253

 Normal termination of Gaussian 09 at Wed Aug 26 14:24:13 2020.
