 Gaussian 09, Revision D.01,
 Gaussian 09:  ES64L-G09RevD.01 24-Apr-2013

 --------------------
 #p B2PLYPD3/Def2QZVP
 --------------------

 --------
 methanol
 --------
 Symbolic Z-matrix:
 Charge =  0 Multiplicity = 1

                         Standard orientation:
 ---------------------------------------------------------------------
 Center     Atomic      Atomic             Coordinates (Angstroms)
 Number     Number       Type             X           Y           Z
 ---------------------------------------------------------------------
      1          6           0       -0.677527   -0.028144    0.022422
      2          8           0        0.729698    0.108927   -0.009848
      3          1           0       -0.887600   -0.463598    0.971054
      4          1           0       -1.062386   -0.617666   -0.886075
      5          1           0       -1.052040    1.000872   -0.106162
      6          1           0        1.229602   -0.622159   -0.034562
 ---------------------------------------------------------------------

 SCF Done:  E(RB2PLYPD3) =  -115.540628309     A.U. after   11 cycles
 E2(B2PLYPD3) =    -0.1459030342D+00 E(B2PLYPD3) =    -0.11568653134331D+03

 The electronic state is 1-A.
 Alpha  occ. eigenvalues --  -19.70972 -10.66282  -1.17182  -0.79587  -0.59106
 Alpha  occ. eigenvalues --   -0.53041  -0.49712  -0.39475  -0.35225
 Alpha virt. eigenvalues --    0.05356   0.08544   0.12133   0.12427   0.14472
 Alpha virt. eigenvalues --    0.16805   0.17982   0.29201   0.32538   0.33405
 Alpha virt. eigenvalues --    0.37244   0.39001   0.39558   0.41083   0.43644

 Mulliken charges:
               1
     1  C    0.069560
     2  O   -0.442324
     3  H    0.062577
     4  H    0.042462
     5  H    0.076036
     6  H    0.191688
 Sum of Mulliken charges =   0.00000

 Dipole moment (field-independent basis, Debye):
    X=             -0.6905    Y=             -1.3502    Z=              0.0160  Tot=              1.5166
 Quadrupole moment (field-independent basis, Debye-Ang):
   XX=            -12.6885   YY=            -12.5998   ZZ=            -13.5321
   XY=             -2.2781   XZ=              0.0536   YZ=             -0.0767

 Normal termination of Gaussian 09 at Wed Aug 26 18:18:22 2020.
