 Gaussian 09, Revision D.01,
 Gaussian 09:  ES64L-G09RevD.01 24-Apr-2013

 --------------------
 #p B2PLYPD3/Def2QZVP
 --------------------

 --------
 methanol
 --------
 Symbolic Z-matrix:
 Charge =  0 Multiplicity = 1

                         Standard orientation:
 ---------------------------------------------------------------------
 Center     Atomic      Atomic             Coordinates (Angstroms)
 Number     Number       Type             X           Y           Z
 ---------------------------------------------------------------------
      1          6           0        0.645191    0.021193   -0.039019
      2          8           0       -0.723780   -0.189865    0.026784
      3          1           0        1.149515    0.627866    0.757664
      4          1           0        0.909168    0.545256   -0.692368
      5          1           0        1.171269   -0.850990    0.002047
      6          1           0       -1.310861    1.069628   -0.047501
 ---------------------------------------------------------------------

 SCF Done:  E(RB2PLYPD3) =  -115.415127153     A.U. after   12 cycles
 E2(B2PLYPD3) =    -0.1550838558D+00 E(B2PLYPD3) =    -0.11557021100868D+03

 The electronic state is 1-A.
 Alpha  occ. eigenvalues --  -19.75511 -10.62130  -1.13053  -0.80395  -0.56968
 Alpha  occ. eigenvalues --   -0.51153  -0.49590  -0.39852  -0.34150
 Alpha virt. eigenvalues --   -0.01581   0.07237   0.12483   0.13494   0.15071
 Alpha virt. eigenvalues --    0.17934   0.18415   0.22070   0.30043   0.32524
 Alpha virt. eigenvalues --    0.35475   0.38359   0.38947   0.41000   0.45532

 Mulliken charges:
               1
     1  C    0.066879
     2  O   -0.473708
     3  H    0.017360
     4  H    0.076369
     5  H    0.065465
     6  H    0.247636
 Sum of Mulliken charges =   0.00000

 Dipole moment (field-independent basis, Debye):
    X=              0.7441    Y=              1.7664    Z=             -0.3100  Tot=              1.9416
 Quadrupole moment (field-independent basis, Debye-Ang):
   XX=            -12.4583   YY=            -11.5272   ZZ=            -14.4058
   XY=             -2.7100   XZ=              0.0308   YZ=             -0.3064

 Normal termination of Gaussian 09 at Wed Aug 26 21:36:31 2020.
