 Gaussian 09, Revision D.01,
 Gaussian 09:  ES64L-G09RevD.01 24-Apr-2013

 --------------------
 #p B2PLYPD3/Def2QZVP
 --------------------

 --------
 methanol
 --------
 Symbolic Z-matrix:
 Charge =  0 Multiplicity = 1

                         Standard orientation:
 ---------------------------------------------------------------------
 Center     Atomic      Atomic             Coordinates (Angstroms)
 Number     Number       Type             X           Y           Z
 ---------------------------------------------------------------------
      1          6           0        0.643042   -0.017296    0.003978
      2          8           0       -0.745268    0.087637   -0.013135
      3          1           0        0.999462   -0.789097   -0.799674
      4          1           0        1.088257   -0.255502    1.041844
      5          1           0        1.059241    1.009604   -0.283547
      6          1           0       -1.043069   -0.562327    0.122590
 ---------------------------------------------------------------------

 SCF Done:  E(RB2PLYPD3) =  -115.456316156     A.U. after   11 cycles
 E2(B2PLYPD3) =    -0.1440988566D+00 E(B2PLYPD3) =    -0.11560041501295D+03

 The electronic state is 1-A.
 Alpha  occ. eigenvalues --  -19.70579 -10.67920  -1.24341  -0.80568  -0.61726
 Alpha  occ. eigenvalues --   -0.51909  -0.50674  -0.40975  -0.35987
 Alpha virt. eigenvalues --    0.05389   0.09091   0.11834   0.12136   0.14577
 Alpha virt. eigenvalues --    0.17115   0.18082   0.28458   0.32853   0.33975
 Alpha virt. eigenvalues --    0.36301   0.38707   0.39270   0.40752   0.43025

 Mulliken charges:
               1
     1  C    0.046129
     2  O   -0.258801
     3  H    0.042787
     4  H    0.048987
     5  H    0.071893
     6  H    0.049005
 Sum of Mulliken charges =   0.00000

 Dipole moment (field-independent basis, Debye):
    X=              0.8431    Y=             -1.2107    Z=              0.2596  Tot=              1.4980
 Quadrupole moment (field-independent basis, Debye-Ang):
   XX=            -13.2981   YY=            -12.5913   ZZ=            -13.5475
   XY=              1.9214   XZ=             -0.3157   YZ=             -0.1772

 Normal termination of Gaussian 09 at Wed Aug 26 14:09:32 2020.
