 Gaussian 09, Revision D.01,
 Gaussian 09:  ES64L-G09RevD.01 24-Apr-2013

 --------------------
 #p B2PLYPD3/Def2QZVP
 --------------------

 --------
 methanol
 --------
 Symbolic Z-matrix:
 Charge =  0 Multiplicity = 1

                         Standard orientation:
 ---------------------------------------------------------------------
 Center     Atomic      Atomic             Coordinates (Angstroms)
 Number     Number       Type             X           Y           Z
 ---------------------------------------------------------------------
      1          6           0       -0.689947   -0.002699    0.004416
      2          8           0        0.762147    0.092180   -0.016563
      3          1           0       -1.032013   -0.401842    0.987876
      4          1           0       -1.028406   -0.708885   -0.861038
      5          1           0       -1.007286    1.015042   -0.130532
      6          1           0        1.110212   -0.625555    0.109703
 ---------------------------------------------------------------------

 SCF Done:  E(RB2PLYPD3) =  -115.517921998     A.U. after   10 cycles
 E2(B2PLYPD3) =    -0.1454325115D+00 E(B2PLYPD3) =    -0.11566335450906D+03

 The electronic state is 1-A.
 Alpha  occ. eigenvalues --  -19.70653 -10.67172  -1.18973  -0.79937  -0.59678
 Alpha  occ. eigenvalues --   -0.50954  -0.50172  -0.41641  -0.35623
 Alpha virt. eigenvalues --    0.05371   0.08760   0.11865   0.12249   0.14540
 Alpha virt. eigenvalues --    0.16796   0.17753   0.28969   0.31568   0.33115
 Alpha virt. eigenvalues --    0.37156   0.39147   0.39740   0.40365   0.42835

 Mulliken charges:
               1
     1  C    0.066288
     2  O   -0.380246
     3  H    0.054498
     4  H    0.048559
     5  H    0.086013
     6  H    0.124889
 Sum of Mulliken charges =   0.00000

 Dipole moment (field-independent basis, Debye):
    X=             -1.0350    Y=             -1.2883    Z=              0.2800  Tot=              1.6761
 Quadrupole moment (field-independent basis, Debye-Ang):
   XX=            -13.2154   YY=            -12.2872   ZZ=            -13.5897
   XY=             -2.0500   XZ=              0.2745   YZ=             -0.1914

 Normal termination of Gaussian 09 at Wed Aug 26 13:59:08 2020.
