 Gaussian 09, Revision D.01,
 Gaussian 09:  ES64L-G09RevD.01 24-Apr-2013

 --------------------
 #p B2PLYPD3/Def2QZVP
 --------------------

 --------
 methanol
 --------
 Symbolic Z-matrix:
 Charge =  0 Multiplicity = 1

                         Standard orientation:
 ---------------------------------------------------------------------
 Center     Atomic      Atomic             Coordinates (Angstroms)
 Number     Number       Type             X           Y           Z
 ---------------------------------------------------------------------
      1          6           0        0.650428    0.028574    0.005115
      2          8           0       -0.745097   -0.058711   -0.020436
      3          1           0        1.148764   -0.103564    1.084811
      4          1           0        0.918323    1.137771   -0.477793
      5          1           0        1.180630   -0.954703   -0.638481
      6          1           0       -1.189508    0.218742    0.164263
 ---------------------------------------------------------------------

 SCF Done:  E(RB2PLYPD3) =  -115.022268947     A.U. after   11 cycles
 E2(B2PLYPD3) =    -0.1442680186D+00 E(B2PLYPD3) =    -0.11516653696592D+03

 The electronic state is 1-A.
 Alpha  occ. eigenvalues --  -19.68426 -10.72039  -1.30157  -0.85949  -0.62288
 Alpha  occ. eigenvalues --   -0.51626  -0.49596  -0.37595  -0.36120
 Alpha virt. eigenvalues --    0.04584   0.09328   0.11097   0.11455   0.13891
 Alpha virt. eigenvalues --    0.16727   0.17784   0.28675   0.31026   0.32119
 Alpha virt. eigenvalues --    0.33503   0.35558   0.36864   0.40868   0.42494

 Mulliken charges:
               1
     1  C    0.054750
     2  O   -0.099851
     3  H    0.056514
     4  H    0.052002
     5  H    0.074643
     6  H   -0.138057
 Sum of Mulliken charges =   0.00000

 Dipole moment (field-independent basis, Debye):
    X=              0.6657    Y=              0.7214    Z=              0.5321  Tot=              1.1166
 Quadrupole moment (field-independent basis, Debye-Ang):
   XX=            -12.4158   YY=            -13.0782   ZZ=            -13.5962
   XY=             -1.5006   XZ=             -0.6271   YZ=              0.0949

 Normal termination of Gaussian 09 at Wed Aug 26 22:47:05 2020.
