 Gaussian 09, Revision D.01,
 Gaussian 09:  ES64L-G09RevD.01 24-Apr-2013

 --------------------
 #p B2PLYPD3/Def2QZVP
 --------------------

 --------
 methanol
 --------
 Symbolic Z-matrix:
 Charge =  0 Multiplicity = 1

                         Standard orientation:
 ---------------------------------------------------------------------
 Center     Atomic      Atomic             Coordinates (Angstroms)
 Number     Number       Type             X           Y           Z
 ---------------------------------------------------------------------
      1          6           0        0.655089    0.002323   -0.038127
      2          8           0       -0.708010   -0.162214    0.035625
      3          1           0        1.010894    0.688459    0.843993
      4          1           0        0.874482    0.448062   -0.822025
      5          1           0        1.073963   -0.797998    0.052807
      6          1           0       -1.225794    0.945250   -0.131007
 ---------------------------------------------------------------------

 SCF Done:  E(RB2PLYPD3) =  -115.452169704     A.U. after   12 cycles
 E2(B2PLYPD3) =    -0.1510751942D+00 E(B2PLYPD3) =    -0.11560324489818D+03

 The electronic state is 1-A.
 Alpha  occ. eigenvalues --  -19.73922 -10.61862  -1.14160  -0.79922  -0.58342
 Alpha  occ. eigenvalues --   -0.51885  -0.51357  -0.40327  -0.33904
 Alpha virt. eigenvalues --    0.01579   0.07865   0.12570   0.13069   0.14944
 Alpha virt. eigenvalues --    0.17761   0.17952   0.25490   0.29573   0.32305
 Alpha virt. eigenvalues --    0.35349   0.38160   0.40833   0.42717   0.46386

 Mulliken charges:
               1
     1  C    0.074973
     2  O   -0.481469
     3  H    0.020014
     4  H    0.046693
     5  H    0.081980
     6  H    0.257810
 Sum of Mulliken charges =   0.00000

 Dipole moment (field-independent basis, Debye):
    X=              0.7050    Y=              1.5509    Z=             -0.4806  Tot=              1.7701
 Quadrupole moment (field-independent basis, Debye-Ang):
   XX=            -12.8571   YY=            -11.7989   ZZ=            -13.8367
   XY=             -2.7699   XZ=              0.1671   YZ=             -0.3960

 Normal termination of Gaussian 09 at Wed Aug 26 23:52:55 2020.
