 Gaussian 09, Revision D.01,
 Gaussian 09:  ES64L-G09RevD.01 24-Apr-2013

 --------------------
 #p B2PLYPD3/Def2QZVP
 --------------------

 --------
 methanol
 --------
 Symbolic Z-matrix:
 Charge =  0 Multiplicity = 1

                         Standard orientation:
 ---------------------------------------------------------------------
 Center     Atomic      Atomic             Coordinates (Angstroms)
 Number     Number       Type             X           Y           Z
 ---------------------------------------------------------------------
      1          6           0        0.665608   -0.005707   -0.022726
      2          8           0       -0.737355   -0.182561    0.017254
      3          1           0        1.083088    0.560082    0.781251
      4          1           0        0.868774    0.522671   -0.764672
      5          1           0        1.032102   -0.791324   -0.004256
      6          1           0       -1.078769    1.203297   -0.013995
 ---------------------------------------------------------------------

 SCF Done:  E(RB2PLYPD3) =  -115.388281711     A.U. after   11 cycles
 E2(B2PLYPD3) =    -0.1562026788D+00 E(B2PLYPD3) =    -0.11554448438955D+03

 The electronic state is 1-A.
 Alpha  occ. eigenvalues --  -19.75322 -10.60654  -1.12190  -0.81102  -0.58435
 Alpha  occ. eigenvalues --   -0.51960  -0.48927  -0.40172  -0.34707
 Alpha virt. eigenvalues --   -0.02084   0.07597   0.12656   0.12932   0.14593
 Alpha virt. eigenvalues --    0.17848   0.17892   0.22314   0.29686   0.32538
 Alpha virt. eigenvalues --    0.34538   0.38134   0.40918   0.41919   0.46151

 Mulliken charges:
               1
     1  C    0.066301
     2  O   -0.477908
     3  H    0.030751
     4  H    0.047793
     5  H    0.103752
     6  H    0.229312
 Sum of Mulliken charges =   0.00000

 Dipole moment (field-independent basis, Debye):
    X=              1.2543    Y=              1.7154    Z=             -0.1503  Tot=              2.1304
 Quadrupole moment (field-independent basis, Debye-Ang):
   XX=            -13.6133   YY=            -10.9101   ZZ=            -14.0167
   XY=             -2.2853   XZ=              0.0676   YZ=             -0.1383

 Normal termination of Gaussian 09 at Wed Aug 26 23:50:10 2020.
