 Gaussian 09, Revision D.01,
 Gaussian 09:  ES64L-G09RevD.01 24-Apr-2013

 --------------------
 #p B2PLYPD3/Def2QZVP
 --------------------

 --------
 methanol
 --------
 Symbolic Z-matrix:
 Charge =  0 Multiplicity = 1

                         Standard orientation:
 ---------------------------------------------------------------------
 Center     Atomic      Atomic             Coordinates (Angstroms)
 Number     Number       Type             X           Y           Z
 ---------------------------------------------------------------------
      1          6           0       -0.671402   -0.025445    0.000317
      2          8           0        0.757841    0.088271   -0.011547
      3          1           0       -1.057891   -0.408428    0.988088
      4          1           0       -1.012571   -0.724887   -0.842803
      5          1           0       -1.125349    1.083232   -0.142920
      6          1           0        1.161500   -0.503422    0.088109
 ---------------------------------------------------------------------

 SCF Done:  E(RB2PLYPD3) =  -115.446117050     A.U. after   11 cycles
 E2(B2PLYPD3) =    -0.1444416120D+00 E(B2PLYPD3) =    -0.11559055866235D+03

 The electronic state is 1-A.
 Alpha  occ. eigenvalues --  -19.69879 -10.68677  -1.22417  -0.80933  -0.61444
 Alpha  occ. eigenvalues --   -0.51429  -0.49339  -0.40154  -0.36113
 Alpha virt. eigenvalues --    0.05325   0.08975   0.11701   0.12025   0.14506
 Alpha virt. eigenvalues --    0.16940   0.17803   0.28889   0.32096   0.33134
 Alpha virt. eigenvalues --    0.35425   0.38458   0.39352   0.40172   0.42116

 Mulliken charges:
               1
     1  C    0.057734
     2  O   -0.281059
     3  H    0.056650
     4  H    0.055236
     5  H    0.074574
     6  H    0.036866
 Sum of Mulliken charges =   0.00000

 Dipole moment (field-independent basis, Debye):
    X=             -0.8854    Y=             -1.2515    Z=              0.2322  Tot=              1.5505
 Quadrupole moment (field-independent basis, Debye-Ang):
   XX=            -12.7656   YY=            -12.6489   ZZ=            -13.6341
   XY=             -1.9498   XZ=              0.2404   YZ=             -0.0868

 Normal termination of Gaussian 09 at Wed Aug 26 15:09:05 2020.
