 Gaussian 09, Revision D.01,
 Gaussian 09:  ES64L-G09RevD.01 24-Apr-2013

 --------------------
 #p B2PLYPD3/Def2QZVP
 --------------------

 --------
 methanol
 --------
 Symbolic Z-matrix:
 Charge =  0 Multiplicity = 1

                         Standard orientation:
 ---------------------------------------------------------------------
 Center     Atomic      Atomic             Coordinates (Angstroms)
 Number     Number       Type             X           Y           Z
 ---------------------------------------------------------------------
      1          6           0       -0.671941    0.011799    0.009067
      2          8           0        0.747427   -0.136252   -0.017494
      3          1           0       -1.027300    0.639475   -0.840193
      4          1           0       -0.981284    0.453559    0.887589
      5          1           0       -1.087095   -0.916781   -0.047071
      6          1           0        1.147911    0.842966    0.085227
 ---------------------------------------------------------------------

 SCF Done:  E(RB2PLYPD3) =  -115.536977989     A.U. after   11 cycles
 E2(B2PLYPD3) =    -0.1488894967D+00 E(B2PLYPD3) =    -0.11568586748595D+03

 The electronic state is 1-A.
 Alpha  occ. eigenvalues --  -19.73208 -10.64295  -1.14090  -0.78969  -0.57338
 Alpha  occ. eigenvalues --   -0.51721  -0.50224  -0.41251  -0.35041
 Alpha virt. eigenvalues --    0.04155   0.07999   0.12446   0.12695   0.14817
 Alpha virt. eigenvalues --    0.17448   0.18050   0.29169   0.31319   0.33206
 Alpha virt. eigenvalues --    0.33609   0.39023   0.40863   0.41112   0.44159

 Mulliken charges:
               1
     1  C    0.082570
     2  O   -0.487363
     3  H    0.039918
     4  H    0.046510
     5  H    0.072337
     6  H    0.246028
 Sum of Mulliken charges =   0.00000

 Dipole moment (field-independent basis, Debye):
    X=             -0.9501    Y=              1.5546    Z=              0.2454  Tot=              1.8384
 Quadrupole moment (field-independent basis, Debye-Ang):
   XX=            -13.0591   YY=            -11.9833   ZZ=            -13.8148
   XY=              2.4058   XZ=              0.1664   YZ=              0.1625

 Normal termination of Gaussian 09 at Thu Aug 27 01:01:36 2020.
