 Gaussian 09, Revision D.01,
 Gaussian 09:  ES64L-G09RevD.01 24-Apr-2013

 --------------------
 #p B2PLYPD3/Def2QZVP
 --------------------

 --------
 methanol
 --------
 Symbolic Z-matrix:
 Charge =  0 Multiplicity = 1

                         Standard orientation:
 ---------------------------------------------------------------------
 Center     Atomic      Atomic             Coordinates (Angstroms)
 Number     Number       Type             X           Y           Z
 ---------------------------------------------------------------------
      1          6           0        0.666491    0.030532    0.018756
      2          8           0       -0.742799   -0.186218   -0.024131
      3          1           0        0.872798    0.303078    0.840420
      4          1           0        1.031674    0.667324   -0.714000
      5          1           0        1.130380   -0.816814   -0.119454
      6          1           0       -1.091409    1.152962    0.073549
 ---------------------------------------------------------------------

 SCF Done:  E(RB2PLYPD3) =  -115.418564241     A.U. after   11 cycles
 E2(B2PLYPD3) =    -0.1553678896D+00 E(B2PLYPD3) =    -0.11557393213083D+03

 The electronic state is 1-A.
 Alpha  occ. eigenvalues --  -19.75151 -10.61039  -1.11815  -0.80833  -0.55746
 Alpha  occ. eigenvalues --   -0.53986  -0.48679  -0.39530  -0.35479
 Alpha virt. eigenvalues --   -0.01106   0.07597   0.12570   0.12805   0.14391
 Alpha virt. eigenvalues --    0.17939   0.18444   0.22570   0.29428   0.33072
 Alpha virt. eigenvalues --    0.34070   0.38788   0.40872   0.43191   0.44689

 Mulliken charges:
               1
     1  C    0.088206
     2  O   -0.485059
     3  H    0.072013
     4  H    0.039673
     5  H    0.050652
     6  H    0.234516
 Sum of Mulliken charges =   0.00000

 Dipole moment (field-independent basis, Debye):
    X=              1.2798    Y=              1.7304    Z=              0.2134  Tot=              2.1628
 Quadrupole moment (field-independent basis, Debye-Ang):
   XX=            -13.4975   YY=            -11.2979   ZZ=            -13.7604
   XY=             -2.3199   XZ=             -0.1888   YZ=              0.1235

 Normal termination of Gaussian 09 at Wed Aug 26 19:19:07 2020.
