 Gaussian 09, Revision D.01,
 Gaussian 09:  ES64L-G09RevD.01 24-Apr-2013

 --------------------
 #p B2PLYPD3/Def2QZVP
 --------------------

 --------
 methanol
 --------
 Symbolic Z-matrix:
 Charge =  0 Multiplicity = 1

                         Standard orientation:
 ---------------------------------------------------------------------
 Center     Atomic      Atomic             Coordinates (Angstroms)
 Number     Number       Type             X           Y           Z
 ---------------------------------------------------------------------
      1          6           0        0.669259   -0.018823   -0.002919
      2          8           0       -0.754825    0.101419    0.001810
      3          1           0        1.014735   -0.605002   -0.894445
      4          1           0        1.093576   -0.467962    0.952167
      5          1           0        1.048222    1.025908   -0.079284
      6          1           0       -1.133486   -0.651356    0.024600
 ---------------------------------------------------------------------

 SCF Done:  E(RB2PLYPD3) =  -115.534947048     A.U. after   10 cycles
 E2(B2PLYPD3) =    -0.1457633320D+00 E(B2PLYPD3) =    -0.11568071037977D+03

 The electronic state is 1-A.
 Alpha  occ. eigenvalues --  -19.71451 -10.67032  -1.18720  -0.79390  -0.59968
 Alpha  occ. eigenvalues --   -0.51366  -0.49776  -0.41047  -0.35740
 Alpha virt. eigenvalues --    0.05363   0.08565   0.12111   0.12239   0.14717
 Alpha virt. eigenvalues --    0.16978   0.18137   0.28942   0.32807   0.33350
 Alpha virt. eigenvalues --    0.37177   0.38911   0.39720   0.39786   0.42791

 Mulliken charges:
               1
     1  C    0.060353
     2  O   -0.397280
     3  H    0.051369
     4  H    0.051120
     5  H    0.074760
     6  H    0.159679
 Sum of Mulliken charges =   0.00000

 Dipole moment (field-independent basis, Debye):
    X=              0.8853    Y=             -1.3659    Z=              0.0191  Tot=              1.6278
 Quadrupole moment (field-independent basis, Debye-Ang):
   XX=            -13.0049   YY=            -12.4323   ZZ=            -13.6927
   XY=              2.1077   XZ=             -0.0231   YZ=             -0.0168

 Normal termination of Gaussian 09 at Thu Aug 27 00:13:55 2020.
