 Gaussian 09, Revision D.01,
 Gaussian 09:  ES64L-G09RevD.01 24-Apr-2013

 --------------------
 #p B2PLYPD3/Def2QZVP
 --------------------

 --------
 methanol
 --------
 Symbolic Z-matrix:
 Charge =  0 Multiplicity = 1

                         Standard orientation:
 ---------------------------------------------------------------------
 Center     Atomic      Atomic             Coordinates (Angstroms)
 Number     Number       Type             X           Y           Z
 ---------------------------------------------------------------------
      1          6           0        0.699168    0.025490   -0.006103
      2          8           0       -0.742134   -0.187656   -0.002000
      3          1           0        1.059967    0.342137    0.919373
      4          1           0        0.853072    0.686867   -0.765652
      5          1           0        1.140412   -0.714141   -0.179544
      6          1           0       -1.311388    1.033442    0.078438
 ---------------------------------------------------------------------

 SCF Done:  E(RB2PLYPD3) =  -115.429141663     A.U. after   11 cycles
 E2(B2PLYPD3) =    -0.1545704323D+00 E(B2PLYPD3) =    -0.11558371209563D+03

 The electronic state is 1-A.
 Alpha  occ. eigenvalues --  -19.74482 -10.61788  -1.10385  -0.80932  -0.54799
 Alpha  occ. eigenvalues --   -0.52772  -0.49529  -0.39256  -0.34895
 Alpha virt. eigenvalues --   -0.00244   0.07523   0.12551   0.13002   0.14242
 Alpha virt. eigenvalues --    0.17828   0.18261   0.23244   0.29351   0.32070
 Alpha virt. eigenvalues --    0.33206   0.39048   0.41476   0.42159   0.44740

 Mulliken charges:
               1
     1  C    0.063997
     2  O   -0.509791
     3  H    0.052086
     4  H    0.047794
     5  H    0.097491
     6  H    0.248423
 Sum of Mulliken charges =   0.00000

 Dipole moment (field-independent basis, Debye):
    X=              1.0264    Y=              1.6556    Z=              0.0502  Tot=              1.9486
 Quadrupole moment (field-independent basis, Debye-Ang):
   XX=            -12.5038   YY=            -11.8196   ZZ=            -13.7518
   XY=             -2.9148   XZ=             -0.1084   YZ=              0.0693

 Normal termination of Gaussian 09 at Wed Aug 26 20:13:11 2020.
