 Gaussian 09, Revision D.01,
 Gaussian 09:  ES64L-G09RevD.01 24-Apr-2013

 --------------------
 #p B2PLYPD3/Def2QZVP
 --------------------

 --------
 methanol
 --------
 Symbolic Z-matrix:
 Charge =  0 Multiplicity = 1

                         Standard orientation:
 ---------------------------------------------------------------------
 Center     Atomic      Atomic             Coordinates (Angstroms)
 Number     Number       Type             X           Y           Z
 ---------------------------------------------------------------------
      1          6           0       -0.654551    0.012337    0.004336
      2          8           0        0.746025   -0.096801   -0.027011
      3          1           0       -1.019554    0.871286   -0.705859
      4          1           0       -1.027679    0.175762    1.063419
      5          1           0       -1.109929   -0.935269   -0.331680
      6          1           0        1.116267    0.588611    0.164197
 ---------------------------------------------------------------------

 SCF Done:  E(RB2PLYPD3) =  -115.515778255     A.U. after   11 cycles
 E2(B2PLYPD3) =    -0.1449273258D+00 E(B2PLYPD3) =    -0.11566070558091D+03

 The electronic state is 1-A.
 Alpha  occ. eigenvalues --  -19.71110 -10.67370  -1.20750  -0.79944  -0.60673
 Alpha  occ. eigenvalues --   -0.51485  -0.50909  -0.40656  -0.35590
 Alpha virt. eigenvalues --    0.05384   0.08794   0.11894   0.12488   0.14490
 Alpha virt. eigenvalues --    0.17265   0.18028   0.28790   0.32831   0.33608
 Alpha virt. eigenvalues --    0.36609   0.39093   0.39934   0.39982   0.43230

 Mulliken charges:
               1
     1  C    0.058837
     2  O   -0.350216
     3  H    0.039452
     4  H    0.048846
     5  H    0.077609
     6  H    0.125471
 Sum of Mulliken charges =   0.00000

 Dipole moment (field-independent basis, Debye):
    X=             -0.8139    Y=              1.2211    Z=              0.3688  Tot=              1.5131
 Quadrupole moment (field-independent basis, Debye-Ang):
   XX=            -13.0114   YY=            -12.6259   ZZ=            -13.6115
   XY=              2.1224   XZ=              0.5605   YZ=              0.2389

 Normal termination of Gaussian 09 at Wed Aug 26 13:02:11 2020.
