 Gaussian 09, Revision D.01,
 Gaussian 09:  ES64L-G09RevD.01 24-Apr-2013

 --------------------
 #p B2PLYPD3/Def2QZVP
 --------------------

 --------
 methanol
 --------
 Symbolic Z-matrix:
 Charge =  0 Multiplicity = 1

                         Standard orientation:
 ---------------------------------------------------------------------
 Center     Atomic      Atomic             Coordinates (Angstroms)
 Number     Number       Type             X           Y           Z
 ---------------------------------------------------------------------
      1          6           0       -0.703280   -0.011997    0.037253
      2          8           0        0.769831    0.053155   -0.036557
      3          1           0       -0.864880   -0.321029    1.088796
      4          1           0       -1.177028   -0.782293   -0.845391
      5          1           0       -1.042205    1.113382   -0.241734
      6          1           0        1.145147   -0.363313    0.067265
 ---------------------------------------------------------------------

 SCF Done:  E(RB2PLYPD3) =  -115.094928258     A.U. after   11 cycles
 E2(B2PLYPD3) =    -0.1440599795D+00 E(B2PLYPD3) =    -0.11523898823716D+03

 The electronic state is 1-A.
 Alpha  occ. eigenvalues --  -19.67454 -10.70704  -1.28090  -0.83231  -0.61097
 Alpha  occ. eigenvalues --   -0.51842  -0.48768  -0.39583  -0.36378
 Alpha virt. eigenvalues --    0.04939   0.09279   0.11126   0.11496   0.13669
 Alpha virt. eigenvalues --    0.16406   0.17564   0.28211   0.29531   0.32106
 Alpha virt. eigenvalues --    0.34345   0.35165   0.39674   0.40995   0.42366

 Mulliken charges:
               1
     1  C    0.058337
     2  O   -0.158077
     3  H    0.078626
     4  H    0.053179
     5  H    0.091473
     6  H   -0.123537
 Sum of Mulliken charges =   0.00000

 Dipole moment (field-independent basis, Debye):
    X=             -1.1258    Y=             -0.9520    Z=              0.3924  Tot=              1.5257
 Quadrupole moment (field-independent basis, Debye-Ang):
   XX=            -12.9203   YY=            -12.7326   ZZ=            -13.1706
   XY=             -1.6946   XZ=              0.5814   YZ=             -0.2463

 Normal termination of Gaussian 09 at Wed Aug 26 22:45:53 2020.
