 Gaussian 09, Revision D.01,
 Gaussian 09:  ES64L-G09RevD.01 24-Apr-2013

 --------------------
 #p B2PLYPD3/Def2QZVP
 --------------------

 --------
 methanol
 --------
 Symbolic Z-matrix:
 Charge =  0 Multiplicity = 1

                         Standard orientation:
 ---------------------------------------------------------------------
 Center     Atomic      Atomic             Coordinates (Angstroms)
 Number     Number       Type             X           Y           Z
 ---------------------------------------------------------------------
      1          6           0       -0.689984   -0.009874    0.001468
      2          8           0        0.769004   -0.176064   -0.010915
      3          1           0       -1.187899    0.594349   -0.756407
      4          1           0       -1.052790    0.476379    0.827714
      5          1           0       -1.023509   -0.770233   -0.016295
      6          1           0        1.252071    1.167255    0.023497
 ---------------------------------------------------------------------

 SCF Done:  E(RB2PLYPD3) =  -115.381073675     A.U. after   12 cycles
 E2(B2PLYPD3) =    -0.1574238427D+00 E(B2PLYPD3) =    -0.11553849751773D+03

 The electronic state is 1-A.
 Alpha  occ. eigenvalues --  -19.75863 -10.62065  -1.10215  -0.81858  -0.56277
 Alpha  occ. eigenvalues --   -0.49809  -0.48842  -0.40454  -0.35021
 Alpha virt. eigenvalues --   -0.01913   0.07118   0.12693   0.13039   0.14474
 Alpha virt. eigenvalues --    0.17605   0.18489   0.21992   0.29161   0.32419
 Alpha virt. eigenvalues --    0.33882   0.36962   0.39700   0.41412   0.43274

 Mulliken charges:
               1
     1  C    0.010703
     2  O   -0.491569
     3  H    0.042615
     4  H    0.046622
     5  H    0.150156
     6  H    0.241472
 Sum of Mulliken charges =   0.00000

 Dipole moment (field-independent basis, Debye):
    X=             -1.1466    Y=              1.6953    Z=              0.1164  Tot=              2.0499
 Quadrupole moment (field-independent basis, Debye-Ang):
   XX=            -12.7495   YY=            -11.2261   ZZ=            -14.2650
   XY=              2.5498   XZ=              0.0507   YZ=              0.0767

 Normal termination of Gaussian 09 at Wed Aug 26 23:44:17 2020.
