 Gaussian 09, Revision D.01,
 Gaussian 09:  ES64L-G09RevD.01 24-Apr-2013

 --------------------
 #p B2PLYPD3/Def2QZVP
 --------------------

 --------
 methanol
 --------
 Symbolic Z-matrix:
 Charge =  0 Multiplicity = 1

                         Standard orientation:
 ---------------------------------------------------------------------
 Center     Atomic      Atomic             Coordinates (Angstroms)
 Number     Number       Type             X           Y           Z
 ---------------------------------------------------------------------
      1          6           0        0.687510   -0.007645    0.034733
      2          8           0       -0.767544   -0.050622   -0.057813
      3          1           0        0.907390   -0.106686    1.107863
      4          1           0        1.204615    1.057583   -0.482407
      5          1           0        1.115775   -0.885975   -0.589569
      6          1           0       -1.212483    0.385922    0.218221
 ---------------------------------------------------------------------

 SCF Done:  E(RB2PLYPD3) =  -115.373383028     A.U. after   11 cycles
 E2(B2PLYPD3) =    -0.1447666159D+00 E(B2PLYPD3) =    -0.11551814964351D+03

 The electronic state is 1-A.
 Alpha  occ. eigenvalues --  -19.69050 -10.70018  -1.23104  -0.81941  -0.60946
 Alpha  occ. eigenvalues --   -0.51678  -0.48931  -0.39395  -0.35916
 Alpha virt. eigenvalues --    0.05154   0.08791   0.11234   0.11998   0.13950
 Alpha virt. eigenvalues --    0.16795   0.17877   0.28566   0.30347   0.31642
 Alpha virt. eigenvalues --    0.34533   0.36688   0.40032   0.40714   0.42225

 Mulliken charges:
               1
     1  C    0.059074
     2  O   -0.256416
     3  H    0.073090
     4  H    0.038583
     5  H    0.091554
     6  H   -0.005885
 Sum of Mulliken charges =   0.00000

 Dipole moment (field-independent basis, Debye):
    X=              0.9192    Y=              0.7703    Z=              0.7224  Tot=              1.4001
 Quadrupole moment (field-independent basis, Debye-Ang):
   XX=            -12.5579   YY=            -13.1626   ZZ=            -13.2630
   XY=             -1.7039   XZ=             -1.1384   YZ=              0.3409

 Normal termination of Gaussian 09 at Wed Aug 26 23:52:38 2020.
