 Gaussian 09, Revision D.01,
 Gaussian 09:  ES64L-G09RevD.01 24-Apr-2013

 --------------------
 #p B2PLYPD3/Def2QZVP
 --------------------

 --------
 methanol
 --------
 Symbolic Z-matrix:
 Charge =  0 Multiplicity = 1

                         Standard orientation:
 ---------------------------------------------------------------------
 Center     Atomic      Atomic             Coordinates (Angstroms)
 Number     Number       Type             X           Y           Z
 ---------------------------------------------------------------------
      1          6           0        0.668718   -0.009397    0.002483
      2          8           0       -0.753879    0.108753   -0.004440
      3          1           0        1.043820   -0.585902   -0.908387
      4          1           0        1.052583   -0.530852    0.919328
      5          1           0        1.082305    0.988075   -0.020062
      6          1           0       -1.159981   -0.684963    0.029744
 ---------------------------------------------------------------------

 SCF Done:  E(RB2PLYPD3) =  -115.546740337     A.U. after   10 cycles
 E2(B2PLYPD3) =    -0.1463908749D+00 E(B2PLYPD3) =    -0.11569313121233D+03

 The electronic state is 1-A.
 Alpha  occ. eigenvalues --  -19.71947 -10.66667  -1.17329  -0.79108  -0.59388
 Alpha  occ. eigenvalues --   -0.50883  -0.50413  -0.41043  -0.35371
 Alpha virt. eigenvalues --    0.05240   0.08348   0.12178   0.12432   0.14762
 Alpha virt. eigenvalues --    0.17194   0.18017   0.29083   0.32988   0.33256
 Alpha virt. eigenvalues --    0.36479   0.38973   0.39564   0.39990   0.43112

 Mulliken charges:
               1
     1  C    0.067265
     2  O   -0.433624
     3  H    0.044611
     4  H    0.047044
     5  H    0.078868
     6  H    0.195836
 Sum of Mulliken charges =   0.00000

 Dipole moment (field-independent basis, Debye):
    X=              0.8531    Y=             -1.3852    Z=              0.0814  Tot=              1.6288
 Quadrupole moment (field-independent basis, Debye-Ang):
   XX=            -12.8817   YY=            -12.3776   ZZ=            -13.8154
   XY=              2.2591   XZ=             -0.0550   YZ=             -0.0549

 Normal termination of Gaussian 09 at Thu Aug 27 00:06:39 2020.
