 Gaussian 09, Revision D.01,
 Gaussian 09:  ES64L-G09RevD.01 24-Apr-2013

 --------------------
 #p B2PLYPD3/Def2QZVP
 --------------------

 --------
 methanol
 --------
 Symbolic Z-matrix:
 Charge =  0 Multiplicity = 1

                         Standard orientation:
 ---------------------------------------------------------------------
 Center     Atomic      Atomic             Coordinates (Angstroms)
 Number     Number       Type             X           Y           Z
 ---------------------------------------------------------------------
      1          6           0        0.690052   -0.017297    0.028747
      2          8           0       -0.761188    0.055987   -0.002639
      3          1           0        1.033252   -0.705436   -0.942707
      4          1           0        0.991459   -0.541352    0.950058
      5          1           0        1.078287    1.218446   -0.128180
      6          1           0       -1.153808   -0.315772   -0.030535
 ---------------------------------------------------------------------

 SCF Done:  E(RB2PLYPD3) =  -114.967585445     A.U. after   12 cycles
 E2(B2PLYPD3) =    -0.1440557533D+00 E(B2PLYPD3) =    -0.11511164119853D+03

 The electronic state is 1-A.
 Alpha  occ. eigenvalues --  -19.67464 -10.71431  -1.29692  -0.84358  -0.62214
 Alpha  occ. eigenvalues --   -0.51246  -0.48722  -0.38929  -0.36351
 Alpha virt. eigenvalues --    0.04565   0.09776   0.10385   0.11554   0.13985
 Alpha virt. eigenvalues --    0.16506   0.17122   0.28573   0.30236   0.32042
 Alpha virt. eigenvalues --    0.32165   0.35571   0.39822   0.40932   0.41837

 Mulliken charges:
               1
     1  C    0.064204
     2  O   -0.123129
     3  H    0.046392
     4  H    0.080756
     5  H    0.085925
     6  H   -0.154149
 Sum of Mulliken charges =   0.00000

 Dipole moment (field-independent basis, Debye):
    X=              1.0259    Y=             -1.0102    Z=              0.0486  Tot=              1.4406
 Quadrupole moment (field-independent basis, Debye-Ang):
   XX=            -12.8366   YY=            -12.5203   ZZ=            -13.4492
   XY=              1.5712   XZ=              0.1981   YZ=             -0.1679

 Normal termination of Gaussian 09 at Wed Aug 26 19:05:27 2020.
