 Gaussian 09, Revision D.01,
 Gaussian 09:  ES64L-G09RevD.01 24-Apr-2013

 --------------------
 #p B2PLYPD3/Def2QZVP
 --------------------

 --------
 methanol
 --------
 Symbolic Z-matrix:
 Charge =  0 Multiplicity = 1

                         Standard orientation:
 ---------------------------------------------------------------------
 Center     Atomic      Atomic             Coordinates (Angstroms)
 Number     Number       Type             X           Y           Z
 ---------------------------------------------------------------------
      1          6           0        0.652428   -0.010024   -0.006913
      2          8           0       -0.757269    0.093079    0.001109
      3          1           0        0.997041   -0.666108   -0.880778
      4          1           0        1.127318   -0.440768    0.975168
      5          1           0        1.074105    1.037922   -0.118625
      6          1           0       -1.054878   -0.615532    0.056841
 ---------------------------------------------------------------------

 SCF Done:  E(RB2PLYPD3) =  -115.494325176     A.U. after   10 cycles
 E2(B2PLYPD3) =    -0.1449366113D+00 E(B2PLYPD3) =    -0.11563926178728D+03

 The electronic state is 1-A.
 Alpha  occ. eigenvalues --  -19.71139 -10.67897  -1.22154  -0.79697  -0.61166
 Alpha  occ. eigenvalues --   -0.51323  -0.50149  -0.41530  -0.35815
 Alpha virt. eigenvalues --    0.05341   0.08810   0.11944   0.12066   0.14741
 Alpha virt. eigenvalues --    0.17198   0.17963   0.28691   0.32614   0.33434
 Alpha virt. eigenvalues --    0.36607   0.38703   0.38847   0.40112   0.42757

 Mulliken charges:
               1
     1  C    0.053357
     2  O   -0.310746
     3  H    0.046728
     4  H    0.043266
     5  H    0.075054
     6  H    0.092341
 Sum of Mulliken charges =   0.00000

 Dipole moment (field-independent basis, Debye):
    X=              0.9167    Y=             -1.2919    Z=              0.0666  Tot=              1.5855
 Quadrupole moment (field-independent basis, Debye-Ang):
   XX=            -13.2678   YY=            -12.4255   ZZ=            -13.7523
   XY=              1.9934   XZ=             -0.0851   YZ=             -0.0461

 Normal termination of Gaussian 09 at Wed Aug 26 12:13:45 2020.
