 Gaussian 09, Revision D.01,
 Gaussian 09:  ES64L-G09RevD.01 24-Apr-2013

 --------------------
 #p B2PLYPD3/Def2QZVP
 --------------------

 --------
 methanol
 --------
 Symbolic Z-matrix:
 Charge =  0 Multiplicity = 1

                         Standard orientation:
 ---------------------------------------------------------------------
 Center     Atomic      Atomic             Coordinates (Angstroms)
 Number     Number       Type             X           Y           Z
 ---------------------------------------------------------------------
      1          6           0        0.661453    0.035106    0.004607
      2          8           0       -0.745109   -0.151592   -0.003500
      3          1           0        0.999795    0.497017    0.842997
      4          1           0        1.013359    0.536596   -0.838724
      5          1           0        1.127934   -0.931030   -0.016050
      6          1           0       -1.148936    0.899518    0.012133
 ---------------------------------------------------------------------

 SCF Done:  E(RB2PLYPD3) =  -115.525137483     A.U. after   11 cycles
 E2(B2PLYPD3) =    -0.1500135157D+00 E(B2PLYPD3) =    -0.11567515099858D+03

 The electronic state is 1-A.
 Alpha  occ. eigenvalues --  -19.73862 -10.63734  -1.13697  -0.78877  -0.56577
 Alpha  occ. eigenvalues --   -0.52947  -0.49309  -0.40647  -0.35410
 Alpha virt. eigenvalues --    0.03459   0.07800   0.12623   0.12646   0.14821
 Alpha virt. eigenvalues --    0.17669   0.18323   0.28284   0.29705   0.33582
 Alpha virt. eigenvalues --    0.34157   0.38970   0.40124   0.42672   0.43879

 Mulliken charges:
               1
     1  C    0.085293
     2  O   -0.487545
     3  H    0.047568
     4  H    0.045479
     5  H    0.058365
     6  H    0.250839
 Sum of Mulliken charges =   0.00000

 Dipole moment (field-independent basis, Debye):
    X=              0.9571    Y=              1.6790    Z=              0.0449  Tot=              1.9331
 Quadrupole moment (field-independent basis, Debye-Ang):
   XX=            -13.0365   YY=            -11.9671   ZZ=            -13.8174
   XY=             -2.3610   XZ=             -0.0196   YZ=              0.0360

 Normal termination of Gaussian 09 at Wed Aug 26 09:02:29 2020.
