 Gaussian 09, Revision D.01,
 Gaussian 09:  ES64L-G09RevD.01 24-Apr-2013

 --------------------
 #p B2PLYPD3/Def2QZVP
 --------------------

 --------
 methanol
 --------
 Symbolic Z-matrix:
 Charge =  0 Multiplicity = 1

                         Standard orientation:
 ---------------------------------------------------------------------
 Center     Atomic      Atomic             Coordinates (Angstroms)
 Number     Number       Type             X           Y           Z
 ---------------------------------------------------------------------
      1          6           0       -0.652545   -0.019206    0.001899
      2          8           0        0.744600    0.110554   -0.007165
      3          1           0       -1.050584   -0.463849    0.928113
      4          1           0       -0.995122   -0.638780   -0.873326
      5          1           0       -1.100249    1.009208   -0.075247
      6          1           0        1.104426   -0.675774    0.066389
 ---------------------------------------------------------------------

 SCF Done:  E(RB2PLYPD3) =  -115.542939006     A.U. after   10 cycles
 E2(B2PLYPD3) =    -0.1457560624D+00 E(B2PLYPD3) =    -0.11568869506810D+03

 The electronic state is 1-A.
 Alpha  occ. eigenvalues --  -19.71853 -10.66505  -1.19013  -0.79069  -0.60298
 Alpha  occ. eigenvalues --   -0.51854  -0.50162  -0.40995  -0.35529
 Alpha virt. eigenvalues --    0.05266   0.08604   0.12231   0.12309   0.14821
 Alpha virt. eigenvalues --    0.17338   0.18003   0.28988   0.33036   0.34029
 Alpha virt. eigenvalues --    0.36992   0.38548   0.39845   0.40492   0.43342

 Mulliken charges:
               1
     1  C    0.063514
     2  O   -0.404160
     3  H    0.047613
     4  H    0.044210
     5  H    0.069204
     6  H    0.179619
 Sum of Mulliken charges =   0.00000

 Dipole moment (field-independent basis, Debye):
    X=             -0.8300    Y=             -1.4142    Z=              0.1576  Tot=              1.6473
 Quadrupole moment (field-independent basis, Debye-Ang):
   XX=            -13.1028   YY=            -12.3785   ZZ=            -13.7478
   XY=             -2.1474   XZ=              0.1075   YZ=             -0.0944

 Normal termination of Gaussian 09 at Wed Aug 26 18:52:18 2020.
