 Gaussian 09, Revision D.01,
 Gaussian 09:  ES64L-G09RevD.01 24-Apr-2013

 --------------------
 #p B2PLYPD3/Def2QZVP
 --------------------

 --------
 methanol
 --------
 Symbolic Z-matrix:
 Charge =  0 Multiplicity = 1

                         Standard orientation:
 ---------------------------------------------------------------------
 Center     Atomic      Atomic             Coordinates (Angstroms)
 Number     Number       Type             X           Y           Z
 ---------------------------------------------------------------------
      1          6           0        0.666756   -0.000502   -0.023540
      2          8           0       -0.767117   -0.015113    0.065877
      3          1           0        1.008290    1.098535   -0.487550
      4          1           0        0.993726   -0.988361   -0.671020
      5          1           0        1.247691   -0.085098    1.066164
      6          1           0       -1.113311    0.098844   -0.293370
 ---------------------------------------------------------------------

 SCF Done:  E(RB2PLYPD3) =  -114.822435973     A.U. after   12 cycles
 E2(B2PLYPD3) =    -0.1440609268D+00 E(B2PLYPD3) =    -0.11496649690007D+03

 The electronic state is 1-A.
 Alpha  occ. eigenvalues --  -19.68506 -10.71966  -1.32407  -0.84550  -0.62097
 Alpha  occ. eigenvalues --   -0.51176  -0.50035  -0.38837  -0.36708
 Alpha virt. eigenvalues --    0.04653   0.09634   0.10905   0.11333   0.13355
 Alpha virt. eigenvalues --    0.17154   0.17642   0.28003   0.30468   0.32140
 Alpha virt. eigenvalues --    0.33297   0.34551   0.36663   0.41158   0.43824

 Mulliken charges:
               1
     1  C    0.058552
     2  O   -0.064638
     3  H    0.051472
     4  H    0.063104
     5  H    0.083626
     6  H   -0.192116
 Sum of Mulliken charges =   0.00000

 Dipole moment (field-independent basis, Debye):
    X=              1.0429    Y=              0.2817    Z=             -0.8789  Tot=              1.3927
 Quadrupole moment (field-independent basis, Debye-Ang):
   XX=            -12.7536   YY=            -13.1771   ZZ=            -13.1129
   XY=             -0.4678   XZ=              1.8460   YZ=             -0.0861

 Normal termination of Gaussian 09 at Wed Aug 26 23:32:28 2020.
