 Gaussian 09, Revision D.01,
 Gaussian 09:  ES64L-G09RevD.01 24-Apr-2013

 --------------------
 #p B2PLYPD3/Def2QZVP
 --------------------

 --------
 methanol
 --------
 Symbolic Z-matrix:
 Charge =  0 Multiplicity = 1

                         Standard orientation:
 ---------------------------------------------------------------------
 Center     Atomic      Atomic             Coordinates (Angstroms)
 Number     Number       Type             X           Y           Z
 ---------------------------------------------------------------------
      1          6           0        0.655689    0.004120    0.000535
      2          8           0       -0.727833   -0.160688    0.008581
      3          1           0        0.925076    0.550774    0.877652
      4          1           0        1.014144    0.498181   -0.814348
      5          1           0        1.020518   -0.831685   -0.039657
      6          1           0       -1.071210    1.043515   -0.095504
 ---------------------------------------------------------------------

 SCF Done:  E(RB2PLYPD3) =  -115.467590571     A.U. after   11 cycles
 E2(B2PLYPD3) =    -0.1521696450D+00 E(B2PLYPD3) =    -0.11561976021628D+03

 The electronic state is 1-A.
 Alpha  occ. eigenvalues --  -19.74345 -10.61924  -1.13634  -0.79580  -0.57053
 Alpha  occ. eigenvalues --   -0.53081  -0.49626  -0.40804  -0.34649
 Alpha virt. eigenvalues --    0.01282   0.07916   0.12486   0.12903   0.14773
 Alpha virt. eigenvalues --    0.17557   0.18149   0.25072   0.29510   0.32889
 Alpha virt. eigenvalues --    0.35299   0.38643   0.40831   0.43312   0.44345

 Mulliken charges:
               1
     1  C    0.079419
     2  O   -0.479212
     3  H    0.041107
     4  H    0.032191
     5  H    0.078473
     6  H    0.248022
 Sum of Mulliken charges =   0.00000

 Dipole moment (field-independent basis, Debye):
    X=              1.0610    Y=              1.6386    Z=             -0.2078  Tot=              1.9632
 Quadrupole moment (field-independent basis, Debye-Ang):
   XX=            -13.5820   YY=            -11.4218   ZZ=            -13.7888
   XY=             -2.3503   XZ=              0.0010   YZ=             -0.1151

 Normal termination of Gaussian 09 at Wed Aug 26 22:50:50 2020.
