 Gaussian 09, Revision D.01,
 Gaussian 09:  ES64L-G09RevD.01 24-Apr-2013

 --------------------
 #p B2PLYPD3/Def2QZVP
 --------------------

 --------
 methanol
 --------
 Symbolic Z-matrix:
 Charge =  0 Multiplicity = 1

                         Standard orientation:
 ---------------------------------------------------------------------
 Center     Atomic      Atomic             Coordinates (Angstroms)
 Number     Number       Type             X           Y           Z
 ---------------------------------------------------------------------
      1          6           0        0.666724    0.017742   -0.006228
      2          8           0       -0.742537   -0.140523    0.009527
      3          1           0        1.070508    0.548277    0.842846
      4          1           0        0.979584    0.540407   -0.838914
      5          1           0        1.055678   -0.947447   -0.021993
      6          1           0       -1.165819    0.876492   -0.020790
 ---------------------------------------------------------------------

 SCF Done:  E(RB2PLYPD3) =  -115.531921258     A.U. after   11 cycles
 E2(B2PLYPD3) =    -0.1495489890D+00 E(B2PLYPD3) =    -0.11568147024650D+03

 The electronic state is 1-A.
 Alpha  occ. eigenvalues --  -19.73570 -10.64026  -1.13895  -0.78706  -0.57419
 Alpha  occ. eigenvalues --   -0.51799  -0.49601  -0.41180  -0.35033
 Alpha virt. eigenvalues --    0.03739   0.07895   0.12514   0.12708   0.15069
 Alpha virt. eigenvalues --    0.17273   0.18097   0.28903   0.30302   0.33343
 Alpha virt. eigenvalues --    0.34239   0.39180   0.39852   0.41521   0.44350

 Mulliken charges:
               1
     1  C    0.081530
     2  O   -0.486626
     3  H    0.042006
     4  H    0.044414
     5  H    0.069814
     6  H    0.248862
 Sum of Mulliken charges =   0.00000

 Dipole moment (field-independent basis, Debye):
    X=              0.9025    Y=              1.6220    Z=             -0.0988  Tot=              1.8587
 Quadrupole moment (field-independent basis, Debye-Ang):
   XX=            -13.0149   YY=            -11.8691   ZZ=            -13.9290
   XY=             -2.3438   XZ=              0.0727   YZ=             -0.0596

 Normal termination of Gaussian 09 at Thu Aug 27 00:05:49 2020.
