 Gaussian 09, Revision D.01,
 Gaussian 09:  ES64L-G09RevD.01 24-Apr-2013

 --------------------
 #p B2PLYPD3/Def2QZVP
 --------------------

 --------
 methanol
 --------
 Symbolic Z-matrix:
 Charge =  0 Multiplicity = 1

                         Standard orientation:
 ---------------------------------------------------------------------
 Center     Atomic      Atomic             Coordinates (Angstroms)
 Number     Number       Type             X           Y           Z
 ---------------------------------------------------------------------
      1          6           0        0.671083    0.039439   -0.004067
      2          8           0       -0.741385   -0.150235    0.000704
      3          1           0        0.992788    0.499925    0.865286
      4          1           0        0.983537    0.551300   -0.824039
      5          1           0        1.120241   -0.947521   -0.023709
      6          1           0       -1.191983    0.861546    0.001229
 ---------------------------------------------------------------------

 SCF Done:  E(RB2PLYPD3) =  -115.529337287     A.U. after   11 cycles
 E2(B2PLYPD3) =    -0.1495825535D+00 E(B2PLYPD3) =    -0.11567891984097D+03

 The electronic state is 1-A.
 Alpha  occ. eigenvalues --  -19.73434 -10.63861  -1.13481  -0.78839  -0.56694
 Alpha  occ. eigenvalues --   -0.53138  -0.49092  -0.40504  -0.35314
 Alpha virt. eigenvalues --    0.03756   0.07847   0.12529   0.12665   0.14814
 Alpha virt. eigenvalues --    0.17447   0.18190   0.28814   0.30082   0.33513
 Alpha virt. eigenvalues --    0.33807   0.38889   0.40083   0.42845   0.44114

 Mulliken charges:
               1
     1  C    0.085444
     2  O   -0.494699
     3  H    0.049404
     4  H    0.049404
     5  H    0.061699
     6  H    0.248749
 Sum of Mulliken charges =   0.00000

 Dipole moment (field-independent basis, Debye):
    X=              0.9120    Y=              1.6677    Z=             -0.0114  Tot=              1.9008
 Quadrupole moment (field-independent basis, Debye-Ang):
   XX=            -12.8894   YY=            -12.0379   ZZ=            -13.7762
   XY=             -2.4035   XZ=             -0.0140   YZ=             -0.0265

 Normal termination of Gaussian 09 at Thu Aug 27 00:12:14 2020.
