 Gaussian 09, Revision D.01,
 Gaussian 09:  ES64L-G09RevD.01 24-Apr-2013

 --------------------
 #p B2PLYPD3/Def2QZVP
 --------------------

 --------
 methanol
 --------
 Symbolic Z-matrix:
 Charge =  0 Multiplicity = 1

                         Standard orientation:
 ---------------------------------------------------------------------
 Center     Atomic      Atomic             Coordinates (Angstroms)
 Number     Number       Type             X           Y           Z
 ---------------------------------------------------------------------
      1          6           0        0.661899    0.046370    0.003697
      2          8           0       -0.728753   -0.166208   -0.010444
      3          1           0        0.967049    0.428228    0.817040
      4          1           0        0.975641    0.570244   -0.787287
      5          1           0        1.064956   -0.931704   -0.027666
      6          1           0       -1.149012    0.984670    0.059283
 ---------------------------------------------------------------------

 SCF Done:  E(RB2PLYPD3) =  -115.485324595     A.U. after   11 cycles
 E2(B2PLYPD3) =    -0.1516177669D+00 E(B2PLYPD3) =    -0.11563694236148D+03

 The electronic state is 1-A.
 Alpha  occ. eigenvalues --  -19.74198 -10.62079  -1.13194  -0.79529  -0.56229
 Alpha  occ. eigenvalues --   -0.54574  -0.48684  -0.40179  -0.35389
 Alpha virt. eigenvalues --    0.02005   0.07851   0.12497   0.12816   0.14980
 Alpha virt. eigenvalues --    0.17375   0.18293   0.25705   0.29443   0.33563
 Alpha virt. eigenvalues --    0.34888   0.38649   0.40017   0.44104   0.45011

 Mulliken charges:
               1
     1  C    0.098017
     2  O   -0.486830
     3  H    0.046306
     4  H    0.043846
     5  H    0.054837
     6  H    0.243823
 Sum of Mulliken charges =   0.00000

 Dipole moment (field-independent basis, Debye):
    X=              1.0105    Y=              1.7380    Z=              0.1472  Tot=              2.0158
 Quadrupole moment (field-independent basis, Debye-Ang):
   XX=            -13.2224   YY=            -11.6577   ZZ=            -13.7435
   XY=             -2.2735   XZ=             -0.0743   YZ=              0.0648

 Normal termination of Gaussian 09 at Wed Aug 26 15:10:27 2020.
