 Gaussian 09, Revision D.01,
 Gaussian 09:  ES64L-G09RevD.01 24-Apr-2013

 --------------------
 #p B2PLYPD3/Def2QZVP
 --------------------

 --------
 methanol
 --------
 Symbolic Z-matrix:
 Charge =  0 Multiplicity = 1

                         Standard orientation:
 ---------------------------------------------------------------------
 Center     Atomic      Atomic             Coordinates (Angstroms)
 Number     Number       Type             X           Y           Z
 ---------------------------------------------------------------------
      1          6           0        0.670515    0.021279   -0.001430
      2          8           0       -0.742334   -0.138131    0.000388
      3          1           0        1.009366    0.536634    0.875358
      4          1           0        1.072224    0.535565   -0.841720
      5          1           0        1.045140   -0.946987   -0.003144
      6          1           0       -1.211150    0.852162   -0.025016
 ---------------------------------------------------------------------

 SCF Done:  E(RB2PLYPD3) =  -115.534646777     A.U. after   11 cycles
 E2(B2PLYPD3) =    -0.1494952747D+00 E(B2PLYPD3) =    -0.11568414205208D+03

 The electronic state is 1-A.
 Alpha  occ. eigenvalues --  -19.73479 -10.64331  -1.13708  -0.78609  -0.57203
 Alpha  occ. eigenvalues --   -0.51686  -0.49609  -0.40843  -0.35065
 Alpha virt. eigenvalues --    0.03870   0.07822   0.12565   0.12662   0.15027
 Alpha virt. eigenvalues --    0.17103   0.18271   0.28956   0.30516   0.33370
 Alpha virt. eigenvalues --    0.34202   0.38955   0.39759   0.41584   0.43905

 Mulliken charges:
               1
     1  C    0.075419
     2  O   -0.489361
     3  H    0.046589
     4  H    0.046266
     5  H    0.071298
     6  H    0.249789
 Sum of Mulliken charges =   0.00000

 Dipole moment (field-independent basis, Debye):
    X=              0.8404    Y=              1.5870    Z=             -0.0488  Tot=              1.7965
 Quadrupole moment (field-independent basis, Debye-Ang):
   XX=            -12.8020   YY=            -12.0238   ZZ=            -13.9059
   XY=             -2.4008   XZ=             -0.0094   YZ=             -0.0345

 Normal termination of Gaussian 09 at Wed Aug 26 10:10:24 2020.
