 Gaussian 09, Revision D.01,
 Gaussian 09:  ES64L-G09RevD.01 24-Apr-2013

 --------------------
 #p B2PLYPD3/Def2QZVP
 --------------------

 --------
 methanol
 --------
 Symbolic Z-matrix:
 Charge =  0 Multiplicity = 1

                         Standard orientation:
 ---------------------------------------------------------------------
 Center     Atomic      Atomic             Coordinates (Angstroms)
 Number     Number       Type             X           Y           Z
 ---------------------------------------------------------------------
      1          6           0       -0.668663   -0.029739   -0.007779
      2          8           0        0.745610    0.139397   -0.004039
      3          1           0       -0.983911   -0.493248    0.894938
      4          1           0       -1.009199   -0.580140   -0.823027
      5          1           0       -1.117031    0.958427   -0.015230
      6          1           0        1.157240   -0.821778    0.022307
 ---------------------------------------------------------------------

 SCF Done:  E(RB2PLYPD3) =  -115.543176149     A.U. after   11 cycles
 E2(B2PLYPD3) =    -0.1485873606D+00 E(B2PLYPD3) =    -0.11569176350947D+03

 The electronic state is 1-A.
 Alpha  occ. eigenvalues --  -19.73099 -10.64556  -1.14432  -0.78681  -0.57516
 Alpha  occ. eigenvalues --   -0.52507  -0.49435  -0.40885  -0.35288
 Alpha virt. eigenvalues --    0.04354   0.08005   0.12446   0.12605   0.14800
 Alpha virt. eigenvalues --    0.17454   0.18128   0.29165   0.31790   0.33351
 Alpha virt. eigenvalues --    0.33848   0.39046   0.40002   0.42007   0.44230

 Mulliken charges:
               1
     1  C    0.079985
     2  O   -0.483958
     3  H    0.046774
     4  H    0.049277
     5  H    0.065258
     6  H    0.242663
 Sum of Mulliken charges =   0.00000

 Dipole moment (field-independent basis, Debye):
    X=             -0.9195    Y=             -1.6129    Z=              0.0356  Tot=              1.8569
 Quadrupole moment (field-independent basis, Debye-Ang):
   XX=            -12.9978   YY=            -12.0805   ZZ=            -13.7954
   XY=             -2.3470   XZ=              0.0956   YZ=              0.0234

 Normal termination of Gaussian 09 at Thu Aug 27 00:02:33 2020.
