 Gaussian 09, Revision D.01,
 Gaussian 09:  ES64L-G09RevD.01 24-Apr-2013

 --------------------
 #p B2PLYPD3/Def2QZVP
 --------------------

 --------
 methanol
 --------
 Symbolic Z-matrix:
 Charge =  0 Multiplicity = 1

                         Standard orientation:
 ---------------------------------------------------------------------
 Center     Atomic      Atomic             Coordinates (Angstroms)
 Number     Number       Type             X           Y           Z
 ---------------------------------------------------------------------
      1          6           0        0.646254    0.028992   -0.004727
      2          8           0       -0.732808   -0.147489   -0.004335
      3          1           0        1.030343    0.510367    0.843183
      4          1           0        0.979980    0.596002   -0.819154
      5          1           0        1.155488   -0.944012   -0.011566
      6          1           0       -1.180875    0.843609    0.050584
 ---------------------------------------------------------------------

 SCF Done:  E(RB2PLYPD3) =  -115.534549048     A.U. after   11 cycles
 E2(B2PLYPD3) =    -0.1489647920D+00 E(B2PLYPD3) =    -0.11568351384036D+03

 The electronic state is 1-A.
 Alpha  occ. eigenvalues --  -19.73637 -10.64255  -1.15061  -0.78383  -0.57827
 Alpha  occ. eigenvalues --   -0.52383  -0.49923  -0.40380  -0.35027
 Alpha virt. eigenvalues --    0.03799   0.07814   0.12577   0.12794   0.15044
 Alpha virt. eigenvalues --    0.17700   0.18192   0.28983   0.30272   0.33330
 Alpha virt. eigenvalues --    0.35110   0.38865   0.39964   0.42177   0.44141

 Mulliken charges:
               1
     1  C    0.079788
     2  O   -0.475478
     3  H    0.039960
     4  H    0.042298
     5  H    0.060974
     6  H    0.252459
 Sum of Mulliken charges =   0.00000

 Dipole moment (field-independent basis, Debye):
    X=              0.7587    Y=              1.6607    Z=              0.1005  Tot=              1.8285
 Quadrupole moment (field-independent basis, Debye-Ang):
   XX=            -12.8226   YY=            -12.0861   ZZ=            -13.9639
   XY=             -2.4074   XZ=             -0.0628   YZ=              0.0294

 Normal termination of Gaussian 09 at Wed Aug 26 14:39:44 2020.
