 Gaussian 09, Revision D.01,
 Gaussian 09:  ES64L-G09RevD.01 24-Apr-2013

 --------------------
 #p B2PLYPD3/Def2QZVP
 --------------------

 --------
 methanol
 --------
 Symbolic Z-matrix:
 Charge =  0 Multiplicity = 1

                         Standard orientation:
 ---------------------------------------------------------------------
 Center     Atomic      Atomic             Coordinates (Angstroms)
 Number     Number       Type             X           Y           Z
 ---------------------------------------------------------------------
      1          6           0       -0.663306   -0.023986    0.000366
      2          8           0        0.749288    0.110562   -0.008916
      3          1           0       -0.977884   -0.518302    0.949511
      4          1           0       -1.046337   -0.567908   -0.910441
      5          1           0       -1.129105    0.993354    0.001521
      6          1           0        1.138859   -0.647724    0.028539
 ---------------------------------------------------------------------

 SCF Done:  E(RB2PLYPD3) =  -115.538502288     A.U. after   10 cycles
 E2(B2PLYPD3) =    -0.1456883926D+00 E(B2PLYPD3) =    -0.11568419068079D+03

 The electronic state is 1-A.
 Alpha  occ. eigenvalues --  -19.71493 -10.66834  -1.18680  -0.79317  -0.59866
 Alpha  occ. eigenvalues --   -0.51864  -0.50173  -0.40546  -0.35667
 Alpha virt. eigenvalues --    0.05350   0.08569   0.12083   0.12436   0.14466
 Alpha virt. eigenvalues --    0.17349   0.18083   0.28936   0.33034   0.33302
 Alpha virt. eigenvalues --    0.36719   0.39184   0.39597   0.40170   0.43522

 Mulliken charges:
               1
     1  C    0.063893
     2  O   -0.405241
     3  H    0.049770
     4  H    0.050474
     5  H    0.071756
     6  H    0.169348
 Sum of Mulliken charges =   0.00000

 Dipole moment (field-independent basis, Debye):
    X=             -0.8560    Y=             -1.3772    Z=              0.0868  Tot=              1.6238
 Quadrupole moment (field-independent basis, Debye-Ang):
   XX=            -12.9397   YY=            -12.5456   ZZ=            -13.6391
   XY=             -2.2313   XZ=              0.1393   YZ=             -0.0270

 Normal termination of Gaussian 09 at Thu Aug 27 00:11:29 2020.
