 Gaussian 09, Revision D.01,
 Gaussian 09:  ES64L-G09RevD.01 24-Apr-2013

 --------------------
 #p B2PLYPD3/Def2QZVP
 --------------------

 --------
 methanol
 --------
 Symbolic Z-matrix:
 Charge =  0 Multiplicity = 1

                         Standard orientation:
 ---------------------------------------------------------------------
 Center     Atomic      Atomic             Coordinates (Angstroms)
 Number     Number       Type             X           Y           Z
 ---------------------------------------------------------------------
      1          6           0       -0.671989   -0.051328   -0.018882
      2          8           0        0.731151    0.141337   -0.010791
      3          1           0       -0.887081   -0.431146    0.930694
      4          1           0       -0.886638   -0.690534   -0.747225
      5          1           0       -1.193580    1.012189   -0.056110
      6          1           0        1.150031   -0.713240    0.072260
 ---------------------------------------------------------------------

 SCF Done:  E(RB2PLYPD3) =  -115.535389686     A.U. after   11 cycles
 E2(B2PLYPD3) =    -0.1469196429D+00 E(B2PLYPD3) =    -0.11568230932889D+03

 The electronic state is 1-A.
 Alpha  occ. eigenvalues --  -19.71781 -10.64911  -1.16183  -0.79072  -0.58909
 Alpha  occ. eigenvalues --   -0.54171  -0.48815  -0.40360  -0.35144
 Alpha virt. eigenvalues --    0.04947   0.08362   0.11975   0.12536   0.14642
 Alpha virt. eigenvalues --    0.17034   0.18021   0.29308   0.32990   0.33139
 Alpha virt. eigenvalues --    0.34860   0.36692   0.40622   0.42820   0.45609

 Mulliken charges:
               1
     1  C    0.086148
     2  O   -0.466932
     3  H    0.048704
     4  H    0.053182
     5  H    0.060582
     6  H    0.218316
 Sum of Mulliken charges =   0.00000

 Dipole moment (field-independent basis, Debye):
    X=             -0.8572    Y=             -1.6289    Z=              0.1544  Tot=              1.8471
 Quadrupole moment (field-independent basis, Debye-Ang):
   XX=            -13.0856   YY=            -12.1733   ZZ=            -13.6746
   XY=             -2.3028   XZ=              0.2138   YZ=              0.0589

 Normal termination of Gaussian 09 at Wed Aug 26 23:56:00 2020.
