 Gaussian 09, Revision D.01,
 Gaussian 09:  ES64L-G09RevD.01 24-Apr-2013

 --------------------
 #p B2PLYPD3/Def2QZVP
 --------------------

 --------
 methanol
 --------
 Symbolic Z-matrix:
 Charge =  0 Multiplicity = 1

                         Standard orientation:
 ---------------------------------------------------------------------
 Center     Atomic      Atomic             Coordinates (Angstroms)
 Number     Number       Type             X           Y           Z
 ---------------------------------------------------------------------
      1          6           0        0.646367    0.006408    0.008559
      2          8           0       -0.735572   -0.035320   -0.062648
      3          1           0        0.966538   -0.610459    1.000711
      4          1           0        0.917360    1.192626    0.087515
      5          1           0        1.213036   -0.479858   -0.931401
      6          1           0       -1.090556    0.141806    0.293004
 ---------------------------------------------------------------------

 SCF Done:  E(RB2PLYPD3) =  -114.943669592     A.U. after   11 cycles
 E2(B2PLYPD3) =    -0.1430184844D+00 E(B2PLYPD3) =    -0.11508668807632D+03

 The electronic state is 1-A.
 Alpha  occ. eigenvalues --  -19.68411 -10.70622  -1.32312  -0.85871  -0.62406
 Alpha  occ. eigenvalues --   -0.52008  -0.51547  -0.39043  -0.35896
 Alpha virt. eigenvalues --    0.04962   0.09772   0.11287   0.11862   0.13690
 Alpha virt. eigenvalues --    0.17132   0.17194   0.27986   0.31806   0.32686
 Alpha virt. eigenvalues --    0.34502   0.37119   0.37281   0.41572   0.43603

 Mulliken charges:
               1
     1  C    0.058424
     2  O   -0.065337
     3  H    0.042495
     4  H    0.042588
     5  H    0.088501
     6  H   -0.166671
 Sum of Mulliken charges =   0.00000

 Dipole moment (field-independent basis, Debye):
    X=              0.7970    Y=              0.3947    Z=              0.8143  Tot=              1.2059
 Quadrupole moment (field-independent basis, Debye-Ang):
   XX=            -12.9104   YY=            -13.2701   ZZ=            -12.9798
   XY=             -0.9499   XZ=             -1.7405   YZ=              0.2199

 Normal termination of Gaussian 09 at Wed Aug 26 19:11:53 2020.
