 Gaussian 09, Revision D.01,
 Gaussian 09:  ES64L-G09RevD.01 24-Apr-2013

 --------------------
 #p B2PLYPD3/Def2QZVP
 --------------------

 --------
 methanol
 --------
 Symbolic Z-matrix:
 Charge =  0 Multiplicity = 1

                         Standard orientation:
 ---------------------------------------------------------------------
 Center     Atomic      Atomic             Coordinates (Angstroms)
 Number     Number       Type             X           Y           Z
 ---------------------------------------------------------------------
      1          6           0        0.652685    0.029779    0.008804
      2          8           0       -0.734731   -0.151338   -0.015185
      3          1           0        1.012415    0.419138    0.829578
      4          1           0        1.020280    0.651560   -0.779745
      5          1           0        1.081077   -0.958226   -0.065545
      6          1           0       -1.152033    0.919555    0.084365
 ---------------------------------------------------------------------

 SCF Done:  E(RB2PLYPD3) =  -115.514098617     A.U. after   11 cycles
 E2(B2PLYPD3) =    -0.1503425122D+00 E(B2PLYPD3) =    -0.11566444112940D+03

 The electronic state is 1-A.
 Alpha  occ. eigenvalues --  -19.74087 -10.63484  -1.14130  -0.78815  -0.57269
 Alpha  occ. eigenvalues --   -0.52541  -0.49304  -0.40690  -0.35145
 Alpha virt. eigenvalues --    0.03003   0.07809   0.12394   0.12873   0.15194
 Alpha virt. eigenvalues --    0.17388   0.18254   0.27584   0.29649   0.33487
 Alpha virt. eigenvalues --    0.35118   0.38504   0.39472   0.42334   0.45055

 Mulliken charges:
               1
     1  C    0.085927
     2  O   -0.479009
     3  H    0.045320
     4  H    0.037756
     5  H    0.059369
     6  H    0.250637
 Sum of Mulliken charges =   0.00000

 Dipole moment (field-independent basis, Debye):
    X=              0.8795    Y=              1.6936    Z=              0.2429  Tot=              1.9238
 Quadrupole moment (field-independent basis, Debye-Ang):
   XX=            -13.0940   YY=            -11.7960   ZZ=            -13.9531
   XY=             -2.2880   XZ=             -0.0896   YZ=              0.1449

 Normal termination of Gaussian 09 at Wed Aug 26 14:38:46 2020.
