 Gaussian 09, Revision D.01,
 Gaussian 09:  ES64L-G09RevD.01 24-Apr-2013

 --------------------
 #p B2PLYPD3/Def2QZVP
 --------------------

 --------
 methanol
 --------
 Symbolic Z-matrix:
 Charge =  0 Multiplicity = 1

                         Standard orientation:
 ---------------------------------------------------------------------
 Center     Atomic      Atomic             Coordinates (Angstroms)
 Number     Number       Type             X           Y           Z
 ---------------------------------------------------------------------
      1          6           0        0.644528    0.035809    0.009204
      2          8           0       -0.718797   -0.189519    0.001219
      3          1           0        0.898192    0.534126    0.793984
      4          1           0        1.073106    0.476523   -0.749730
      5          1           0        1.075182   -0.840437   -0.028709
      6          1           0       -1.163278    1.131089   -0.080525
 ---------------------------------------------------------------------

 SCF Done:  E(RB2PLYPD3) =  -115.430780588     A.U. after   11 cycles
 E2(B2PLYPD3) =    -0.1548174974D+00 E(B2PLYPD3) =    -0.11558559808584D+03

 The electronic state is 1-A.
 Alpha  occ. eigenvalues --  -19.75261 -10.60823  -1.13348  -0.80304  -0.56230
 Alpha  occ. eigenvalues --   -0.54004  -0.49403  -0.39251  -0.35119
 Alpha virt. eigenvalues --   -0.01361   0.07630   0.12711   0.12993   0.14942
 Alpha virt. eigenvalues --    0.17611   0.18459   0.22408   0.29553   0.33060
 Alpha virt. eigenvalues --    0.36130   0.38977   0.39788   0.44477   0.45035

 Mulliken charges:
               1
     1  C    0.112697
     2  O   -0.467513
     3  H    0.038793
     4  H    0.030730
     5  H    0.053138
     6  H    0.232154
 Sum of Mulliken charges =   0.00000

 Dipole moment (field-independent basis, Debye):
    X=              1.0612    Y=              1.7430    Z=             -0.1209  Tot=              2.0442
 Quadrupole moment (field-independent basis, Debye-Ang):
   XX=            -13.1959   YY=            -11.3642   ZZ=            -13.9099
   XY=             -2.3596   XZ=             -0.0402   YZ=             -0.0245

 Normal termination of Gaussian 09 at Wed Aug 26 23:27:37 2020.
