 Gaussian 09, Revision D.01,
 Gaussian 09:  ES64L-G09RevD.01 24-Apr-2013

 --------------------
 #p B2PLYPD3/Def2QZVP
 --------------------

 --------
 methanol
 --------
 Symbolic Z-matrix:
 Charge =  0 Multiplicity = 1

                         Standard orientation:
 ---------------------------------------------------------------------
 Center     Atomic      Atomic             Coordinates (Angstroms)
 Number     Number       Type             X           Y           Z
 ---------------------------------------------------------------------
      1          6           0        0.660597   -0.022166   -0.005755
      2          8           0       -0.752337    0.084679    0.000916
      3          1           0        1.046216   -0.616029   -0.876898
      4          1           0        1.109106   -0.492798    0.933458
      5          1           0        1.012129    1.137400   -0.057526
      6          1           0       -1.112343   -0.573009    0.028171
 ---------------------------------------------------------------------

 SCF Done:  E(RB2PLYPD3) =  -115.473649747     A.U. after   10 cycles
 E2(B2PLYPD3) =    -0.1447462675D+00 E(B2PLYPD3) =    -0.11561839601414D+03

 The electronic state is 1-A.
 Alpha  occ. eigenvalues --  -19.70607 -10.68223  -1.22298  -0.80290  -0.61766
 Alpha  occ. eigenvalues --   -0.51337  -0.49133  -0.40758  -0.36047
 Alpha virt. eigenvalues --    0.05292   0.08907   0.11460   0.12202   0.15028
 Alpha virt. eigenvalues --    0.16722   0.17919   0.28872   0.32788   0.33356
 Alpha virt. eigenvalues --    0.35880   0.38628   0.39564   0.40348   0.41528

 Mulliken charges:
               1
     1  C    0.046880
     2  O   -0.289894
     3  H    0.055623
     4  H    0.052363
     5  H    0.068622
     6  H    0.066407
 Sum of Mulliken charges =   0.00000

 Dipole moment (field-independent basis, Debye):
    X=              0.8237    Y=             -1.3475    Z=              0.0380  Tot=              1.5797
 Quadrupole moment (field-independent basis, Debye-Ang):
   XX=            -13.0707   YY=            -12.4250   ZZ=            -13.7691
   XY=              1.7838   XZ=             -0.0383   YZ=              0.0033

 Normal termination of Gaussian 09 at Wed Aug 26 11:49:22 2020.
