 Gaussian 09, Revision D.01,
 Gaussian 09:  ES64L-G09RevD.01 24-Apr-2013

 --------------------
 #p B2PLYPD3/Def2QZVP
 --------------------

 --------
 methanol
 --------
 Symbolic Z-matrix:
 Charge =  0 Multiplicity = 1

                         Standard orientation:
 ---------------------------------------------------------------------
 Center     Atomic      Atomic             Coordinates (Angstroms)
 Number     Number       Type             X           Y           Z
 ---------------------------------------------------------------------
      1          6           0        0.666079    0.005163   -0.005318
      2          8           0       -0.752922   -0.134738   -0.029080
      3          1           0        1.045870    0.230946    0.981051
      4          1           0        1.048213    0.871062   -0.670369
      5          1           0        1.176921   -0.848956   -0.220843
      6          1           0       -1.244099    0.793870    0.174709
 ---------------------------------------------------------------------

 SCF Done:  E(RB2PLYPD3) =  -115.531715459     A.U. after   11 cycles
 E2(B2PLYPD3) =    -0.1493558864D+00 E(B2PLYPD3) =    -0.11568107134502D+03

 The electronic state is 1-A.
 Alpha  occ. eigenvalues --  -19.73569 -10.65439  -1.13902  -0.78690  -0.56892
 Alpha  occ. eigenvalues --   -0.51292  -0.50161  -0.40363  -0.34792
 Alpha virt. eigenvalues --    0.03993   0.07541   0.12284   0.13027   0.14682
 Alpha virt. eigenvalues --    0.17561   0.18527   0.29200   0.30453   0.33025
 Alpha virt. eigenvalues --    0.33507   0.38012   0.40299   0.41384   0.43019

 Mulliken charges:
               1
     1  C    0.078759
     2  O   -0.487508
     3  H    0.044292
     4  H    0.030687
     5  H    0.077096
     6  H    0.256675
 Sum of Mulliken charges =   0.00000

 Dipole moment (field-independent basis, Debye):
    X=              0.7655    Y=              1.4593    Z=              0.3967  Tot=              1.6950
 Quadrupole moment (field-independent basis, Debye-Ang):
   XX=            -12.4584   YY=            -12.3098   ZZ=            -14.0618
   XY=             -2.6287   XZ=             -0.4672   YZ=              0.2531

 Normal termination of Gaussian 09 at Wed Aug 26 22:45:36 2020.
