 Gaussian 09, Revision D.01,
 Gaussian 09:  ES64L-G09RevD.01 24-Apr-2013

 --------------------
 #p B2PLYPD3/Def2QZVP
 --------------------

 --------
 methanol
 --------
 Symbolic Z-matrix:
 Charge =  0 Multiplicity = 1

                         Standard orientation:
 ---------------------------------------------------------------------
 Center     Atomic      Atomic             Coordinates (Angstroms)
 Number     Number       Type             X           Y           Z
 ---------------------------------------------------------------------
      1          6           0        0.682544   -0.018518   -0.016001
      2          8           0       -0.742794    0.046283    0.009279
      3          1           0        0.897859   -0.903817   -0.791668
      4          1           0        1.180305   -0.216176    1.127231
      5          1           0        0.974011    1.126567   -0.402528
      6          1           0       -1.205087   -0.265731    0.088739
 ---------------------------------------------------------------------

 SCF Done:  E(RB2PLYPD3) =  -115.050240824     A.U. after   12 cycles
 E2(B2PLYPD3) =    -0.1444363197D+00 E(B2PLYPD3) =    -0.11519467714330D+03

 The electronic state is 1-A.
 Alpha  occ. eigenvalues --  -19.67336 -10.72097  -1.28394  -0.85277  -0.60776
 Alpha  occ. eigenvalues --   -0.51269  -0.49503  -0.37618  -0.35808
 Alpha virt. eigenvalues --    0.04595   0.09450   0.11021   0.11329   0.13517
 Alpha virt. eigenvalues --    0.16260   0.17505   0.28830   0.30506   0.31969
 Alpha virt. eigenvalues --    0.33963   0.34844   0.37193   0.40532   0.42729

 Mulliken charges:
               1
     1  C    0.049255
     2  O   -0.129710
     3  H    0.065237
     4  H    0.055907
     5  H    0.092343
     6  H   -0.133032
 Sum of Mulliken charges =   0.00000

 Dipole moment (field-independent basis, Debye):
    X=              0.7492    Y=             -0.8164    Z=              0.1180  Tot=              1.1144
 Quadrupole moment (field-independent basis, Debye-Ang):
   XX=            -12.6807   YY=            -12.8441   ZZ=            -13.4009
   XY=              1.4339   XZ=             -0.1597   YZ=             -0.0507

 Normal termination of Gaussian 09 at Wed Aug 26 23:53:09 2020.
