 Gaussian 09, Revision D.01,
 Gaussian 09:  ES64L-G09RevD.01 24-Apr-2013

 --------------------
 #p B2PLYPD3/Def2QZVP
 --------------------

 --------
 methanol
 --------
 Symbolic Z-matrix:
 Charge =  0 Multiplicity = 1

                         Standard orientation:
 ---------------------------------------------------------------------
 Center     Atomic      Atomic             Coordinates (Angstroms)
 Number     Number       Type             X           Y           Z
 ---------------------------------------------------------------------
      1          6           0        0.670838   -0.026819   -0.005041
      2          8           0       -0.755682    0.107718   -0.000233
      3          1           0        1.000789   -0.577672   -0.885161
      4          1           0        1.050496   -0.484604    0.931029
      5          1           0        1.065353    1.037477   -0.040891
      6          1           0       -1.096211   -0.676029    0.027128
 ---------------------------------------------------------------------

 SCF Done:  E(RB2PLYPD3) =  -115.539216578     A.U. after   10 cycles
 E2(B2PLYPD3) =    -0.1458928798D+00 E(B2PLYPD3) =    -0.11568510945757D+03

 The electronic state is 1-A.
 Alpha  occ. eigenvalues --  -19.71519 -10.66549  -1.18438  -0.79223  -0.59816
 Alpha  occ. eigenvalues --   -0.52140  -0.49251  -0.41272  -0.35890
 Alpha virt. eigenvalues --    0.05320   0.08650   0.12116   0.12192   0.14689
 Alpha virt. eigenvalues --    0.17119   0.18062   0.28974   0.32623   0.33414
 Alpha virt. eigenvalues --    0.37439   0.38188   0.40021   0.40723   0.43223

 Mulliken charges:
               1
     1  C    0.064400
     2  O   -0.407644
     3  H    0.055700
     4  H    0.052809
     5  H    0.068364
     6  H    0.166371
 Sum of Mulliken charges =   0.00000

 Dipole moment (field-independent basis, Debye):
    X=              0.9686    Y=             -1.4396    Z=              0.0340  Tot=              1.7354
 Quadrupole moment (field-independent basis, Debye-Ang):
   XX=            -13.1958   YY=            -12.3279   ZZ=            -13.6290
   XY=              2.0570   XZ=             -0.0432   YZ=              0.0018

 Normal termination of Gaussian 09 at Thu Aug 27 00:09:51 2020.
