 Gaussian 09, Revision D.01,
 Gaussian 09:  ES64L-G09RevD.01 24-Apr-2013

 --------------------
 #p B2PLYPD3/Def2QZVP
 --------------------

 --------
 methanol
 --------
 Symbolic Z-matrix:
 Charge =  0 Multiplicity = 1

                         Standard orientation:
 ---------------------------------------------------------------------
 Center     Atomic      Atomic             Coordinates (Angstroms)
 Number     Number       Type             X           Y           Z
 ---------------------------------------------------------------------
      1          6           0       -0.657443   -0.027685   -0.008574
      2          8           0        0.760224    0.088623   -0.006604
      3          1           0       -1.036397   -0.566418    0.960279
      4          1           0       -0.878716   -0.692458   -0.926768
      5          1           0       -1.308929    1.094371   -0.046034
      6          1           0        1.086905   -0.378367    0.116798
 ---------------------------------------------------------------------

 SCF Done:  E(RB2PLYPD3) =  -115.143908465     A.U. after   11 cycles
 E2(B2PLYPD3) =    -0.1437600884D+00 E(B2PLYPD3) =    -0.11528766855318D+03

 The electronic state is 1-A.
 Alpha  occ. eigenvalues --  -19.68703 -10.70390  -1.29654  -0.82912  -0.62588
 Alpha  occ. eigenvalues --   -0.51935  -0.49440  -0.39784  -0.36427
 Alpha virt. eigenvalues --    0.04827   0.09296   0.11183   0.11746   0.14056
 Alpha virt. eigenvalues --    0.17134   0.17527   0.28482   0.31158   0.31770
 Alpha virt. eigenvalues --    0.33012   0.37307   0.38522   0.40911   0.43665

 Mulliken charges:
               1
     1  C    0.059526
     2  O   -0.147529
     3  H    0.046064
     4  H    0.060649
     5  H    0.073270
     6  H   -0.091979
 Sum of Mulliken charges =   0.00000

 Dipole moment (field-independent basis, Debye):
    X=             -0.9886    Y=             -1.1501    Z=              0.2840  Tot=              1.5430
 Quadrupole moment (field-independent basis, Debye-Ang):
   XX=            -12.9218   YY=            -12.7808   ZZ=            -13.5197
   XY=             -1.9206   XZ=              0.2425   YZ=             -0.0861

 Normal termination of Gaussian 09 at Wed Aug 26 22:37:03 2020.
