 Gaussian 09, Revision D.01,
 Gaussian 09:  ES64L-G09RevD.01 24-Apr-2013

 --------------------
 #p B2PLYPD3/Def2QZVP
 --------------------

 --------
 methanol
 --------
 Symbolic Z-matrix:
 Charge =  0 Multiplicity = 1

                         Standard orientation:
 ---------------------------------------------------------------------
 Center     Atomic      Atomic             Coordinates (Angstroms)
 Number     Number       Type             X           Y           Z
 ---------------------------------------------------------------------
      1          6           0        0.670674    0.034349    0.014861
      2          8           0       -0.729437   -0.162936   -0.016384
      3          1           0        1.135107    0.295528    0.799428
      4          1           0        0.900520    0.743613   -0.770086
      5          1           0        0.998114   -0.911063   -0.159435
      6          1           0       -1.222290    0.969315    0.171997
 ---------------------------------------------------------------------

 SCF Done:  E(RB2PLYPD3) =  -115.477192185     A.U. after   11 cycles
 E2(B2PLYPD3) =    -0.1525466733D+00 E(B2PLYPD3) =    -0.11562973885835D+03

 The electronic state is 1-A.
 Alpha  occ. eigenvalues --  -19.74457 -10.62700  -1.12739  -0.79463  -0.56527
 Alpha  occ. eigenvalues --   -0.53235  -0.48266  -0.40254  -0.34958
 Alpha virt. eigenvalues --    0.01623   0.07713   0.12430   0.12754   0.15049
 Alpha virt. eigenvalues --    0.16838   0.18658   0.25262   0.29409   0.32430
 Alpha virt. eigenvalues --    0.35099   0.38250   0.38878   0.42724   0.46506

 Mulliken charges:
               1
     1  C    0.081983
     2  O   -0.479510
     3  H    0.048329
     4  H    0.039662
     5  H    0.064953
     6  H    0.244583
 Sum of Mulliken charges =   0.00000

 Dipole moment (field-independent basis, Debye):
    X=              0.9101    Y=              1.6270    Z=              0.3696  Tot=              1.9005
 Quadrupole moment (field-independent basis, Debye-Ang):
   XX=            -12.9371   YY=            -11.7431   ZZ=            -13.9223
   XY=             -2.4305   XZ=             -0.0387   YZ=              0.2391

 Normal termination of Gaussian 09 at Wed Aug 26 22:57:49 2020.
