 Gaussian 09, Revision D.01,
 Gaussian 09:  ES64L-G09RevD.01 24-Apr-2013

 --------------------
 #p B2PLYPD3/Def2QZVP
 --------------------

 --------
 methanol
 --------
 Symbolic Z-matrix:
 Charge =  0 Multiplicity = 1

                         Standard orientation:
 ---------------------------------------------------------------------
 Center     Atomic      Atomic             Coordinates (Angstroms)
 Number     Number       Type             X           Y           Z
 ---------------------------------------------------------------------
      1          6           0       -0.663634   -0.014351    0.005529
      2          8           0        0.747663    0.096349   -0.010285
      3          1           0       -1.031138   -0.469024    0.957954
      4          1           0       -1.037680   -0.644466   -0.889157
      5          1           0       -1.065425    1.032826   -0.077721
      6          1           0        1.134741   -0.604028    0.058030
 ---------------------------------------------------------------------

 SCF Done:  E(RB2PLYPD3) =  -115.517461129     A.U. after   10 cycles
 E2(B2PLYPD3) =    -0.1449789695D+00 E(B2PLYPD3) =    -0.11566244009871D+03

 The electronic state is 1-A.
 Alpha  occ. eigenvalues --  -19.70923 -10.67322  -1.20215  -0.79969  -0.60678
 Alpha  occ. eigenvalues --   -0.51358  -0.50281  -0.40831  -0.35632
 Alpha virt. eigenvalues --    0.05402   0.08806   0.12071   0.12201   0.14719
 Alpha virt. eigenvalues --    0.17006   0.17907   0.28960   0.32997   0.33343
 Alpha virt. eigenvalues --    0.37291   0.38920   0.39755   0.39916   0.42648

 Mulliken charges:
               1
     1  C    0.060707
     2  O   -0.357902
     3  H    0.051132
     4  H    0.045017
     5  H    0.077213
     6  H    0.123833
 Sum of Mulliken charges =   0.00000

 Dipole moment (field-independent basis, Debye):
    X=             -0.8285    Y=             -1.3056    Z=              0.1687  Tot=              1.5554
 Quadrupole moment (field-independent basis, Debye-Ang):
   XX=            -12.9775   YY=            -12.4789   ZZ=            -13.6801
   XY=             -2.0869   XZ=              0.1492   YZ=             -0.1095

 Normal termination of Gaussian 09 at Wed Aug 26 23:36:29 2020.
