 Gaussian 09, Revision D.01,
 Gaussian 09:  ES64L-G09RevD.01 24-Apr-2013

 --------------------
 #p B2PLYPD3/Def2QZVP
 --------------------

 --------
 methanol
 --------
 Symbolic Z-matrix:
 Charge =  0 Multiplicity = 1

                         Standard orientation:
 ---------------------------------------------------------------------
 Center     Atomic      Atomic             Coordinates (Angstroms)
 Number     Number       Type             X           Y           Z
 ---------------------------------------------------------------------
      1          6           0        0.679668    0.028884    0.007087
      2          8           0       -0.736397   -0.150927   -0.020928
      3          1           0        0.963746    0.341761    0.931159
      4          1           0        1.044259    0.680298   -0.777938
      5          1           0        1.055444   -0.881127   -0.118240
      6          1           0       -1.250281    0.893180    0.089920
 ---------------------------------------------------------------------

 SCF Done:  E(RB2PLYPD3) =  -115.511486924     A.U. after   11 cycles
 E2(B2PLYPD3) =    -0.1506892038D+00 E(B2PLYPD3) =    -0.11566217612792D+03

 The electronic state is 1-A.
 Alpha  occ. eigenvalues --  -19.73620 -10.63331  -1.12574  -0.79067  -0.55927
 Alpha  occ. eigenvalues --   -0.52597  -0.49699  -0.40247  -0.35018
 Alpha virt. eigenvalues --    0.02994   0.07757   0.12511   0.12915   0.14741
 Alpha virt. eigenvalues --    0.17088   0.18411   0.27538   0.29506   0.33375
 Alpha virt. eigenvalues --    0.33919   0.38840   0.40782   0.42172   0.43815

 Mulliken charges:
               1
     1  C    0.082371
     2  O   -0.503246
     3  H    0.052195
     4  H    0.045899
     5  H    0.069809
     6  H    0.252973
 Sum of Mulliken charges =   0.00000

 Dipole moment (field-independent basis, Debye):
    X=              0.8750    Y=              1.5811    Z=              0.2213  Tot=              1.8206
 Quadrupole moment (field-independent basis, Debye-Ang):
   XX=            -12.7104   YY=            -12.0202   ZZ=            -13.7496
   XY=             -2.5559   XZ=             -0.2696   YZ=              0.1171

 Normal termination of Gaussian 09 at Wed Aug 26 10:58:53 2020.
