 Gaussian 09, Revision D.01,
 Gaussian 09:  ES64L-G09RevD.01 24-Apr-2013

 --------------------
 #p B2PLYPD3/Def2QZVP
 --------------------

 --------
 methanol
 --------
 Symbolic Z-matrix:
 Charge =  0 Multiplicity = 1

                         Standard orientation:
 ---------------------------------------------------------------------
 Center     Atomic      Atomic             Coordinates (Angstroms)
 Number     Number       Type             X           Y           Z
 ---------------------------------------------------------------------
      1          6           0       -0.664042   -0.024691    0.003773
      2          8           0        0.756895    0.096676   -0.007256
      3          1           0       -0.991247   -0.546289    0.938608
      4          1           0       -1.002084   -0.617330   -0.915709
      5          1           0       -1.189248    1.061470   -0.025135
      6          1           0        1.111675   -0.523117    0.037647
 ---------------------------------------------------------------------

 SCF Done:  E(RB2PLYPD3) =  -115.439446365     A.U. after   11 cycles
 E2(B2PLYPD3) =    -0.1442008262D+00 E(B2PLYPD3) =    -0.11558364719130D+03

 The electronic state is 1-A.
 Alpha  occ. eigenvalues --  -19.69936 -10.68423  -1.23313  -0.80772  -0.61608
 Alpha  occ. eigenvalues --   -0.51772  -0.49743  -0.40517  -0.36116
 Alpha virt. eigenvalues --    0.05319   0.09063   0.11834   0.11973   0.14388
 Alpha virt. eigenvalues --    0.17336   0.17599   0.28763   0.32435   0.32963
 Alpha virt. eigenvalues --    0.35091   0.38584   0.39583   0.40115   0.43070

 Mulliken charges:
               1
     1  C    0.060373
     2  O   -0.272480
     3  H    0.054189
     4  H    0.051599
     5  H    0.072613
     6  H    0.033706
 Sum of Mulliken charges =   0.00000

 Dipole moment (field-independent basis, Debye):
    X=             -0.9394    Y=             -1.2931    Z=              0.1194  Tot=              1.6027
 Quadrupole moment (field-independent basis, Debye-Ang):
   XX=            -12.9596   YY=            -12.6118   ZZ=            -13.6030
   XY=             -2.0325   XZ=              0.1074   YZ=             -0.0649

 Normal termination of Gaussian 09 at Wed Aug 26 14:19:21 2020.
