 Gaussian 09, Revision D.01,
 Gaussian 09:  ES64L-G09RevD.01 24-Apr-2013

 --------------------
 #p B2PLYPD3/Def2QZVP
 --------------------

 --------
 methanol
 --------
 Symbolic Z-matrix:
 Charge =  0 Multiplicity = 1

                         Standard orientation:
 ---------------------------------------------------------------------
 Center     Atomic      Atomic             Coordinates (Angstroms)
 Number     Number       Type             X           Y           Z
 ---------------------------------------------------------------------
      1          6           0       -0.655610   -0.018599   -0.000431
      2          8           0        0.744788    0.115617   -0.002135
      3          1           0       -1.004335   -0.529435    0.919661
      4          1           0       -1.047551   -0.527854   -0.904843
      5          1           0       -1.061670    0.982228    0.008588
      6          1           0        1.088911   -0.738281   -0.003746
 ---------------------------------------------------------------------

 SCF Done:  E(RB2PLYPD3) =  -115.551379704     A.U. after   10 cycles
 E2(B2PLYPD3) =    -0.1465696602D+00 E(B2PLYPD3) =    -0.11569794936379D+03

 The electronic state is 1-A.
 Alpha  occ. eigenvalues --  -19.72327 -10.65807  -1.17648  -0.78761  -0.59322
 Alpha  occ. eigenvalues --   -0.51970  -0.50218  -0.41215  -0.35473
 Alpha virt. eigenvalues --    0.05110   0.08468   0.12211   0.12497   0.14769
 Alpha virt. eigenvalues --    0.17310   0.18184   0.28973   0.33215   0.33843
 Alpha virt. eigenvalues --    0.36197   0.38677   0.40345   0.40678   0.43923

 Mulliken charges:
               1
     1  C    0.063443
     2  O   -0.433468
     3  H    0.046005
     4  H    0.046469
     5  H    0.069601
     6  H    0.207951
 Sum of Mulliken charges =   0.00000

 Dipole moment (field-independent basis, Debye):
    X=             -0.8801    Y=             -1.4475    Z=             -0.0002  Tot=              1.6940
 Quadrupole moment (field-independent basis, Debye-Ang):
   XX=            -13.2377   YY=            -12.2671   ZZ=            -13.7029
   XY=             -2.1862   XZ=              0.0329   YZ=              0.0099

 Normal termination of Gaussian 09 at Wed Aug 26 23:58:21 2020.
