 Gaussian 09, Revision D.01,
 Gaussian 09:  ES64L-G09RevD.01 24-Apr-2013

 --------------------
 #p B2PLYPD3/Def2QZVP
 --------------------

 --------
 methanol
 --------
 Symbolic Z-matrix:
 Charge =  0 Multiplicity = 1

                         Standard orientation:
 ---------------------------------------------------------------------
 Center     Atomic      Atomic             Coordinates (Angstroms)
 Number     Number       Type             X           Y           Z
 ---------------------------------------------------------------------
      1          6           0       -0.667225    0.013673   -0.000656
      2          8           0        0.756714   -0.134739   -0.005482
      3          1           0       -1.100953    0.543597   -0.832057
      4          1           0       -1.025187    0.545941    0.847547
      5          1           0       -1.070171   -0.963806    0.024193
      6          1           0        1.145949    0.870144    0.008108
 ---------------------------------------------------------------------

 SCF Done:  E(RB2PLYPD3) =  -115.537601519     A.U. after   11 cycles
 E2(B2PLYPD3) =    -0.1495824328D+00 E(B2PLYPD3) =    -0.11568718395154D+03

 The electronic state is 1-A.
 Alpha  occ. eigenvalues --  -19.73748 -10.64726  -1.13933  -0.78630  -0.57449
 Alpha  occ. eigenvalues --   -0.51110  -0.49402  -0.41543  -0.35217
 Alpha virt. eigenvalues --    0.03992   0.07784   0.12401   0.12692   0.15072
 Alpha virt. eigenvalues --    0.17356   0.18178   0.28975   0.30848   0.33326
 Alpha virt. eigenvalues --    0.33909   0.38866   0.39562   0.40991   0.44061

 Mulliken charges:
               1
     1  C    0.077624
     2  O   -0.482057
     3  H    0.044174
     4  H    0.043457
     5  H    0.069270
     6  H    0.247533
 Sum of Mulliken charges =   0.00000

 Dipole moment (field-independent basis, Debye):
    X=             -0.9557    Y=              1.6159    Z=              0.0434  Tot=              1.8779
 Quadrupole moment (field-independent basis, Debye-Ang):
   XX=            -13.0267   YY=            -11.8987   ZZ=            -14.0258
   XY=              2.2770   XZ=              0.0592   YZ=              0.0096

 Normal termination of Gaussian 09 at Wed Aug 26 14:15:52 2020.
