 Gaussian 09, Revision D.01,
 Gaussian 09:  ES64L-G09RevD.01 24-Apr-2013

 --------------------
 #p B2PLYPD3/Def2QZVP
 --------------------

 --------
 methanol
 --------
 Symbolic Z-matrix:
 Charge =  0 Multiplicity = 1

                         Standard orientation:
 ---------------------------------------------------------------------
 Center     Atomic      Atomic             Coordinates (Angstroms)
 Number     Number       Type             X           Y           Z
 ---------------------------------------------------------------------
      1          6           0       -0.673922    0.012806   -0.037565
      2          8           0        0.762530   -0.184242    0.017805
      3          1           0       -1.025492    0.428563   -0.784782
      4          1           0       -1.140369    0.553962    0.829737
      5          1           0       -1.094480   -0.760586    0.071720
      6          1           0        1.203638    1.175158   -0.033727
 ---------------------------------------------------------------------

 SCF Done:  E(RB2PLYPD3) =  -115.392412747     A.U. after   12 cycles
 E2(B2PLYPD3) =    -0.1571493969D+00 E(B2PLYPD3) =    -0.11554956214408D+03

 The electronic state is 1-A.
 Alpha  occ. eigenvalues --  -19.75991 -10.61688  -1.10811  -0.81961  -0.56074
 Alpha  occ. eigenvalues --   -0.50556  -0.49271  -0.39859  -0.35351
 Alpha virt. eigenvalues --   -0.02023   0.07172   0.12712   0.12951   0.14546
 Alpha virt. eigenvalues --    0.17843   0.18817   0.21835   0.29336   0.33053
 Alpha virt. eigenvalues --    0.33353   0.37150   0.40897   0.41068   0.45161

 Mulliken charges:
               1
     1  C    0.071511
     2  O   -0.482369
     3  H    0.052041
     4  H    0.031834
     5  H    0.086169
     6  H    0.240814
 Sum of Mulliken charges =   0.00000

 Dipole moment (field-independent basis, Debye):
    X=             -1.1681    Y=              1.6644    Z=             -0.1991  Tot=              2.0431
 Quadrupole moment (field-independent basis, Debye-Ang):
   XX=            -12.9231   YY=            -11.4235   ZZ=            -14.0330
   XY=              2.5964   XZ=             -0.0074   YZ=             -0.2359

 Normal termination of Gaussian 09 at Wed Aug 26 23:25:26 2020.
