 Gaussian 09, Revision D.01,
 Gaussian 09:  ES64L-G09RevD.01 24-Apr-2013

 --------------------
 #p B2PLYPD3/Def2QZVP
 --------------------

 --------
 methanol
 --------
 Symbolic Z-matrix:
 Charge =  0 Multiplicity = 1

                         Standard orientation:
 ---------------------------------------------------------------------
 Center     Atomic      Atomic             Coordinates (Angstroms)
 Number     Number       Type             X           Y           Z
 ---------------------------------------------------------------------
      1          6           0       -0.649133   -0.001700    0.009899
      2          8           0        0.754334    0.093514   -0.012106
      3          1           0       -1.043443   -0.488618    0.965620
      4          1           0       -1.001496   -0.656351   -0.934733
      5          1           0       -1.132413    0.995646   -0.081217
      6          1           0        1.037472   -0.588589    0.087788
 ---------------------------------------------------------------------

 SCF Done:  E(RB2PLYPD3) =  -115.472581173     A.U. after   10 cycles
 E2(B2PLYPD3) =    -0.1444451982D+00 E(B2PLYPD3) =    -0.11561702637098D+03

 The electronic state is 1-A.
 Alpha  occ. eigenvalues --  -19.70802 -10.67975  -1.23328  -0.80149  -0.61437
 Alpha  occ. eigenvalues --   -0.51270  -0.51129  -0.41537  -0.35632
 Alpha virt. eigenvalues --    0.05336   0.09014   0.11707   0.12298   0.14483
 Alpha virt. eigenvalues --    0.17524   0.17768   0.28542   0.32405   0.33521
 Alpha virt. eigenvalues --    0.36227   0.38521   0.39422   0.40208   0.43439

 Mulliken charges:
               1
     1  C    0.054838
     2  O   -0.284711
     3  H    0.045524
     4  H    0.035070
     5  H    0.080713
     6  H    0.068564
 Sum of Mulliken charges =   0.00000

 Dipole moment (field-independent basis, Debye):
    X=             -0.9371    Y=             -1.2065    Z=              0.2548  Tot=              1.5488
 Quadrupole moment (field-independent basis, Debye-Ang):
   XX=            -13.3018   YY=            -12.5212   ZZ=            -13.6596
   XY=             -2.0858   XZ=              0.1450   YZ=             -0.2029

 Normal termination of Gaussian 09 at Wed Aug 26 14:45:02 2020.
