 Gaussian 09, Revision D.01,
 Gaussian 09:  ES64L-G09RevD.01 24-Apr-2013

 --------------------
 #p B2PLYPD3/Def2QZVP
 --------------------

 --------
 methanol
 --------
 Symbolic Z-matrix:
 Charge =  0 Multiplicity = 1

                         Standard orientation:
 ---------------------------------------------------------------------
 Center     Atomic      Atomic             Coordinates (Angstroms)
 Number     Number       Type             X           Y           Z
 ---------------------------------------------------------------------
      1          6           0        0.673922   -0.011455    0.005448
      2          8           0       -0.756404    0.099051   -0.007919
      3          1           0        1.050336   -0.628514   -0.898594
      4          1           0        1.038312   -0.470761    0.966031
      5          1           0        1.066675    1.005147   -0.077388
      6          1           0       -1.147623   -0.629547    0.040621
 ---------------------------------------------------------------------

 SCF Done:  E(RB2PLYPD3) =  -115.528842281     A.U. after   10 cycles
 E2(B2PLYPD3) =    -0.1455283186D+00 E(B2PLYPD3) =    -0.11567437059920D+03

 The electronic state is 1-A.
 Alpha  occ. eigenvalues --  -19.71157 -10.67205  -1.18842  -0.79722  -0.59909
 Alpha  occ. eigenvalues --   -0.51066  -0.50306  -0.40974  -0.35637
 Alpha virt. eigenvalues --    0.05392   0.08615   0.12006   0.12355   0.14588
 Alpha virt. eigenvalues --    0.17034   0.18004   0.28968   0.32551   0.33134
 Alpha virt. eigenvalues --    0.37003   0.39288   0.39584   0.39832   0.42850

 Mulliken charges:
               1
     1  C    0.063945
     2  O   -0.391300
     3  H    0.046229
     4  H    0.052512
     5  H    0.080622
     6  H    0.147992
 Sum of Mulliken charges =   0.00000

 Dipole moment (field-independent basis, Debye):
    X=              0.8994    Y=             -1.3131    Z=              0.1176  Tot=              1.5959
 Quadrupole moment (field-independent basis, Debye-Ang):
   XX=            -12.9299   YY=            -12.4715   ZZ=            -13.6744
   XY=              2.1669   XZ=             -0.1168   YZ=             -0.0910

 Normal termination of Gaussian 09 at Wed Aug 26 21:39:56 2020.
