 Gaussian 09, Revision D.01,
 Gaussian 09:  ES64L-G09RevD.01 24-Apr-2013

 --------------------
 #p B2PLYPD3/Def2QZVP
 --------------------

 --------
 methanol
 --------
 Symbolic Z-matrix:
 Charge =  0 Multiplicity = 1

                         Standard orientation:
 ---------------------------------------------------------------------
 Center     Atomic      Atomic             Coordinates (Angstroms)
 Number     Number       Type             X           Y           Z
 ---------------------------------------------------------------------
      1          6           0        0.661507   -0.013157    0.008324
      2          8           0       -0.752853    0.084109   -0.013084
      3          1           0        1.125977   -0.647178   -0.887459
      4          1           0        1.027905   -0.478195    0.979075
      5          1           0        1.070400    1.071488   -0.072362
      6          1           0       -1.170501   -0.540041    0.035477
 ---------------------------------------------------------------------

 SCF Done:  E(RB2PLYPD3) =  -115.475545262     A.U. after   10 cycles
 E2(B2PLYPD3) =    -0.1447565103D+00 E(B2PLYPD3) =    -0.11562030177201D+03

 The electronic state is 1-A.
 Alpha  occ. eigenvalues --  -19.70521 -10.68574  -1.21785  -0.80687  -0.61323
 Alpha  occ. eigenvalues --   -0.50851  -0.49982  -0.40281  -0.35772
 Alpha virt. eigenvalues --    0.05373   0.08778   0.11879   0.12050   0.14715
 Alpha virt. eigenvalues --    0.16870   0.17962   0.28877   0.32720   0.33174
 Alpha virt. eigenvalues --    0.36380   0.37813   0.39214   0.40056   0.41966

 Mulliken charges:
               1
     1  C    0.052646
     2  O   -0.299250
     3  H    0.044109
     4  H    0.053405
     5  H    0.079249
     6  H    0.069841
 Sum of Mulliken charges =   0.00000

 Dipole moment (field-independent basis, Debye):
    X=              0.7671    Y=             -1.2194    Z=              0.1556  Tot=              1.4490
 Quadrupole moment (field-independent basis, Debye-Ang):
   XX=            -12.7375   YY=            -12.6562   ZZ=            -13.7576
   XY=              1.9929   XZ=             -0.1629   YZ=             -0.1016

 Normal termination of Gaussian 09 at Wed Aug 26 12:38:45 2020.
