 Gaussian 09, Revision D.01,
 Gaussian 09:  ES64L-G09RevD.01 24-Apr-2013

 --------------------
 #p B2PLYPD3/Def2QZVP
 --------------------

 --------
 methanol
 --------
 Symbolic Z-matrix:
 Charge =  0 Multiplicity = 1

                         Standard orientation:
 ---------------------------------------------------------------------
 Center     Atomic      Atomic             Coordinates (Angstroms)
 Number     Number       Type             X           Y           Z
 ---------------------------------------------------------------------
      1          6           0        0.686887    0.022243    0.002804
      2          8           0       -0.750906   -0.138387    0.001193
      3          1           0        1.036879    0.500649    0.866786
      4          1           0        0.942856    0.609968   -0.847946
      5          1           0        1.101734   -0.949376   -0.068647
      6          1           0       -1.195542    0.812401    0.023437
 ---------------------------------------------------------------------

 SCF Done:  E(RB2PLYPD3) =  -115.541918277     A.U. after   11 cycles
 E2(B2PLYPD3) =    -0.1488222311D+00 E(B2PLYPD3) =    -0.11569074050764D+03

 The electronic state is 1-A.
 Alpha  occ. eigenvalues --  -19.72839 -10.64607  -1.13428  -0.78904  -0.57083
 Alpha  occ. eigenvalues --   -0.52086  -0.49523  -0.40938  -0.35113
 Alpha virt. eigenvalues --    0.04362   0.07950   0.12485   0.12543   0.14724
 Alpha virt. eigenvalues --    0.17304   0.17889   0.29234   0.31968   0.32561
 Alpha virt. eigenvalues --    0.33545   0.39479   0.39900   0.41684   0.44155

 Mulliken charges:
               1
     1  C    0.084280
     2  O   -0.498760
     3  H    0.051055
     4  H    0.047455
     5  H    0.073337
     6  H    0.242634
 Sum of Mulliken charges =   0.00000

 Dipole moment (field-independent basis, Debye):
    X=              0.9598    Y=              1.5915    Z=              0.0418  Tot=              1.8590
 Quadrupole moment (field-independent basis, Debye-Ang):
   XX=            -12.8704   YY=            -12.0389   ZZ=            -13.8154
   XY=             -2.4256   XZ=              0.0329   YZ=              0.0509

 Normal termination of Gaussian 09 at Wed Aug 26 11:17:43 2020.
