 Gaussian 09, Revision D.01,
 Gaussian 09:  ES64L-G09RevD.01 24-Apr-2013

 --------------------
 #p B2PLYPD3/Def2QZVP
 --------------------

 --------
 methanol
 --------
 Symbolic Z-matrix:
 Charge =  0 Multiplicity = 1

                         Standard orientation:
 ---------------------------------------------------------------------
 Center     Atomic      Atomic             Coordinates (Angstroms)
 Number     Number       Type             X           Y           Z
 ---------------------------------------------------------------------
      1          6           0        0.651095    0.055468    0.007506
      2          8           0       -0.732055   -0.184366   -0.002799
      3          1           0        1.069267    0.376525    0.778120
      4          1           0        1.083152    0.574629   -0.705858
      5          1           0        1.007057   -0.943057   -0.102850
      6          1           0       -1.209611    1.134022    0.007940
 ---------------------------------------------------------------------

 SCF Done:  E(RB2PLYPD3) =  -115.429173974     A.U. after   11 cycles
 E2(B2PLYPD3) =    -0.1559842310D+00 E(B2PLYPD3) =    -0.11558515820504D+03

 The electronic state is 1-A.
 Alpha  occ. eigenvalues --  -19.75905 -10.61889  -1.12680  -0.80461  -0.55469
 Alpha  occ. eigenvalues --   -0.53418  -0.48799  -0.38782  -0.35770
 Alpha virt. eigenvalues --   -0.01366   0.07396   0.12113   0.13258   0.15318
 Alpha virt. eigenvalues --    0.17001   0.18728   0.22047   0.29347   0.34418
 Alpha virt. eigenvalues --    0.34666   0.37458   0.39082   0.44045   0.45516

 Mulliken charges:
               1
     1  C    0.092873
     2  O   -0.455419
     3  H    0.049769
     4  H    0.039415
     5  H    0.047698
     6  H    0.225664
 Sum of Mulliken charges =   0.00000

 Dipole moment (field-independent basis, Debye):
    X=              1.0491    Y=              1.7728    Z=              0.0447  Tot=              2.0605
 Quadrupole moment (field-independent basis, Debye-Ang):
   XX=            -13.0824   YY=            -11.4409   ZZ=            -14.0986
   XY=             -2.1308   XZ=              0.0300   YZ=              0.0203

 Normal termination of Gaussian 09 at Wed Aug 26 20:20:30 2020.
