 Gaussian 09, Revision D.01,
 Gaussian 09:  ES64L-G09RevD.01 24-Apr-2013

 --------------------
 #p B2PLYPD3/Def2QZVP
 --------------------

 --------
 methanol
 --------
 Symbolic Z-matrix:
 Charge =  0 Multiplicity = 1

                         Standard orientation:
 ---------------------------------------------------------------------
 Center     Atomic      Atomic             Coordinates (Angstroms)
 Number     Number       Type             X           Y           Z
 ---------------------------------------------------------------------
      1          6           0       -0.684272   -0.031556    0.012179
      2          8           0        0.761642    0.098043   -0.021608
      3          1           0       -1.010333   -0.322365    0.967226
      4          1           0       -1.033152   -0.720687   -0.818548
      5          1           0       -1.043543    1.068495   -0.171229
      6          1           0        1.099523   -0.620454    0.122339
 ---------------------------------------------------------------------

 SCF Done:  E(RB2PLYPD3) =  -115.515238793     A.U. after   10 cycles
 E2(B2PLYPD3) =    -0.1454717812D+00 E(B2PLYPD3) =    -0.11566071057413D+03

 The electronic state is 1-A.
 Alpha  occ. eigenvalues --  -19.70785 -10.67022  -1.19279  -0.79756  -0.60146
 Alpha  occ. eigenvalues --   -0.52373  -0.48535  -0.41198  -0.36187
 Alpha virt. eigenvalues --    0.05354   0.08803   0.11786   0.12120   0.14602
 Alpha virt. eigenvalues --    0.16879   0.18024   0.28905   0.31677   0.33464
 Alpha virt. eigenvalues --    0.36551   0.38370   0.40003   0.41467   0.42908

 Mulliken charges:
               1
     1  C    0.062860
     2  O   -0.373957
     3  H    0.064859
     4  H    0.056419
     5  H    0.067901
     6  H    0.121918
 Sum of Mulliken charges =   0.00000

 Dipole moment (field-independent basis, Debye):
    X=             -1.0322    Y=             -1.3836    Z=              0.3473  Tot=              1.7608
 Quadrupole moment (field-independent basis, Debye-Ang):
   XX=            -13.2163   YY=            -12.3824   ZZ=            -13.4986
   XY=             -1.9220   XZ=              0.3010   YZ=             -0.1619

 Normal termination of Gaussian 09 at Wed Aug 26 14:39:10 2020.
