 Gaussian 09, Revision D.01,
 Gaussian 09:  ES64L-G09RevD.01 24-Apr-2013

 --------------------
 #p B2PLYPD3/Def2QZVP
 --------------------

 --------
 methanol
 --------
 Symbolic Z-matrix:
 Charge =  0 Multiplicity = 1

                         Standard orientation:
 ---------------------------------------------------------------------
 Center     Atomic      Atomic             Coordinates (Angstroms)
 Number     Number       Type             X           Y           Z
 ---------------------------------------------------------------------
      1          6           0        0.657449   -0.029092    0.012154
      2          8           0       -0.754487    0.090523   -0.009938
      3          1           0        0.958153   -0.786039   -0.826997
      4          1           0        1.068068   -0.350385    0.985175
      5          1           0        1.163264    1.075808   -0.236243
      6          1           0       -1.098284   -0.489018    0.084641
 ---------------------------------------------------------------------

 SCF Done:  E(RB2PLYPD3) =  -115.386717305     A.U. after   11 cycles
 E2(B2PLYPD3) =    -0.1439380944D+00 E(B2PLYPD3) =    -0.11553065539904D+03

 The electronic state is 1-A.
 Alpha  occ. eigenvalues --  -19.69713 -10.68838  -1.25184  -0.81352  -0.62254
 Alpha  occ. eigenvalues --   -0.52001  -0.49506  -0.40265  -0.36338
 Alpha virt. eigenvalues --    0.05218   0.09181   0.11521   0.11985   0.14445
 Alpha virt. eigenvalues --    0.17156   0.17755   0.28606   0.32297   0.33334
 Alpha virt. eigenvalues --    0.34329   0.37914   0.39891   0.40449   0.42779

 Mulliken charges:
               1
     1  C    0.052486
     2  O   -0.232437
     3  H    0.047551
     4  H    0.062038
     5  H    0.067165
     6  H    0.003197
 Sum of Mulliken charges =   0.00000

 Dipole moment (field-independent basis, Debye):
    X=              0.8979    Y=             -1.2534    Z=              0.2661  Tot=              1.5646
 Quadrupole moment (field-independent basis, Debye-Ang):
   XX=            -12.9980   YY=            -12.6796   ZZ=            -13.5622
   XY=              1.9145   XZ=             -0.1341   YZ=             -0.1365

 Normal termination of Gaussian 09 at Wed Aug 26 12:05:17 2020.
