 Gaussian 09, Revision D.01,
 Gaussian 09:  ES64L-G09RevD.01 24-Apr-2013

 --------------------
 #p B2PLYPD3/Def2QZVP
 --------------------

 --------
 methanol
 --------
 Symbolic Z-matrix:
 Charge =  0 Multiplicity = 1

                         Standard orientation:
 ---------------------------------------------------------------------
 Center     Atomic      Atomic             Coordinates (Angstroms)
 Number     Number       Type             X           Y           Z
 ---------------------------------------------------------------------
      1          6           0       -0.669901   -0.016508    0.005821
      2          8           0        0.747261    0.107719   -0.004567
      3          1           0       -1.004015   -0.537628    0.912383
      4          1           0       -1.075583   -0.538040   -0.907495
      5          1           0       -1.016865    1.014033    0.002605
      6          1           0        1.137780   -0.701073   -0.005882
 ---------------------------------------------------------------------

 SCF Done:  E(RB2PLYPD3) =  -115.548657595     A.U. after   10 cycles
 E2(B2PLYPD3) =    -0.1463499896D+00 E(B2PLYPD3) =    -0.11569500758473D+03

 The electronic state is 1-A.
 Alpha  occ. eigenvalues --  -19.71852 -10.66171  -1.17347  -0.79088  -0.59426
 Alpha  occ. eigenvalues --   -0.51605  -0.49810  -0.41168  -0.35468
 Alpha virt. eigenvalues --    0.05235   0.08482   0.12245   0.12323   0.14861
 Alpha virt. eigenvalues --    0.16921   0.18087   0.29068   0.33115   0.33530
 Alpha virt. eigenvalues --    0.37041   0.38566   0.39908   0.40397   0.43297

 Mulliken charges:
               1
     1  C    0.064388
     2  O   -0.434221
     3  H    0.051565
     4  H    0.047099
     5  H    0.075180
     6  H    0.195988
 Sum of Mulliken charges =   0.00000

 Dipole moment (field-independent basis, Debye):
    X=             -0.8607    Y=             -1.4208    Z=              0.0268  Tot=              1.6614
 Quadrupole moment (field-independent basis, Debye-Ang):
   XX=            -13.0660   YY=            -12.2783   ZZ=            -13.7188
   XY=             -2.1467   XZ=              0.0259   YZ=             -0.0252

 Normal termination of Gaussian 09 at Thu Aug 27 00:05:34 2020.
