 Gaussian 09, Revision D.01,
 Gaussian 09:  ES64L-G09RevD.01 24-Apr-2013

 --------------------
 #p B2PLYPD3/Def2QZVP
 --------------------

 --------
 methanol
 --------
 Symbolic Z-matrix:
 Charge =  0 Multiplicity = 1

                         Standard orientation:
 ---------------------------------------------------------------------
 Center     Atomic      Atomic             Coordinates (Angstroms)
 Number     Number       Type             X           Y           Z
 ---------------------------------------------------------------------
      1          6           0       -0.663334    0.012011   -0.001526
      2          8           0        0.746377   -0.134144   -0.005517
      3          1           0       -1.083718    0.565075   -0.843906
      4          1           0       -1.024034    0.494052    0.899072
      5          1           0       -1.044481   -0.922375   -0.015947
      6          1           0        1.161220    0.864337    0.014070
 ---------------------------------------------------------------------

 SCF Done:  E(RB2PLYPD3) =  -115.535123857     A.U. after   11 cycles
 E2(B2PLYPD3) =    -0.1493082659D+00 E(B2PLYPD3) =    -0.11568443212301D+03

 The electronic state is 1-A.
 Alpha  occ. eigenvalues --  -19.73614 -10.64411  -1.14256  -0.78717  -0.57333
 Alpha  occ. eigenvalues --   -0.51330  -0.50181  -0.41208  -0.35073
 Alpha virt. eigenvalues --    0.03966   0.07861   0.12514   0.12728   0.14999
 Alpha virt. eigenvalues --    0.17260   0.18338   0.28943   0.30812   0.33382
 Alpha virt. eigenvalues --    0.34252   0.38628   0.40409   0.41040   0.43700

 Mulliken charges:
               1
     1  C    0.072994
     2  O   -0.480612
     3  H    0.042638
     4  H    0.043198
     5  H    0.072227
     6  H    0.249554
 Sum of Mulliken charges =   0.00000

 Dipole moment (field-independent basis, Debye):
    X=             -0.8804    Y=              1.5536    Z=              0.0419  Tot=              1.7862
 Quadrupole moment (field-independent basis, Debye-Ang):
   XX=            -12.9816   YY=            -11.9933   ZZ=            -13.9103
   XY=              2.3825   XZ=              0.0812   YZ=              0.0135

 Normal termination of Gaussian 09 at Wed Aug 26 18:40:15 2020.
