 Gaussian 09, Revision D.01,
 Gaussian 09:  ES64L-G09RevD.01 24-Apr-2013

 --------------------
 #p B2PLYPD3/Def2QZVP
 --------------------

 --------
 methanol
 --------
 Symbolic Z-matrix:
 Charge =  0 Multiplicity = 1

                         Standard orientation:
 ---------------------------------------------------------------------
 Center     Atomic      Atomic             Coordinates (Angstroms)
 Number     Number       Type             X           Y           Z
 ---------------------------------------------------------------------
      1          6           0        0.668963   -0.027748    0.012400
      2          8           0       -0.751352    0.101251   -0.013095
      3          1           0        0.996467   -0.699723   -0.847780
      4          1           0        1.006447   -0.391614    0.958083
      5          1           0        1.092540    1.051256   -0.153250
      6          1           0       -1.098416   -0.603439    0.073308
 ---------------------------------------------------------------------

 SCF Done:  E(RB2PLYPD3) =  -115.508346791     A.U. after   10 cycles
 E2(B2PLYPD3) =    -0.1448720235D+00 E(B2PLYPD3) =    -0.11565321881405D+03

 The electronic state is 1-A.
 Alpha  occ. eigenvalues --  -19.70677 -10.67124  -1.20536  -0.79938  -0.60759
 Alpha  occ. eigenvalues --   -0.52313  -0.49400  -0.40929  -0.35997
 Alpha virt. eigenvalues --    0.05375   0.08945   0.11909   0.12139   0.14607
 Alpha virt. eigenvalues --    0.17102   0.17847   0.28925   0.32632   0.33227
 Alpha virt. eigenvalues --    0.36671   0.38421   0.39942   0.41300   0.43039

 Mulliken charges:
               1
     1  C    0.063511
     2  O   -0.348910
     3  H    0.048853
     4  H    0.060371
     5  H    0.068384
     6  H    0.107791
 Sum of Mulliken charges =   0.00000

 Dipole moment (field-independent basis, Debye):
    X=              0.9364    Y=             -1.3704    Z=              0.2279  Tot=              1.6753
 Quadrupole moment (field-independent basis, Debye-Ang):
   XX=            -13.1582   YY=            -12.4419   ZZ=            -13.5487
   XY=              2.0114   XZ=             -0.1577   YZ=             -0.1371

 Normal termination of Gaussian 09 at Thu Aug 27 00:10:22 2020.
