 Gaussian 09, Revision D.01,
 Gaussian 09:  ES64L-G09RevD.01 24-Apr-2013

 --------------------
 #p B2PLYPD3/Def2QZVP
 --------------------

 --------
 methanol
 --------
 Symbolic Z-matrix:
 Charge =  0 Multiplicity = 1

                         Standard orientation:
 ---------------------------------------------------------------------
 Center     Atomic      Atomic             Coordinates (Angstroms)
 Number     Number       Type             X           Y           Z
 ---------------------------------------------------------------------
      1          6           0       -0.652790   -0.031998    0.007190
      2          8           0        0.742712    0.133621   -0.007743
      3          1           0       -1.017024   -0.488544    0.865331
      4          1           0       -1.008406   -0.572127   -0.865354
      5          1           0       -1.123325    0.978802   -0.026899
      6          1           0        1.123803   -0.795109    0.045723
 ---------------------------------------------------------------------

 SCF Done:  E(RB2PLYPD3) =  -115.547501544     A.U. after   10 cycles
 E2(B2PLYPD3) =    -0.1478512355D+00 E(B2PLYPD3) =    -0.11569535277997D+03

 The electronic state is 1-A.
 Alpha  occ. eigenvalues --  -19.73088 -10.65002  -1.15954  -0.78507  -0.58514
 Alpha  occ. eigenvalues --   -0.52526  -0.49614  -0.40743  -0.35467
 Alpha virt. eigenvalues --    0.04633   0.08111   0.12449   0.12502   0.14884
 Alpha virt. eigenvalues --    0.17573   0.18228   0.29075   0.32760   0.33425
 Alpha virt. eigenvalues --    0.34777   0.38264   0.40059   0.41864   0.44581

 Mulliken charges:
               1
     1  C    0.071838
     2  O   -0.462454
     3  H    0.049505
     4  H    0.045313
     5  H    0.059686
     6  H    0.236112
 Sum of Mulliken charges =   0.00000

 Dipole moment (field-independent basis, Debye):
    X=             -0.8596    Y=             -1.5925    Z=              0.1343  Tot=              1.8147
 Quadrupole moment (field-independent basis, Debye-Ang):
   XX=            -13.0775   YY=            -12.1977   ZZ=            -13.7905
   XY=             -2.2500   XZ=              0.0551   YZ=             -0.0903

 Normal termination of Gaussian 09 at Thu Aug 27 00:03:28 2020.
