 Gaussian 09, Revision D.01,
 Gaussian 09:  ES64L-G09RevD.01 24-Apr-2013

 --------------------
 #p B2PLYPD3/Def2QZVP
 --------------------

 --------
 methanol
 --------
 Symbolic Z-matrix:
 Charge =  0 Multiplicity = 1

                         Standard orientation:
 ---------------------------------------------------------------------
 Center     Atomic      Atomic             Coordinates (Angstroms)
 Number     Number       Type             X           Y           Z
 ---------------------------------------------------------------------
      1          6           0        0.669147   -0.013658   -0.002739
      2          8           0       -0.748395    0.119773   -0.000805
      3          1           0        1.001187   -0.582119   -0.872315
      4          1           0        0.979123   -0.530671    0.919670
      5          1           0        1.095880    0.970760   -0.021804
      6          1           0       -1.103913   -0.734209   -0.002676
 ---------------------------------------------------------------------

 SCF Done:  E(RB2PLYPD3) =  -115.551925122     A.U. after   10 cycles
 E2(B2PLYPD3) =    -0.1466122146D+00 E(B2PLYPD3) =    -0.11569853733690D+03

 The electronic state is 1-A.
 Alpha  occ. eigenvalues --  -19.72048 -10.65633  -1.16803  -0.78965  -0.58935
 Alpha  occ. eigenvalues --   -0.51891  -0.50288  -0.41401  -0.35297
 Alpha virt. eigenvalues --    0.05087   0.08491   0.12240   0.12481   0.14705
 Alpha virt. eigenvalues --    0.17406   0.17811   0.29179   0.32967   0.33290
 Alpha virt. eigenvalues --    0.35964   0.39416   0.40205   0.40652   0.44251

 Mulliken charges:
               1
     1  C    0.073983
     2  O   -0.449097
     3  H    0.046061
     4  H    0.045699
     5  H    0.074378
     6  H    0.208975
 Sum of Mulliken charges =   0.00000

 Dipole moment (field-independent basis, Debye):
    X=              0.9516    Y=             -1.4708    Z=             -0.0143  Tot=              1.7519
 Quadrupole moment (field-independent basis, Debye-Ang):
   XX=            -13.1972   YY=            -12.1686   ZZ=            -13.7214
   XY=              2.2571   XZ=             -0.0380   YZ=              0.0193

 Normal termination of Gaussian 09 at Wed Aug 26 21:53:40 2020.
