 Gaussian 09, Revision D.01,
 Gaussian 09:  ES64L-G09RevD.01 24-Apr-2013

 --------------------
 #p B2PLYPD3/Def2QZVP
 --------------------

 --------
 methanol
 --------
 Symbolic Z-matrix:
 Charge =  0 Multiplicity = 1

                         Standard orientation:
 ---------------------------------------------------------------------
 Center     Atomic      Atomic             Coordinates (Angstroms)
 Number     Number       Type             X           Y           Z
 ---------------------------------------------------------------------
      1          6           0       -0.667423    0.018873    0.001469
      2          8           0        0.744972   -0.134776   -0.006765
      3          1           0       -0.981833    0.591130   -0.863606
      4          1           0       -1.015018    0.484878    0.884455
      5          1           0       -1.090498   -0.934523   -0.030745
      6          1           0        1.132106    0.823484    0.055202
 ---------------------------------------------------------------------

 SCF Done:  E(RB2PLYPD3) =  -115.544810439     A.U. after   10 cycles
 E2(B2PLYPD3) =    -0.1483421660D+00 E(B2PLYPD3) =    -0.11569315260467D+03

 The electronic state is 1-A.
 Alpha  occ. eigenvalues --  -19.73015 -10.64496  -1.14761  -0.78772  -0.57634
 Alpha  occ. eigenvalues --   -0.52226  -0.49989  -0.41156  -0.35178
 Alpha virt. eigenvalues --    0.04418   0.08114   0.12428   0.12651   0.14784
 Alpha virt. eigenvalues --    0.17460   0.18078   0.29168   0.32120   0.33250
 Alpha virt. eigenvalues --    0.33967   0.39344   0.40409   0.41580   0.44082

 Mulliken charges:
               1
     1  C    0.078204
     2  O   -0.479635
     3  H    0.044748
     4  H    0.045662
     5  H    0.069713
     6  H    0.241307
 Sum of Mulliken charges =   0.00000

 Dipole moment (field-independent basis, Debye):
    X=             -0.9387    Y=              1.5590    Z=              0.1275  Tot=              1.8243
 Quadrupole moment (field-independent basis, Debye-Ang):
   XX=            -13.1109   YY=            -12.0477   ZZ=            -13.7658
   XY=              2.3569   XZ=              0.0737   YZ=              0.0763

 Normal termination of Gaussian 09 at Thu Aug 27 00:06:12 2020.
