 Gaussian 09, Revision D.01,
 Gaussian 09:  ES64L-G09RevD.01 24-Apr-2013

 --------------------
 #p B2PLYPD3/Def2QZVP
 --------------------

 --------
 methanol
 --------
 Symbolic Z-matrix:
 Charge =  0 Multiplicity = 1

                         Standard orientation:
 ---------------------------------------------------------------------
 Center     Atomic      Atomic             Coordinates (Angstroms)
 Number     Number       Type             X           Y           Z
 ---------------------------------------------------------------------
      1          6           0        0.681006    0.032045   -0.004829
      2          8           0       -0.770102   -0.163723   -0.000810
      3          1           0        1.111770    0.438914    0.766097
      4          1           0        1.099882    0.554049   -0.709024
      5          1           0        0.994604   -0.985870   -0.038380
      6          1           0       -1.131477    1.110422    0.016762
 ---------------------------------------------------------------------

 SCF Done:  E(RB2PLYPD3) =  -115.452674229     A.U. after   11 cycles
 E2(B2PLYPD3) =    -0.1555290438D+00 E(B2PLYPD3) =    -0.11560820327254D+03

 The electronic state is 1-A.
 Alpha  occ. eigenvalues --  -19.75642 -10.62731  -1.10978  -0.80701  -0.55777
 Alpha  occ. eigenvalues --   -0.51910  -0.47405  -0.40620  -0.35766
 Alpha virt. eigenvalues --    0.00228   0.07366   0.11873   0.13257   0.15061
 Alpha virt. eigenvalues --    0.17029   0.18435   0.23291   0.29013   0.32607
 Alpha virt. eigenvalues --    0.34364   0.37748   0.38885   0.42922   0.44993

 Mulliken charges:
               1
     1  C    0.094814
     2  O   -0.478648
     3  H    0.046207
     4  H    0.044671
     5  H    0.057192
     6  H    0.235764
 Sum of Mulliken charges =   0.00000

 Dipole moment (field-independent basis, Debye):
    X=              1.2509    Y=              1.7952    Z=              0.0380  Tot=              2.1884
 Quadrupole moment (field-independent basis, Debye-Ang):
   XX=            -13.2830   YY=            -11.2431   ZZ=            -14.2281
   XY=             -1.9604   XZ=              0.0103   YZ=             -0.0037

 Normal termination of Gaussian 09 at Wed Aug 26 21:03:42 2020.
