 Gaussian 09, Revision D.01,
 Gaussian 09:  ES64L-G09RevD.01 24-Apr-2013

 --------------------
 #p B2PLYPD3/Def2QZVP
 --------------------

 --------
 methanol
 --------
 Symbolic Z-matrix:
 Charge =  0 Multiplicity = 1

                         Standard orientation:
 ---------------------------------------------------------------------
 Center     Atomic      Atomic             Coordinates (Angstroms)
 Number     Number       Type             X           Y           Z
 ---------------------------------------------------------------------
      1          6           0       -0.677721   -0.020589    0.004898
      2          8           0        0.753583    0.112765   -0.004169
      3          1           0       -1.031602   -0.489199    0.913917
      4          1           0       -0.998214   -0.630694   -0.870270
      5          1           0       -1.092634    1.018187   -0.073317
      6          1           0        1.160115   -0.676882    0.033639
 ---------------------------------------------------------------------

 SCF Done:  E(RB2PLYPD3) =  -115.546789039     A.U. after   10 cycles
 E2(B2PLYPD3) =    -0.1463017858D+00 E(B2PLYPD3) =    -0.11569309082476D+03

 The electronic state is 1-A.
 Alpha  occ. eigenvalues --  -19.71624 -10.66438  -1.16999  -0.79166  -0.59343
 Alpha  occ. eigenvalues --   -0.51623  -0.49595  -0.40970  -0.35520
 Alpha virt. eigenvalues --    0.05260   0.08449   0.12192   0.12303   0.14741
 Alpha virt. eigenvalues --    0.17132   0.17853   0.29155   0.32593   0.33316
 Alpha virt. eigenvalues --    0.36983   0.38571   0.39532   0.40714   0.43171

 Mulliken charges:
               1
     1  C    0.071986
     2  O   -0.440174
     3  H    0.054521
     4  H    0.048537
     5  H    0.074243
     6  H    0.190887
 Sum of Mulliken charges =   0.00000

 Dipole moment (field-independent basis, Debye):
    X=             -0.9099    Y=             -1.4470    Z=              0.0939  Tot=              1.7119
 Quadrupole moment (field-independent basis, Debye-Ang):
   XX=            -12.9258   YY=            -12.3177   ZZ=            -13.7407
   XY=             -2.2043   XZ=              0.0424   YZ=             -0.0724

 Normal termination of Gaussian 09 at Thu Aug 27 00:02:48 2020.
