 Gaussian 09, Revision D.01,
 Gaussian 09:  ES64L-G09RevD.01 24-Apr-2013

 --------------------
 #p B2PLYPD3/Def2QZVP
 --------------------

 --------
 methanol
 --------
 Symbolic Z-matrix:
 Charge =  0 Multiplicity = 1

                         Standard orientation:
 ---------------------------------------------------------------------
 Center     Atomic      Atomic             Coordinates (Angstroms)
 Number     Number       Type             X           Y           Z
 ---------------------------------------------------------------------
      1          6           0        0.654503   -0.015599   -0.004526
      2          8           0       -0.746273    0.101192    0.003360
      3          1           0        1.026814   -0.551411   -0.910371
      4          1           0        1.003893   -0.588812    0.918696
      5          1           0        1.111850    1.035232    0.018763
      6          1           0       -1.099391   -0.610948   -0.026817
 ---------------------------------------------------------------------

 SCF Done:  E(RB2PLYPD3) =  -115.513455648     A.U. after   10 cycles
 E2(B2PLYPD3) =    -0.1447899210D+00 E(B2PLYPD3) =    -0.11565824556926D+03

 The electronic state is 1-A.
 Alpha  occ. eigenvalues --  -19.71009 -10.67278  -1.21042  -0.79838  -0.61108
 Alpha  occ. eigenvalues --   -0.51638  -0.50333  -0.41004  -0.35632
 Alpha virt. eigenvalues --    0.05370   0.08884   0.12124   0.12139   0.14743
 Alpha virt. eigenvalues --    0.17274   0.17765   0.28914   0.32925   0.33693
 Alpha virt. eigenvalues --    0.37142   0.38694   0.39847   0.40003   0.42954

 Mulliken charges:
               1
     1  C    0.061676
     2  O   -0.343596
     3  H    0.047893
     4  H    0.043928
     5  H    0.073118
     6  H    0.116981
 Sum of Mulliken charges =   0.00000

 Dipole moment (field-independent basis, Debye):
    X=              0.8447    Y=             -1.3440    Z=             -0.0837  Tot=              1.5895
 Quadrupole moment (field-independent basis, Debye-Ang):
   XX=            -13.0929   YY=            -12.4344   ZZ=            -13.7202
   XY=              2.0828   XZ=              0.0251   YZ=              0.0644

 Normal termination of Gaussian 09 at Wed Aug 26 23:52:43 2020.
