 Gaussian 09, Revision D.01,
 Gaussian 09:  ES64L-G09RevD.01 24-Apr-2013

 --------------------
 #p B2PLYPD3/Def2QZVP
 --------------------

 --------
 methanol
 --------
 Symbolic Z-matrix:
 Charge =  0 Multiplicity = 1

                         Standard orientation:
 ---------------------------------------------------------------------
 Center     Atomic      Atomic             Coordinates (Angstroms)
 Number     Number       Type             X           Y           Z
 ---------------------------------------------------------------------
      1          6           0        0.671380    0.035136    0.012894
      2          8           0       -0.739695   -0.110501   -0.050799
      3          1           0        0.848751    0.046617    1.103778
      4          1           0        1.009974    0.877864   -0.626465
      5          1           0        1.155605   -0.878842   -0.361080
      6          1           0       -1.125053    0.627552    0.212793
 ---------------------------------------------------------------------

 SCF Done:  E(RB2PLYPD3) =  -115.539386598     A.U. after   11 cycles
 E2(B2PLYPD3) =    -0.1459327888D+00 E(B2PLYPD3) =    -0.11568531938669D+03

 The electronic state is 1-A.
 Alpha  occ. eigenvalues --  -19.71208 -10.66238  -1.18006  -0.79210  -0.58852
 Alpha  occ. eigenvalues --   -0.53166  -0.50292  -0.40103  -0.35374
 Alpha virt. eigenvalues --    0.05316   0.08650   0.11813   0.12753   0.13786
 Alpha virt. eigenvalues --    0.17467   0.18146   0.28875   0.32326   0.33422
 Alpha virt. eigenvalues --    0.36293   0.39419   0.40002   0.41025   0.44377

 Mulliken charges:
               1
     1  C    0.064807
     2  O   -0.423255
     3  H    0.055917
     4  H    0.053161
     5  H    0.067289
     6  H    0.182081
 Sum of Mulliken charges =   0.00000

 Dipole moment (field-independent basis, Debye):
    X=              0.8889    Y=              1.3087    Z=              0.4712  Tot=              1.6507
 Quadrupole moment (field-independent basis, Debye-Ang):
   XX=            -13.1129   YY=            -12.6070   ZZ=            -13.3998
   XY=             -2.1456   XZ=             -0.9777   YZ=              0.1482

 Normal termination of Gaussian 09 at Wed Aug 26 23:40:34 2020.
