 Gaussian 09, Revision D.01,
 Gaussian 09:  ES64L-G09RevD.01 24-Apr-2013

 --------------------
 #p B2PLYPD3/Def2QZVP
 --------------------

 --------
 methanol
 --------
 Symbolic Z-matrix:
 Charge =  0 Multiplicity = 1

                         Standard orientation:
 ---------------------------------------------------------------------
 Center     Atomic      Atomic             Coordinates (Angstroms)
 Number     Number       Type             X           Y           Z
 ---------------------------------------------------------------------
      1          6           0        0.660013   -0.026355    0.002926
      2          8           0       -0.746637    0.105882   -0.006283
      3          1           0        0.997231   -0.623508   -0.874835
      4          1           0        1.030105   -0.445695    0.938722
      5          1           0        1.058385    1.044363   -0.083117
      6          1           0       -1.072698   -0.664090    0.051942
 ---------------------------------------------------------------------

 SCF Done:  E(RB2PLYPD3) =  -115.533526838     A.U. after   10 cycles
 E2(B2PLYPD3) =    -0.1454320497D+00 E(B2PLYPD3) =    -0.11567895888765D+03

 The electronic state is 1-A.
 Alpha  occ. eigenvalues --  -19.71393 -10.66553  -1.19631  -0.79274  -0.60410
 Alpha  occ. eigenvalues --   -0.52372  -0.49556  -0.41171  -0.35838
 Alpha virt. eigenvalues --    0.05319   0.08826   0.12066   0.12194   0.14747
 Alpha virt. eigenvalues --    0.17144   0.17997   0.28932   0.33138   0.33488
 Alpha virt. eigenvalues --    0.37370   0.38261   0.40265   0.40904   0.43230

 Mulliken charges:
               1
     1  C    0.061837
     2  O   -0.384558
     3  H    0.049866
     4  H    0.053567
     5  H    0.065970
     6  H    0.153318
 Sum of Mulliken charges =   0.00000

 Dipole moment (field-independent basis, Debye):
    X=              0.9094    Y=             -1.4241    Z=              0.1287  Tot=              1.6946
 Quadrupole moment (field-independent basis, Debye-Ang):
   XX=            -13.3038   YY=            -12.3302   ZZ=            -13.6122
   XY=              2.0084   XZ=             -0.0890   YZ=             -0.0717

 Normal termination of Gaussian 09 at Wed Aug 26 23:02:46 2020.
