 Gaussian 09, Revision D.01,
 Gaussian 09:  ES64L-G09RevD.01 24-Apr-2013

 --------------------
 #p B2PLYPD3/Def2QZVP
 --------------------

 --------
 methanol
 --------
 Symbolic Z-matrix:
 Charge =  0 Multiplicity = 1

                         Standard orientation:
 ---------------------------------------------------------------------
 Center     Atomic      Atomic             Coordinates (Angstroms)
 Number     Number       Type             X           Y           Z
 ---------------------------------------------------------------------
      1          6           0       -0.644579    0.037570   -0.042014
      2          8           0        0.735037   -0.170811    0.019094
      3          1           0       -1.063315    0.343048   -0.740853
      4          1           0       -1.066665    0.711461    0.739391
      5          1           0       -1.089525   -0.944569    0.172225
      6          1           0        1.206682    1.031129   -0.071435
 ---------------------------------------------------------------------

 SCF Done:  E(RB2PLYPD3) =  -115.439328837     A.U. after   11 cycles
 E2(B2PLYPD3) =    -0.1536512080D+00 E(B2PLYPD3) =    -0.11559298004466D+03

 The electronic state is 1-A.
 Alpha  occ. eigenvalues --  -19.75478 -10.63024  -1.13381  -0.80292  -0.56744
 Alpha  occ. eigenvalues --   -0.51795  -0.49224  -0.39631  -0.35244
 Alpha virt. eigenvalues --    0.00502   0.07352   0.12183   0.13165   0.15253
 Alpha virt. eigenvalues --    0.17421   0.18716   0.23660   0.29543   0.33488
 Alpha virt. eigenvalues --    0.35319   0.36935   0.37867   0.42033   0.45421

 Mulliken charges:
               1
     1  C    0.051150
     2  O   -0.463426
     3  H    0.085225
     4  H    0.027317
     5  H    0.051175
     6  H    0.248559
 Sum of Mulliken charges =   0.00000

 Dipole moment (field-independent basis, Debye):
    X=             -0.8366    Y=              1.7489    Z=             -0.3094  Tot=              1.9633
 Quadrupole moment (field-independent basis, Debye-Ang):
   XX=            -12.9353   YY=            -11.6920   ZZ=            -14.1654
   XY=              2.3429   XZ=              0.0647   YZ=             -0.2638

 Normal termination of Gaussian 09 at Wed Aug 26 23:56:04 2020.
