 Gaussian 09, Revision D.01,
 Gaussian 09:  ES64L-G09RevD.01 24-Apr-2013

 --------------------
 #p B2PLYPD3/Def2QZVP
 --------------------

 --------
 methanol
 --------
 Symbolic Z-matrix:
 Charge =  0 Multiplicity = 1

                         Standard orientation:
 ---------------------------------------------------------------------
 Center     Atomic      Atomic             Coordinates (Angstroms)
 Number     Number       Type             X           Y           Z
 ---------------------------------------------------------------------
      1          6           0        0.667005   -0.008003    0.001600
      2          8           0       -0.749496    0.095003   -0.009006
      3          1           0        1.064043   -0.632810   -0.878801
      4          1           0        1.020466   -0.492708    0.953522
      5          1           0        1.029990    1.042130   -0.052134
      6          1           0       -1.120562   -0.628620    0.039857
 ---------------------------------------------------------------------

 SCF Done:  E(RB2PLYPD3) =  -115.523403073     A.U. after   10 cycles
 E2(B2PLYPD3) =    -0.1452094444D+00 E(B2PLYPD3) =    -0.11566861251775D+03

 The electronic state is 1-A.
 Alpha  occ. eigenvalues --  -19.71047 -10.67196  -1.19786  -0.79753  -0.60493
 Alpha  occ. eigenvalues --   -0.51101  -0.50223  -0.41260  -0.35528
 Alpha virt. eigenvalues --    0.05366   0.08781   0.12073   0.12167   0.14843
 Alpha virt. eigenvalues --    0.16907   0.17825   0.29021   0.33010   0.33191
 Alpha virt. eigenvalues --    0.37516   0.39075   0.39469   0.39878   0.42553

 Mulliken charges:
               1
     1  C    0.061948
     2  O   -0.369863
     3  H    0.045394
     4  H    0.048452
     5  H    0.079471
     6  H    0.134599
 Sum of Mulliken charges =   0.00000

 Dipole moment (field-independent basis, Debye):
    X=              0.8611    Y=             -1.3277    Z=              0.1178  Tot=              1.5869
 Quadrupole moment (field-independent basis, Debye-Ang):
   XX=            -13.0943   YY=            -12.3321   ZZ=            -13.7431
   XY=              2.0501   XZ=             -0.1381   YZ=             -0.0687

 Normal termination of Gaussian 09 at Wed Aug 26 10:14:13 2020.
