 Gaussian 09, Revision D.01,
 Gaussian 09:  ES64L-G09RevD.01 24-Apr-2013

 --------------------
 #p B2PLYPD3/Def2QZVP
 --------------------

 --------
 methanol
 --------
 Symbolic Z-matrix:
 Charge =  0 Multiplicity = 1

                         Standard orientation:
 ---------------------------------------------------------------------
 Center     Atomic      Atomic             Coordinates (Angstroms)
 Number     Number       Type             X           Y           Z
 ---------------------------------------------------------------------
      1          6           0        0.670013   -0.022802   -0.002874
      2          8           0       -0.744311    0.130443   -0.005654
      3          1           0        1.054253   -0.567052   -0.831578
      4          1           0        1.010169   -0.497062    0.881390
      5          1           0        1.028104    0.983701   -0.009652
      6          1           0       -1.158121   -0.826315    0.022317
 ---------------------------------------------------------------------

 SCF Done:  E(RB2PLYPD3) =  -115.544119862     A.U. after   10 cycles
 E2(B2PLYPD3) =    -0.1486046288D+00 E(B2PLYPD3) =    -0.11569272449065D+03

 The electronic state is 1-A.
 Alpha  occ. eigenvalues --  -19.73109 -10.64561  -1.14538  -0.78660  -0.57965
 Alpha  occ. eigenvalues --   -0.52010  -0.49257  -0.41192  -0.35259
 Alpha virt. eigenvalues --    0.04388   0.08055   0.12377   0.12623   0.15071
 Alpha virt. eigenvalues --    0.17051   0.18171   0.29130   0.32226   0.33496
 Alpha virt. eigenvalues --    0.34073   0.38843   0.39664   0.41695   0.44224

 Mulliken charges:
               1
     1  C    0.074418
     2  O   -0.479719
     3  H    0.048111
     4  H    0.047275
     5  H    0.069393
     6  H    0.240523
 Sum of Mulliken charges =   0.00000

 Dipole moment (field-independent basis, Debye):
    X=              0.8974    Y=             -1.5859    Z=              0.0566  Tot=              1.8230
 Quadrupole moment (field-independent basis, Debye-Ang):
   XX=            -13.0396   YY=            -11.9897   ZZ=            -13.8440
   XY=              2.2404   XZ=             -0.0878   YZ=             -0.0094

 Normal termination of Gaussian 09 at Thu Aug 27 00:14:45 2020.
