 Gaussian 09, Revision D.01,
 Gaussian 09:  ES64L-G09RevD.01 24-Apr-2013

 --------------------
 #p B2PLYPD3/Def2QZVP
 --------------------

 --------
 methanol
 --------
 Symbolic Z-matrix:
 Charge =  0 Multiplicity = 1

                         Standard orientation:
 ---------------------------------------------------------------------
 Center     Atomic      Atomic             Coordinates (Angstroms)
 Number     Number       Type             X           Y           Z
 ---------------------------------------------------------------------
      1          6           0       -0.659109   -0.013972   -0.036629
      2          8           0        0.739374   -0.174737    0.014422
      3          1           0       -1.179582    0.435086   -0.758639
      4          1           0       -1.026113    0.684799    0.832515
      5          1           0       -1.013815   -0.764889    0.136040
      6          1           0        1.259177    1.126731   -0.105515
 ---------------------------------------------------------------------

 SCF Done:  E(RB2PLYPD3) =  -115.389277611     A.U. after   12 cycles
 E2(B2PLYPD3) =    -0.1562908672D+00 E(B2PLYPD3) =    -0.11554556847817D+03

 The electronic state is 1-A.
 Alpha  occ. eigenvalues --  -19.75858 -10.62415  -1.12430  -0.80939  -0.56892
 Alpha  occ. eigenvalues --   -0.50785  -0.49332  -0.40275  -0.34066
 Alpha virt. eigenvalues --   -0.01828   0.07220   0.12636   0.13017   0.14808
 Alpha virt. eigenvalues --    0.17642   0.18668   0.21966   0.29787   0.32176
 Alpha virt. eigenvalues --    0.35124   0.36135   0.40259   0.40686   0.44569

 Mulliken charges:
               1
     1  C    0.027545
     2  O   -0.467249
     3  H    0.049982
     4  H    0.014192
     5  H    0.125958
     6  H    0.249572
 Sum of Mulliken charges =   0.00000

 Dipole moment (field-independent basis, Debye):
    X=             -0.8527    Y=              1.6230    Z=             -0.3004  Tot=              1.8578
 Quadrupole moment (field-independent basis, Debye-Ang):
   XX=            -12.7500   YY=            -11.4347   ZZ=            -14.3363
   XY=              2.6943   XZ=              0.0574   YZ=             -0.3853

 Normal termination of Gaussian 09 at Wed Aug 26 22:34:39 2020.
