 Gaussian 09, Revision D.01,
 Gaussian 09:  ES64L-G09RevD.01 24-Apr-2013

 --------------------
 #p B2PLYPD3/Def2QZVP
 --------------------

 --------
 methanol
 --------
 Symbolic Z-matrix:
 Charge =  0 Multiplicity = 1

                         Standard orientation:
 ---------------------------------------------------------------------
 Center     Atomic      Atomic             Coordinates (Angstroms)
 Number     Number       Type             X           Y           Z
 ---------------------------------------------------------------------
      1          6           0       -0.668768   -0.020498    0.010518
      2          8           0        0.765025    0.096273   -0.026036
      3          1           0       -1.083728   -0.315512    0.969186
      4          1           0       -1.026649   -0.771735   -0.817664
      5          1           0       -1.108308    1.033895   -0.189004
      6          1           0        1.111094   -0.593844    0.182663
 ---------------------------------------------------------------------

 SCF Done:  E(RB2PLYPD3) =  -115.511294091     A.U. after   10 cycles
 E2(B2PLYPD3) =    -0.1454838104D+00 E(B2PLYPD3) =    -0.11565677790154D+03

 The electronic state is 1-A.
 Alpha  occ. eigenvalues --  -19.71205 -10.67704  -1.20062  -0.79585  -0.60685
 Alpha  occ. eigenvalues --   -0.51277  -0.49305  -0.41179  -0.36006
 Alpha virt. eigenvalues --    0.05335   0.08645   0.11908   0.12090   0.14657
 Alpha virt. eigenvalues --    0.17159   0.18090   0.28880   0.31936   0.33504
 Alpha virt. eigenvalues --    0.36609   0.37651   0.39606   0.40645   0.42466

 Mulliken charges:
               1
     1  C    0.058461
     2  O   -0.356092
     3  H    0.059042
     4  H    0.047889
     5  H    0.070635
     6  H    0.120065
 Sum of Mulliken charges =   0.00000

 Dipole moment (field-independent basis, Debye):
    X=             -0.9592    Y=             -1.2886    Z=              0.4844  Tot=              1.6779
 Quadrupole moment (field-independent basis, Debye-Ang):
   XX=            -13.0221   YY=            -12.5661   ZZ=            -13.6356
   XY=             -2.0047   XZ=              0.3925   YZ=             -0.2570

 Normal termination of Gaussian 09 at Wed Aug 26 14:16:42 2020.
