 Gaussian 09, Revision D.01,
 Gaussian 09:  ES64L-G09RevD.01 24-Apr-2013

 --------------------
 #p B2PLYPD3/Def2QZVP
 --------------------

 --------
 methanol
 --------
 Symbolic Z-matrix:
 Charge =  0 Multiplicity = 1

                         Standard orientation:
 ---------------------------------------------------------------------
 Center     Atomic      Atomic             Coordinates (Angstroms)
 Number     Number       Type             X           Y           Z
 ---------------------------------------------------------------------
      1          6           0        0.667111    0.034350    0.000876
      2          8           0       -0.740095   -0.145843   -0.006016
      3          1           0        0.987239    0.439963    0.894496
      4          1           0        1.008302    0.596452   -0.813031
      5          1           0        1.093123   -0.938922   -0.065205
      6          1           0       -1.170576    0.863152    0.026609
 ---------------------------------------------------------------------

 SCF Done:  E(RB2PLYPD3) =  -115.533094900     A.U. after   11 cycles
 E2(B2PLYPD3) =    -0.1493718140D+00 E(B2PLYPD3) =    -0.11568246671356D+03

 The electronic state is 1-A.
 Alpha  occ. eigenvalues --  -19.73423 -10.63897  -1.13884  -0.78742  -0.56915
 Alpha  occ. eigenvalues --   -0.52944  -0.49366  -0.40638  -0.35287
 Alpha virt. eigenvalues --    0.03851   0.07926   0.12519   0.12684   0.14832
 Alpha virt. eigenvalues --    0.17380   0.18270   0.28878   0.30319   0.33500
 Alpha virt. eigenvalues --    0.34121   0.39160   0.40062   0.42611   0.44036

 Mulliken charges:
               1
     1  C    0.081529
     2  O   -0.489063
     3  H    0.049773
     4  H    0.046665
     5  H    0.062967
     6  H    0.248131
 Sum of Mulliken charges =   0.00000

 Dipole moment (field-independent basis, Debye):
    X=              0.9101    Y=              1.6332    Z=              0.0641  Tot=              1.8708
 Quadrupole moment (field-independent basis, Debye-Ang):
   XX=            -12.9848   YY=            -12.0264   ZZ=            -13.7602
   XY=             -2.3789   XZ=             -0.0852   YZ=              0.0218

 Normal termination of Gaussian 09 at Wed Aug 26 13:42:26 2020.
