 Gaussian 09, Revision D.01,
 Gaussian 09:  ES64L-G09RevD.01 24-Apr-2013

 --------------------
 #p B2PLYPD3/Def2QZVP
 --------------------

 --------
 methanol
 --------
 Symbolic Z-matrix:
 Charge =  0 Multiplicity = 1

                         Standard orientation:
 ---------------------------------------------------------------------
 Center     Atomic      Atomic             Coordinates (Angstroms)
 Number     Number       Type             X           Y           Z
 ---------------------------------------------------------------------
      1          6           0        0.647319    0.057402    0.012270
      2          8           0       -0.744433   -0.198559   -0.019893
      3          1           0        0.945257    0.351012    0.777257
      4          1           0        1.020416    0.613741   -0.726046
      5          1           0        1.259451   -0.845959   -0.049888
      6          1           0       -1.153574    1.125268    0.084201
 ---------------------------------------------------------------------

 SCF Done:  E(RB2PLYPD3) =  -115.410949547     A.U. after   11 cycles
 E2(B2PLYPD3) =    -0.1554686205D+00 E(B2PLYPD3) =    -0.11556641816769D+03

 The electronic state is 1-A.
 Alpha  occ. eigenvalues --  -19.75727 -10.61651  -1.12246  -0.81227  -0.55097
 Alpha  occ. eigenvalues --   -0.53317  -0.49301  -0.38683  -0.35969
 Alpha virt. eigenvalues --   -0.01364   0.07254   0.12641   0.12940   0.14457
 Alpha virt. eigenvalues --    0.18380   0.18910   0.22234   0.29314   0.33780
 Alpha virt. eigenvalues --    0.34095   0.37984   0.40212   0.42011   0.45106

 Mulliken charges:
               1
     1  C    0.073840
     2  O   -0.475777
     3  H    0.081483
     4  H    0.045316
     5  H    0.035304
     6  H    0.239833
 Sum of Mulliken charges =   0.00000

 Dipole moment (field-independent basis, Debye):
    X=              1.1201    Y=              1.8726    Z=              0.2384  Tot=              2.1950
 Quadrupole moment (field-independent basis, Debye-Ang):
   XX=            -13.1011   YY=            -11.6022   ZZ=            -13.9041
   XY=             -2.3375   XZ=             -0.0962   YZ=              0.0942

 Normal termination of Gaussian 09 at Wed Aug 26 19:06:53 2020.
