 Gaussian 09, Revision D.01,
 Gaussian 09:  ES64L-G09RevD.01 24-Apr-2013

 --------------------
 #p B2PLYPD3/Def2QZVP
 --------------------

 --------
 methanol
 --------
 Symbolic Z-matrix:
 Charge =  0 Multiplicity = 1

                         Standard orientation:
 ---------------------------------------------------------------------
 Center     Atomic      Atomic             Coordinates (Angstroms)
 Number     Number       Type             X           Y           Z
 ---------------------------------------------------------------------
      1          6           0        0.660976   -0.002072    0.021336
      2          8           0       -0.757980    0.080515   -0.026534
      3          1           0        1.007384   -0.881747   -0.752918
      4          1           0        1.068051   -0.141452    1.039912
      5          1           0        1.007097    0.964651   -0.400331
      6          1           0       -0.984549   -0.573138    0.197597
 ---------------------------------------------------------------------

 SCF Done:  E(RB2PLYPD3) =  -115.452463458     A.U. after   10 cycles
 E2(B2PLYPD3) =    -0.1444733406D+00 E(B2PLYPD3) =    -0.11559693679886D+03

 The electronic state is 1-A.
 Alpha  occ. eigenvalues --  -19.70410 -10.67774  -1.23857  -0.80144  -0.61203
 Alpha  occ. eigenvalues --   -0.51673  -0.50260  -0.42129  -0.36033
 Alpha virt. eigenvalues --    0.05330   0.09092   0.11538   0.12149   0.14442
 Alpha virt. eigenvalues --    0.17062   0.18014   0.28450   0.32125   0.32990
 Alpha virt. eigenvalues --    0.35641   0.38814   0.40115   0.41253   0.43113

 Mulliken charges:
               1
     1  C    0.048516
     2  O   -0.268998
     3  H    0.035519
     4  H    0.061050
     5  H    0.077479
     6  H    0.046434
 Sum of Mulliken charges =   0.00000

 Dipole moment (field-independent basis, Debye):
    X=              1.0518    Y=             -1.1247    Z=              0.4979  Tot=              1.6184
 Quadrupole moment (field-independent basis, Debye-Ang):
   XX=            -13.6396   YY=            -12.5387   ZZ=            -13.3181
   XY=              1.8320   XZ=             -0.4217   YZ=             -0.4006

 Normal termination of Gaussian 09 at Wed Aug 26 19:39:46 2020.
