 Gaussian 09, Revision D.01,
 Gaussian 09:  ES64L-G09RevD.01 24-Apr-2013

 --------------------
 #p B2PLYPD3/Def2QZVP
 --------------------

 --------
 methanol
 --------
 Symbolic Z-matrix:
 Charge =  0 Multiplicity = 1

                         Standard orientation:
 ---------------------------------------------------------------------
 Center     Atomic      Atomic             Coordinates (Angstroms)
 Number     Number       Type             X           Y           Z
 ---------------------------------------------------------------------
      1          6           0        0.671137   -0.024553    0.000661
      2          8           0       -0.755947    0.093746   -0.007314
      3          1           0        1.038647   -0.643188   -0.868718
      4          1           0        1.059706   -0.433906    0.959615
      5          1           0        1.034412    1.081451   -0.094079
      6          1           0       -1.112012   -0.607010    0.057730
 ---------------------------------------------------------------------

 SCF Done:  E(RB2PLYPD3) =  -115.507582225     A.U. after   10 cycles
 E2(B2PLYPD3) =    -0.1451106831D+00 E(B2PLYPD3) =    -0.11565269290787D+03

 The electronic state is 1-A.
 Alpha  occ. eigenvalues --  -19.70802 -10.67525  -1.20422  -0.79811  -0.60739
 Alpha  occ. eigenvalues --   -0.51675  -0.49163  -0.41021  -0.36045
 Alpha virt. eigenvalues --    0.05372   0.08828   0.11838   0.12127   0.14757
 Alpha virt. eigenvalues --    0.16847   0.18008   0.28911   0.32505   0.33380
 Alpha virt. eigenvalues --    0.36783   0.38719   0.40077   0.40109   0.42159

 Mulliken charges:
               1
     1  C    0.056060
     2  O   -0.344575
     3  H    0.054665
     4  H    0.056777
     5  H    0.070877
     6  H    0.106194
 Sum of Mulliken charges =   0.00000

 Dipole moment (field-independent basis, Debye):
    X=              0.9184    Y=             -1.3604    Z=              0.1420  Tot=              1.6475
 Quadrupole moment (field-independent basis, Debye-Ang):
   XX=            -13.1082   YY=            -12.4216   ZZ=            -13.6351
   XY=              1.9301   XZ=             -0.1338   YZ=             -0.0639

 Normal termination of Gaussian 09 at Wed Aug 26 09:54:34 2020.
