 Gaussian 09, Revision D.01,
 Gaussian 09:  ES64L-G09RevD.01 24-Apr-2013

 --------------------
 #p B2PLYPD3/Def2QZVP
 --------------------

 --------
 methanol
 --------
 Symbolic Z-matrix:
 Charge =  0 Multiplicity = 1

                         Standard orientation:
 ---------------------------------------------------------------------
 Center     Atomic      Atomic             Coordinates (Angstroms)
 Number     Number       Type             X           Y           Z
 ---------------------------------------------------------------------
      1          6           0        0.694576   -0.010421    0.032832
      2          8           0       -0.750357   -0.032063   -0.065552
      3          1           0        0.849587   -0.345583    1.079509
      4          1           0        1.138342    1.142803   -0.278014
      5          1           0        1.035997   -0.775303   -0.761707
      6          1           0       -1.188529    0.297112    0.287635
 ---------------------------------------------------------------------

 SCF Done:  E(RB2PLYPD3) =  -115.321515888     A.U. after   11 cycles
 E2(B2PLYPD3) =    -0.1442336544D+00 E(B2PLYPD3) =    -0.11546574954214D+03

 The electronic state is 1-A.
 Alpha  occ. eigenvalues --  -19.68096 -10.69820  -1.24299  -0.82772  -0.60450
 Alpha  occ. eigenvalues --   -0.51997  -0.49604  -0.39077  -0.35757
 Alpha virt. eigenvalues --    0.05127   0.09203   0.11227   0.11904   0.13676
 Alpha virt. eigenvalues --    0.16438   0.17651   0.28736   0.30447   0.31933
 Alpha virt. eigenvalues --    0.34765   0.37231   0.39640   0.40898   0.42573

 Mulliken charges:
               1
     1  C    0.057080
     2  O   -0.227673
     3  H    0.071182
     4  H    0.045903
     5  H    0.093383
     6  H   -0.039874
 Sum of Mulliken charges =   0.00000

 Dipole moment (field-independent basis, Debye):
    X=              0.8877    Y=              0.5728    Z=              0.8615  Tot=              1.3632
 Quadrupole moment (field-independent basis, Debye-Ang):
   XX=            -12.8515   YY=            -13.1088   ZZ=            -12.9896
   XY=             -1.2593   XZ=             -1.4909   YZ=              0.2758

 Normal termination of Gaussian 09 at Wed Aug 26 23:03:49 2020.
