 Gaussian 09, Revision D.01,
 Gaussian 09:  ES64L-G09RevD.01 24-Apr-2013

 --------------------
 #p B2PLYPD3/Def2QZVP
 --------------------

 --------
 methanol
 --------
 Symbolic Z-matrix:
 Charge =  0 Multiplicity = 1

                         Standard orientation:
 ---------------------------------------------------------------------
 Center     Atomic      Atomic             Coordinates (Angstroms)
 Number     Number       Type             X           Y           Z
 ---------------------------------------------------------------------
      1          6           0        0.656323    0.025470    0.002587
      2          8           0       -0.742464   -0.140081   -0.003818
      3          1           0        1.053219    0.472887    0.859323
      4          1           0        0.976372    0.593586   -0.844499
      5          1           0        1.110021   -0.944099   -0.050338
      6          1           0       -1.137839    0.845449    0.050531
 ---------------------------------------------------------------------

 SCF Done:  E(RB2PLYPD3) =  -115.540275138     A.U. after   11 cycles
 E2(B2PLYPD3) =    -0.1487885376D+00 E(B2PLYPD3) =    -0.11568906367572D+03

 The electronic state is 1-A.
 Alpha  occ. eigenvalues --  -19.73460 -10.64356  -1.14860  -0.78603  -0.57676
 Alpha  occ. eigenvalues --   -0.52357  -0.49752  -0.40910  -0.35246
 Alpha virt. eigenvalues --    0.04130   0.07966   0.12570   0.12614   0.14933
 Alpha virt. eigenvalues --    0.17567   0.18229   0.29077   0.31101   0.33308
 Alpha virt. eigenvalues --    0.34580   0.39132   0.39901   0.41942   0.44187

 Mulliken charges:
               1
     1  C    0.077319
     2  O   -0.475707
     3  H    0.045306
     4  H    0.042987
     5  H    0.063483
     6  H    0.246611
 Sum of Mulliken charges =   0.00000

 Dipole moment (field-independent basis, Debye):
    X=              0.8881    Y=              1.6121    Z=              0.1092  Tot=              1.8438
 Quadrupole moment (field-independent basis, Debye-Ang):
   XX=            -13.0402   YY=            -12.0466   ZZ=            -13.8531
   XY=             -2.3358   XZ=             -0.0273   YZ=              0.0709

 Normal termination of Gaussian 09 at Thu Aug 27 00:05:29 2020.
