 Gaussian 09, Revision D.01,
 Gaussian 09:  ES64L-G09RevD.01 24-Apr-2013

 --------------------
 #p B2PLYPD3/Def2QZVP
 --------------------

 --------
 methanol
 --------
 Symbolic Z-matrix:
 Charge =  0 Multiplicity = 1

                         Standard orientation:
 ---------------------------------------------------------------------
 Center     Atomic      Atomic             Coordinates (Angstroms)
 Number     Number       Type             X           Y           Z
 ---------------------------------------------------------------------
      1          6           0        0.663579    0.025202   -0.001267
      2          8           0       -0.740716   -0.164051    0.005676
      3          1           0        0.990050    0.507174    0.854250
      4          1           0        1.010738    0.506512   -0.810993
      5          1           0        1.074297   -0.870574   -0.035846
      6          1           0       -1.130834    1.018087   -0.045223
 ---------------------------------------------------------------------

 SCF Done:  E(RB2PLYPD3) =  -115.488108701     A.U. after   11 cycles
 E2(B2PLYPD3) =    -0.1522494974D+00 E(B2PLYPD3) =    -0.11564035819810D+03

 The electronic state is 1-A.
 Alpha  occ. eigenvalues --  -19.74485 -10.62408  -1.12722  -0.79487  -0.55873
 Alpha  occ. eigenvalues --   -0.53089  -0.49282  -0.40591  -0.35198
 Alpha virt. eigenvalues --    0.01620   0.07743   0.12665   0.12792   0.14769
 Alpha virt. eigenvalues --    0.17603   0.18338   0.25205   0.29487   0.33404
 Alpha virt. eigenvalues --    0.34475   0.39165   0.40648   0.42819   0.44087

 Mulliken charges:
               1
     1  C    0.096689
     2  O   -0.489677
     3  H    0.043635
     4  H    0.039818
     5  H    0.060954
     6  H    0.248581
 Sum of Mulliken charges =   0.00000

 Dipole moment (field-independent basis, Debye):
    X=              1.0694    Y=              1.6851    Z=             -0.1090  Tot=              1.9988
 Quadrupole moment (field-independent basis, Debye-Ang):
   XX=            -13.2500   YY=            -11.6192   ZZ=            -13.8146
   XY=             -2.3830   XZ=              0.0168   YZ=             -0.0562

 Normal termination of Gaussian 09 at Wed Aug 26 16:25:35 2020.
