 Gaussian 09, Revision D.01,
 Gaussian 09:  ES64L-G09RevD.01 24-Apr-2013

 --------------------
 #p B2PLYPD3/Def2QZVP
 --------------------

 --------
 methanol
 --------
 Symbolic Z-matrix:
 Charge =  0 Multiplicity = 1

                         Standard orientation:
 ---------------------------------------------------------------------
 Center     Atomic      Atomic             Coordinates (Angstroms)
 Number     Number       Type             X           Y           Z
 ---------------------------------------------------------------------
      1          6           0       -0.669316   -0.029715   -0.003981
      2          8           0        0.737885    0.088013   -0.010200
      3          1           0       -0.927832   -0.550255    0.958809
      4          1           0       -1.024579   -0.589932   -0.897752
      5          1           0       -1.068464    1.112711    0.016505
      6          1           0        1.133687   -0.498339    0.027926
 ---------------------------------------------------------------------

 SCF Done:  E(RB2PLYPD3) =  -115.429759538     A.U. after   11 cycles
 E2(B2PLYPD3) =    -0.1437933897D+00 E(B2PLYPD3) =    -0.11557355292819D+03

 The electronic state is 1-A.
 Alpha  occ. eigenvalues --  -19.69281 -10.68052  -1.23389  -0.81589  -0.61545
 Alpha  occ. eigenvalues --   -0.52453  -0.49596  -0.39961  -0.35941
 Alpha virt. eigenvalues --    0.05338   0.09330   0.11636   0.12060   0.14511
 Alpha virt. eigenvalues --    0.16720   0.17564   0.28924   0.32636   0.33152
 Alpha virt. eigenvalues --    0.35699   0.39168   0.40003   0.40510   0.42792

 Mulliken charges:
               1
     1  C    0.057458
     2  O   -0.259810
     3  H    0.052097
     4  H    0.058484
     5  H    0.072752
     6  H    0.019019
 Sum of Mulliken charges =   0.00000

 Dipole moment (field-independent basis, Debye):
    X=             -0.8122    Y=             -1.2753    Z=              0.0783  Tot=              1.5141
 Quadrupole moment (field-independent basis, Debye-Ang):
   XX=            -13.0272   YY=            -12.5262   ZZ=            -13.4935
   XY=             -1.8901   XZ=              0.2126   YZ=              0.0122

 Normal termination of Gaussian 09 at Wed Aug 26 12:17:12 2020.
