 Gaussian 09, Revision D.01,
 Gaussian 09:  ES64L-G09RevD.01 24-Apr-2013

 --------------------
 #p B2PLYPD3/Def2QZVP
 --------------------

 --------
 methanol
 --------
 Symbolic Z-matrix:
 Charge =  0 Multiplicity = 1

                         Standard orientation:
 ---------------------------------------------------------------------
 Center     Atomic      Atomic             Coordinates (Angstroms)
 Number     Number       Type             X           Y           Z
 ---------------------------------------------------------------------
      1          6           0        0.672814    0.068439   -0.023349
      2          8           0       -0.720770   -0.177734    0.006225
      3          1           0        1.036159    0.454847    0.848241
      4          1           0        1.063943    0.532058   -0.704146
      5          1           0        1.001585   -0.970978   -0.030930
      6          1           0       -1.372413    0.995309   -0.022873
 ---------------------------------------------------------------------

 SCF Done:  E(RB2PLYPD3) =  -115.445939032     A.U. after   11 cycles
 E2(B2PLYPD3) =    -0.1544119655D+00 E(B2PLYPD3) =    -0.11560035099707D+03

 The electronic state is 1-A.
 Alpha  occ. eigenvalues --  -19.74985 -10.62474  -1.12047  -0.79835  -0.56305
 Alpha  occ. eigenvalues --   -0.53005  -0.48044  -0.38918  -0.35330
 Alpha virt. eigenvalues --    0.00112   0.07402   0.12090   0.13176   0.15264
 Alpha virt. eigenvalues --    0.16660   0.18787   0.23389   0.29232   0.33822
 Alpha virt. eigenvalues --    0.34862   0.37081   0.38967   0.43146   0.46539

 Mulliken charges:
               1
     1  C    0.073123
     2  O   -0.478008
     3  H    0.050145
     4  H    0.062338
     5  H    0.057995
     6  H    0.234406
 Sum of Mulliken charges =   0.00000

 Dipole moment (field-independent basis, Debye):
    X=              0.8175    Y=              1.7115    Z=             -0.0940  Tot=              1.8990
 Quadrupole moment (field-independent basis, Debye-Ang):
   XX=            -12.4044   YY=            -11.8705   ZZ=            -14.0030
   XY=             -2.3533   XZ=             -0.0312   YZ=             -0.1361

 Normal termination of Gaussian 09 at Wed Aug 26 22:33:39 2020.
