 Gaussian 09, Revision D.01,
 Gaussian 09:  ES64L-G09RevD.01 24-Apr-2013

 --------------------
 #p B2PLYPD3/Def2QZVP
 --------------------

 --------
 methanol
 --------
 Symbolic Z-matrix:
 Charge =  0 Multiplicity = 1

                         Standard orientation:
 ---------------------------------------------------------------------
 Center     Atomic      Atomic             Coordinates (Angstroms)
 Number     Number       Type             X           Y           Z
 ---------------------------------------------------------------------
      1          6           0        0.658379    0.004016    0.010637
      2          8           0       -0.735066   -0.125868   -0.008861
      3          1           0        0.997465    0.450014    0.918339
      4          1           0        0.970587    0.660560   -0.858880
      5          1           0        1.057663   -0.922362   -0.108638
      6          1           0       -1.095460    0.794633    0.056245
 ---------------------------------------------------------------------

 SCF Done:  E(RB2PLYPD3) =  -115.546152172     A.U. after   10 cycles
 E2(B2PLYPD3) =    -0.1473376046D+00 E(B2PLYPD3) =    -0.11569348977697D+03

 The electronic state is 1-A.
 Alpha  occ. eigenvalues --  -19.72626 -10.64739  -1.16304  -0.78809  -0.58613
 Alpha  occ. eigenvalues --   -0.51920  -0.51022  -0.41364  -0.34848
 Alpha virt. eigenvalues --    0.04649   0.08405   0.12274   0.12698   0.14831
 Alpha virt. eigenvalues --    0.17442   0.17869   0.29172   0.32793   0.33574
 Alpha virt. eigenvalues --    0.34577   0.38940   0.41100   0.41403   0.44183

 Mulliken charges:
               1
     1  C    0.074521
     2  O   -0.459346
     3  H    0.044850
     4  H    0.032203
     5  H    0.074749
     6  H    0.233023
 Sum of Mulliken charges =   0.00000

 Dipole moment (field-independent basis, Debye):
    X=              0.8726    Y=              1.4748    Z=              0.1608  Tot=              1.7212
 Quadrupole moment (field-independent basis, Debye-Ang):
   XX=            -13.2987   YY=            -12.0413   ZZ=            -13.7560
   XY=             -2.3410   XZ=             -0.0708   YZ=              0.1666

 Normal termination of Gaussian 09 at Wed Aug 26 14:27:27 2020.
