 Gaussian 09, Revision D.01,
 Gaussian 09:  ES64L-G09RevD.01 24-Apr-2013

 --------------------
 #p B2PLYPD3/Def2QZVP
 --------------------

 --------
 methanol
 --------
 Symbolic Z-matrix:
 Charge =  0 Multiplicity = 1

                         Standard orientation:
 ---------------------------------------------------------------------
 Center     Atomic      Atomic             Coordinates (Angstroms)
 Number     Number       Type             X           Y           Z
 ---------------------------------------------------------------------
      1          6           0       -0.679515    0.013207    0.010942
      2          8           0        0.749235   -0.135208   -0.017258
      3          1           0       -1.102627    0.579631   -0.829754
      4          1           0       -0.957598    0.460293    0.874439
      5          1           0       -0.987558   -0.937705   -0.018477
      6          1           0        1.130992    0.900201    0.046205
 ---------------------------------------------------------------------

 SCF Done:  E(RB2PLYPD3) =  -115.524194316     A.U. after   11 cycles
 E2(B2PLYPD3) =    -0.1499396666D+00 E(B2PLYPD3) =    -0.11567413398240D+03

 The electronic state is 1-A.
 Alpha  occ. eigenvalues --  -19.73500 -10.63663  -1.13334  -0.79143  -0.57368
 Alpha  occ. eigenvalues --   -0.52022  -0.49033  -0.41617  -0.35177
 Alpha virt. eigenvalues --    0.03761   0.07944   0.12520   0.12603   0.14952
 Alpha virt. eigenvalues --    0.16993   0.18197   0.28699   0.30414   0.33125
 Alpha virt. eigenvalues --    0.33802   0.38761   0.40196   0.41502   0.44535

 Mulliken charges:
               1
     1  C    0.079617
     2  O   -0.491461
     3  H    0.043461
     4  H    0.049256
     5  H    0.073852
     6  H    0.245275
 Sum of Mulliken charges =   0.00000

 Dipole moment (field-independent basis, Debye):
    X=             -1.0303    Y=              1.5894    Z=              0.1797  Tot=              1.9026
 Quadrupole moment (field-independent basis, Debye-Ang):
   XX=            -13.2375   YY=            -11.7654   ZZ=            -13.8053
   XY=              2.2487   XZ=              0.1503   YZ=              0.1148

 Normal termination of Gaussian 09 at Wed Aug 26 14:40:21 2020.
