 Gaussian 09, Revision D.01,
 Gaussian 09:  ES64L-G09RevD.01 24-Apr-2013

 --------------------
 #p B2PLYPD3/Def2QZVP
 --------------------

 --------
 methanol
 --------
 Symbolic Z-matrix:
 Charge =  0 Multiplicity = 1

                         Standard orientation:
 ---------------------------------------------------------------------
 Center     Atomic      Atomic             Coordinates (Angstroms)
 Number     Number       Type             X           Y           Z
 ---------------------------------------------------------------------
      1          6           0       -0.664102    0.003829   -0.002042
      2          8           0        0.738341   -0.128827   -0.017242
      3          1           0       -1.066311    0.669214   -0.822131
      4          1           0       -1.016184    0.438298    0.933556
      5          1           0       -1.043114   -0.914882   -0.053003
      6          1           0        1.203488    0.815015    0.091767
 ---------------------------------------------------------------------

 SCF Done:  E(RB2PLYPD3) =  -115.536353183     A.U. after   11 cycles
 E2(B2PLYPD3) =    -0.1486916928D+00 E(B2PLYPD3) =    -0.11568504487537D+03

 The electronic state is 1-A.
 Alpha  occ. eigenvalues --  -19.73225 -10.64760  -1.14649  -0.78704  -0.57637
 Alpha  occ. eigenvalues --   -0.51223  -0.50710  -0.40887  -0.34723
 Alpha virt. eigenvalues --    0.04173   0.07919   0.12418   0.12802   0.14995
 Alpha virt. eigenvalues --    0.17175   0.18195   0.29167   0.31519   0.33156
 Alpha virt. eigenvalues --    0.34363   0.38475   0.40209   0.40984   0.43560

 Mulliken charges:
               1
     1  C    0.073740
     2  O   -0.480491
     3  H    0.038659
     4  H    0.040520
     5  H    0.077988
     6  H    0.249584
 Sum of Mulliken charges =   0.00000

 Dipole moment (field-independent basis, Debye):
    X=             -0.7573    Y=              1.4867    Z=              0.2239  Tot=              1.6834
 Quadrupole moment (field-independent basis, Debye-Ang):
   XX=            -12.8120   YY=            -12.0946   ZZ=            -13.9387
   XY=              2.4642   XZ=              0.2437   YZ=              0.1232

 Normal termination of Gaussian 09 at Wed Aug 26 14:58:41 2020.
