 Gaussian 09, Revision D.01,
 Gaussian 09:  ES64L-G09RevD.01 24-Apr-2013

 --------------------
 #p B2PLYPD3/Def2QZVP
 --------------------

 --------
 methanol
 --------
 Symbolic Z-matrix:
 Charge =  0 Multiplicity = 1

                         Standard orientation:
 ---------------------------------------------------------------------
 Center     Atomic      Atomic             Coordinates (Angstroms)
 Number     Number       Type             X           Y           Z
 ---------------------------------------------------------------------
      1          6           0       -0.657302   -0.021493    0.008362
      2          8           0        0.742465    0.102013   -0.010925
      3          1           0       -0.975792   -0.478090    0.962861
      4          1           0       -1.025168   -0.603011   -0.912607
      5          1           0       -1.078590    1.018536   -0.053629
      6          1           0        1.083639   -0.624576    0.040606
 ---------------------------------------------------------------------

 SCF Done:  E(RB2PLYPD3) =  -115.518903700     A.U. after   10 cycles
 E2(B2PLYPD3) =    -0.1448334227D+00 E(B2PLYPD3) =    -0.11566373712310D+03

 The electronic state is 1-A.
 Alpha  occ. eigenvalues --  -19.70952 -10.66912  -1.20768  -0.79774  -0.60616
 Alpha  occ. eigenvalues --   -0.52214  -0.50334  -0.40904  -0.35726
 Alpha virt. eigenvalues --    0.05395   0.08944   0.11992   0.12295   0.14515
 Alpha virt. eigenvalues --    0.17195   0.17957   0.28802   0.33009   0.33599
 Alpha virt. eigenvalues --    0.37188   0.38975   0.39964   0.40552   0.43451

 Mulliken charges:
               1
     1  C    0.059869
     2  O   -0.353148
     3  H    0.052135
     4  H    0.045240
     5  H    0.071679
     6  H    0.124226
 Sum of Mulliken charges =   0.00000

 Dipole moment (field-independent basis, Debye):
    X=             -0.8627    Y=             -1.3316    Z=              0.1393  Tot=              1.5927
 Quadrupole moment (field-independent basis, Debye-Ang):
   XX=            -13.2298   YY=            -12.4703   ZZ=            -13.5463
   XY=             -2.0913   XZ=              0.1345   YZ=             -0.0933

 Normal termination of Gaussian 09 at Wed Aug 26 16:14:19 2020.
