 Gaussian 09, Revision D.01,
 Gaussian 09:  ES64L-G09RevD.01 24-Apr-2013

 --------------------
 #p B2PLYPD3/Def2QZVP
 --------------------

 --------
 methanol
 --------
 Symbolic Z-matrix:
 Charge =  0 Multiplicity = 1

                         Standard orientation:
 ---------------------------------------------------------------------
 Center     Atomic      Atomic             Coordinates (Angstroms)
 Number     Number       Type             X           Y           Z
 ---------------------------------------------------------------------
      1          6           0        0.661450   -0.016657    0.010328
      2          8           0       -0.753502    0.100199   -0.015068
      3          1           0        1.059566   -0.689818   -0.852537
      4          1           0        1.004287   -0.443504    0.958404
      5          1           0        1.121778    1.037599   -0.108659
      6          1           0       -1.126313   -0.605928    0.061366
 ---------------------------------------------------------------------

 SCF Done:  E(RB2PLYPD3) =  -115.514856272     A.U. after   10 cycles
 E2(B2PLYPD3) =    -0.1451387870D+00 E(B2PLYPD3) =    -0.11565999505945D+03

 The electronic state is 1-A.
 Alpha  occ. eigenvalues --  -19.71090 -10.67545  -1.20312  -0.79742  -0.60870
 Alpha  occ. eigenvalues --   -0.51361  -0.49941  -0.40867  -0.35742
 Alpha virt. eigenvalues --    0.05357   0.08732   0.11995   0.12187   0.14714
 Alpha virt. eigenvalues --    0.17235   0.17842   0.28960   0.32998   0.33089
 Alpha virt. eigenvalues --    0.36724   0.38277   0.39429   0.40405   0.42734

 Mulliken charges:
               1
     1  C    0.062449
     2  O   -0.356629
     3  H    0.042544
     4  H    0.054714
     5  H    0.073241
     6  H    0.123681
 Sum of Mulliken charges =   0.00000

 Dipole moment (field-independent basis, Debye):
    X=              0.8639    Y=             -1.3374    Z=              0.2149  Tot=              1.6066
 Quadrupole moment (field-independent basis, Debye-Ang):
   XX=            -12.9676   YY=            -12.4942   ZZ=            -13.7354
   XY=              2.0915   XZ=             -0.1841   YZ=             -0.1413

 Normal termination of Gaussian 09 at Wed Aug 26 23:41:14 2020.
