 Gaussian 09, Revision D.01,
 Gaussian 09:  ES64L-G09RevD.01 24-Apr-2013

 --------------------
 #p B2PLYPD3/Def2QZVP
 --------------------

 --------
 methanol
 --------
 Symbolic Z-matrix:
 Charge =  0 Multiplicity = 1

                         Standard orientation:
 ---------------------------------------------------------------------
 Center     Atomic      Atomic             Coordinates (Angstroms)
 Number     Number       Type             X           Y           Z
 ---------------------------------------------------------------------
      1          6           0       -0.654616   -0.035807    0.014105
      2          8           0        0.760466    0.095112   -0.016591
      3          1           0       -0.978458   -0.494735    0.939973
      4          1           0       -1.072133   -0.572754   -0.929672
      5          1           0       -1.139355    1.084329   -0.018519
      6          1           0        1.033914   -0.562895    0.056318
 ---------------------------------------------------------------------

 SCF Done:  E(RB2PLYPD3) =  -115.438715565     A.U. after   10 cycles
 E2(B2PLYPD3) =    -0.1443760870D+00 E(B2PLYPD3) =    -0.11558309165225D+03

 The electronic state is 1-A.
 Alpha  occ. eigenvalues --  -19.70403 -10.68134  -1.24215  -0.80202  -0.61821
 Alpha  occ. eigenvalues --   -0.52372  -0.49484  -0.40928  -0.36529
 Alpha virt. eigenvalues --    0.05299   0.09081   0.11673   0.11905   0.14443
 Alpha virt. eigenvalues --    0.17363   0.18044   0.28450   0.32502   0.33167
 Alpha virt. eigenvalues --    0.35061   0.37973   0.39921   0.40826   0.43425

 Mulliken charges:
               1
     1  C    0.051288
     2  O   -0.262834
     3  H    0.062722
     4  H    0.052119
     5  H    0.059728
     6  H    0.036978
 Sum of Mulliken charges =   0.00000

 Dipole moment (field-independent basis, Debye):
    X=             -0.9977    Y=             -1.3398    Z=              0.2206  Tot=              1.6849
 Quadrupole moment (field-independent basis, Debye-Ang):
   XX=            -13.3045   YY=            -12.6089   ZZ=            -13.4822
   XY=             -1.8562   XZ=              0.1836   YZ=             -0.1459

 Normal termination of Gaussian 09 at Wed Aug 26 13:18:40 2020.
