 Gaussian 09, Revision D.01,
 Gaussian 09:  ES64L-G09RevD.01 24-Apr-2013

 --------------------
 #p B2PLYPD3/Def2QZVP
 --------------------

 --------
 methanol
 --------
 Symbolic Z-matrix:
 Charge =  0 Multiplicity = 1

                         Standard orientation:
 ---------------------------------------------------------------------
 Center     Atomic      Atomic             Coordinates (Angstroms)
 Number     Number       Type             X           Y           Z
 ---------------------------------------------------------------------
      1          6           0       -0.671049    0.012353   -0.007856
      2          8           0        0.758024   -0.148299   -0.012270
      3          1           0       -1.100176    0.615219   -0.788012
      4          1           0       -1.056082    0.396855    0.905939
      5          1           0       -1.042871   -0.875031   -0.045730
      6          1           0        1.161232    0.975228    0.073095
 ---------------------------------------------------------------------

 SCF Done:  E(RB2PLYPD3) =  -115.500622703     A.U. after   11 cycles
 E2(B2PLYPD3) =    -0.1519360925D+00 E(B2PLYPD3) =    -0.11565255879554D+03

 The electronic state is 1-A.
 Alpha  occ. eigenvalues --  -19.74550 -10.63537  -1.12425  -0.79411  -0.55934
 Alpha  occ. eigenvalues --   -0.51230  -0.49540  -0.41213  -0.35199
 Alpha virt. eigenvalues --    0.02455   0.07545   0.12512   0.12902   0.14874
 Alpha virt. eigenvalues --    0.17297   0.18607   0.26402   0.29474   0.33382
 Alpha virt. eigenvalues --    0.33864   0.38293   0.40760   0.41079   0.43412

 Mulliken charges:
               1
     1  C    0.078315
     2  O   -0.491399
     3  H    0.044371
     4  H    0.043097
     5  H    0.071663
     6  H    0.253952
 Sum of Mulliken charges =   0.00000

 Dipole moment (field-independent basis, Debye):
    X=             -1.0300    Y=              1.6095    Z=              0.1441  Tot=              1.9163
 Quadrupole moment (field-independent basis, Debye-Ang):
   XX=            -13.0239   YY=            -11.7532   ZZ=            -13.9724
   XY=              2.4128   XZ=              0.1792   YZ=              0.0567

 Normal termination of Gaussian 09 at Wed Aug 26 12:57:25 2020.
