 Gaussian 09, Revision D.01,
 Gaussian 09:  ES64L-G09RevD.01 24-Apr-2013

 --------------------
 #p B2PLYPD3/Def2QZVP
 --------------------

 --------
 methanol
 --------
 Symbolic Z-matrix:
 Charge =  0 Multiplicity = 1

                         Standard orientation:
 ---------------------------------------------------------------------
 Center     Atomic      Atomic             Coordinates (Angstroms)
 Number     Number       Type             X           Y           Z
 ---------------------------------------------------------------------
      1          6           0        0.648120   -0.019812   -0.005914
      2          8           0       -0.739565    0.094577   -0.001731
      3          1           0        0.939110   -0.726659   -0.844133
      4          1           0        1.088894   -0.354795    1.012117
      5          1           0        1.054577    1.030348   -0.199943
      6          1           0       -1.054778   -0.586637    0.081287
 ---------------------------------------------------------------------

 SCF Done:  E(RB2PLYPD3) =  -115.483483530     A.U. after   10 cycles
 E2(B2PLYPD3) =    -0.1442670178D+00 E(B2PLYPD3) =    -0.11562775054789D+03

 The electronic state is 1-A.
 Alpha  occ. eigenvalues --  -19.70609 -10.67515  -1.23082  -0.80257  -0.61385
 Alpha  occ. eigenvalues --   -0.52227  -0.50422  -0.40999  -0.35753
 Alpha virt. eigenvalues --    0.05381   0.09087   0.11943   0.12119   0.14595
 Alpha virt. eigenvalues --    0.17065   0.17924   0.28623   0.32699   0.34015
 Alpha virt. eigenvalues --    0.36919   0.38753   0.39409   0.40795   0.43163

 Mulliken charges:
               1
     1  C    0.051522
     2  O   -0.289753
     3  H    0.046967
     4  H    0.045007
     5  H    0.071907
     6  H    0.074349
 Sum of Mulliken charges =   0.00000

 Dipole moment (field-independent basis, Debye):
    X=              0.8240    Y=             -1.2794    Z=              0.1212  Tot=              1.5266
 Quadrupole moment (field-independent basis, Debye-Ang):
   XX=            -13.3346   YY=            -12.4692   ZZ=            -13.5867
   XY=              1.9864   XZ=             -0.1489   YZ=             -0.0746

 Normal termination of Gaussian 09 at Wed Aug 26 13:47:38 2020.
