 Gaussian 09, Revision D.01,
 Gaussian 09:  ES64L-G09RevD.01 24-Apr-2013

 --------------------
 #p B2PLYPD3/Def2QZVP
 --------------------

 --------
 methanol
 --------
 Symbolic Z-matrix:
 Charge =  0 Multiplicity = 1

                         Standard orientation:
 ---------------------------------------------------------------------
 Center     Atomic      Atomic             Coordinates (Angstroms)
 Number     Number       Type             X           Y           Z
 ---------------------------------------------------------------------
      1          6           0       -0.668052   -0.014956   -0.016898
      2          8           0        0.740392    0.055219    0.004261
      3          1           0       -0.984523   -0.660630    0.976823
      4          1           0       -1.098141   -0.527765   -0.949099
      5          1           0       -1.010834    1.188758    0.100552
      6          1           0        1.178674   -0.352385   -0.060977
 ---------------------------------------------------------------------

 SCF Done:  E(RB2PLYPD3) =  -115.197231861     A.U. after   11 cycles
 E2(B2PLYPD3) =    -0.1438517380D+00 E(B2PLYPD3) =    -0.11534108359901D+03

 The electronic state is 1-A.
 Alpha  occ. eigenvalues --  -19.68178 -10.70714  -1.27566  -0.84360  -0.62046
 Alpha  occ. eigenvalues --   -0.50990  -0.49782  -0.38875  -0.35720
 Alpha virt. eigenvalues --    0.04904   0.09524   0.11077   0.11622   0.14311
 Alpha virt. eigenvalues --    0.16373   0.17567   0.28887   0.31529   0.32973
 Alpha virt. eigenvalues --    0.34522   0.36539   0.38017   0.40311   0.42483

 Mulliken charges:
               1
     1  C    0.047412
     2  O   -0.152358
     3  H    0.047552
     4  H    0.062813
     5  H    0.082510
     6  H   -0.087928
 Sum of Mulliken charges =   0.00000

 Dipole moment (field-independent basis, Debye):
    X=             -0.7085    Y=             -0.9968    Z=             -0.2462  Tot=              1.2475
 Quadrupole moment (field-independent basis, Debye-Ang):
   XX=            -12.7538   YY=            -12.7336   ZZ=            -13.5390
   XY=             -1.5478   XZ=             -0.0221   YZ=              0.1929

 Normal termination of Gaussian 09 at Wed Aug 26 22:16:59 2020.
