 Gaussian 09, Revision D.01,
 Gaussian 09:  ES64L-G09RevD.01 24-Apr-2013

 --------------------
 #p B2PLYPD3/Def2QZVP
 --------------------

 --------
 methanol
 --------
 Symbolic Z-matrix:
 Charge =  0 Multiplicity = 1

                         Standard orientation:
 ---------------------------------------------------------------------
 Center     Atomic      Atomic             Coordinates (Angstroms)
 Number     Number       Type             X           Y           Z
 ---------------------------------------------------------------------
      1          6           0        0.671576    0.022923    0.018990
      2          8           0       -0.754449   -0.147104   -0.012407
      3          1           0        0.995452    0.448307    0.877701
      4          1           0        1.104616    0.565843   -0.849746
      5          1           0        1.085950   -0.892329   -0.060367
      6          1           0       -1.179884    0.917472    0.017726
 ---------------------------------------------------------------------

 SCF Done:  E(RB2PLYPD3) =  -115.516626147     A.U. after   11 cycles
 E2(B2PLYPD3) =    -0.1507864278D+00 E(B2PLYPD3) =    -0.11566741257528D+03

 The electronic state is 1-A.
 Alpha  occ. eigenvalues --  -19.74086 -10.63894  -1.12844  -0.79146  -0.56151
 Alpha  occ. eigenvalues --   -0.52004  -0.49431  -0.40824  -0.35331
 Alpha virt. eigenvalues --    0.03234   0.07623   0.12520   0.12783   0.14765
 Alpha virt. eigenvalues --    0.17416   0.18566   0.27753   0.29584   0.33298
 Alpha virt. eigenvalues --    0.33755   0.38304   0.40506   0.41795   0.43755

 Mulliken charges:
               1
     1  C    0.080688
     2  O   -0.493811
     3  H    0.052496
     4  H    0.040389
     5  H    0.066467
     6  H    0.253771
 Sum of Mulliken charges =   0.00000

 Dipole moment (field-independent basis, Debye):
    X=              0.9737    Y=              1.5969    Z=              0.1230  Tot=              1.8744
 Quadrupole moment (field-independent basis, Debye-Ang):
   XX=            -12.9091   YY=            -11.9976   ZZ=            -13.8436
   XY=             -2.4756   XZ=             -0.0661   YZ=              0.1266

 Normal termination of Gaussian 09 at Wed Aug 26 12:03:47 2020.
