 Gaussian 09, Revision D.01,
 Gaussian 09:  ES64L-G09RevD.01 24-Apr-2013

 --------------------
 #p B2PLYPD3/Def2QZVP
 --------------------

 --------
 methanol
 --------
 Symbolic Z-matrix:
 Charge =  0 Multiplicity = 1

                         Standard orientation:
 ---------------------------------------------------------------------
 Center     Atomic      Atomic             Coordinates (Angstroms)
 Number     Number       Type             X           Y           Z
 ---------------------------------------------------------------------
      1          6           0        0.672458   -0.008630   -0.003780
      2          8           0       -0.750711    0.094569   -0.013464
      3          1           0        1.043594   -0.731646   -0.813171
      4          1           0        1.041111   -0.340566    1.023949
      5          1           0        1.006568    1.002648   -0.175414
      6          1           0       -1.120332   -0.635212    0.095029
 ---------------------------------------------------------------------

 SCF Done:  E(RB2PLYPD3) =  -115.527487532     A.U. after   10 cycles
 E2(B2PLYPD3) =    -0.1453909342D+00 E(B2PLYPD3) =    -0.11567287846668D+03

 The electronic state is 1-A.
 Alpha  occ. eigenvalues --  -19.71070 -10.66978  -1.19229  -0.79784  -0.59970
 Alpha  occ. eigenvalues --   -0.51190  -0.50355  -0.41300  -0.35536
 Alpha virt. eigenvalues --    0.05377   0.08738   0.11960   0.12357   0.14681
 Alpha virt. eigenvalues --    0.16824   0.17995   0.28985   0.32885   0.33086
 Alpha virt. eigenvalues --    0.37106   0.39355   0.39568   0.40214   0.43022

 Mulliken charges:
               1
     1  C    0.061696
     2  O   -0.383161
     3  H    0.047677
     4  H    0.048436
     5  H    0.081526
     6  H    0.143826
 Sum of Mulliken charges =   0.00000

 Dipole moment (field-independent basis, Debye):
    X=              0.8902    Y=             -1.3004    Z=              0.1934  Tot=              1.5877
 Quadrupole moment (field-independent basis, Debye-Ang):
   XX=            -13.1276   YY=            -12.3572   ZZ=            -13.6514
   XY=              2.0691   XZ=             -0.3100   YZ=             -0.1239

 Normal termination of Gaussian 09 at Wed Aug 26 23:38:43 2020.
