 Gaussian 09, Revision D.01,
 Gaussian 09:  ES64L-G09RevD.01 24-Apr-2013

 --------------------
 #p B2PLYPD3/Def2QZVP
 --------------------

 --------
 methanol
 --------
 Symbolic Z-matrix:
 Charge =  0 Multiplicity = 1

                         Standard orientation:
 ---------------------------------------------------------------------
 Center     Atomic      Atomic             Coordinates (Angstroms)
 Number     Number       Type             X           Y           Z
 ---------------------------------------------------------------------
      1          6           0       -0.674136   -0.018497    0.000680
      2          8           0        0.758172    0.104932   -0.004021
      3          1           0       -1.071004   -0.490888    0.929551
      4          1           0       -1.008533   -0.619439   -0.892306
      5          1           0       -1.094397    1.024194   -0.059317
      6          1           0        1.153377   -0.642339    0.050162
 ---------------------------------------------------------------------

 SCF Done:  E(RB2PLYPD3) =  -115.536070228     A.U. after   10 cycles
 E2(B2PLYPD3) =    -0.1458486339D+00 E(B2PLYPD3) =    -0.11568191886240D+03

 The electronic state is 1-A.
 Alpha  occ. eigenvalues --  -19.71391 -10.67101  -1.18237  -0.79384  -0.59859
 Alpha  occ. eigenvalues --   -0.51300  -0.49691  -0.40948  -0.35692
 Alpha virt. eigenvalues --    0.05354   0.08516   0.12162   0.12200   0.14673
 Alpha virt. eigenvalues --    0.17117   0.17971   0.29034   0.32402   0.33364
 Alpha virt. eigenvalues --    0.37176   0.38800   0.39455   0.39944   0.42709

 Mulliken charges:
               1
     1  C    0.065781
     2  O   -0.407810
     3  H    0.052495
     4  H    0.050804
     5  H    0.075458
     6  H    0.163272
 Sum of Mulliken charges =   0.00000

 Dipole moment (field-independent basis, Debye):
    X=             -0.9086    Y=             -1.3814    Z=              0.1112  Tot=              1.6572
 Quadrupole moment (field-independent basis, Debye-Ang):
   XX=            -12.8915   YY=            -12.4373   ZZ=            -13.7307
   XY=             -2.1587   XZ=              0.0762   YZ=             -0.0657

 Normal termination of Gaussian 09 at Wed Aug 26 23:58:34 2020.
