 Gaussian 09, Revision D.01,
 Gaussian 09:  ES64L-G09RevD.01 24-Apr-2013

 --------------------
 #p B2PLYPD3/Def2QZVP
 --------------------

 --------
 methanol
 --------
 Symbolic Z-matrix:
 Charge =  0 Multiplicity = 1

                         Standard orientation:
 ---------------------------------------------------------------------
 Center     Atomic      Atomic             Coordinates (Angstroms)
 Number     Number       Type             X           Y           Z
 ---------------------------------------------------------------------
      1          6           0       -0.667459   -0.022004   -0.012811
      2          8           0        0.741538    0.090216   -0.004011
      3          1           0       -1.010093   -0.431132    1.037323
      4          1           0       -0.912753   -0.706645   -0.872419
      5          1           0       -1.119322    1.036138   -0.128178
      6          1           0        1.114620   -0.488068    0.072231
 ---------------------------------------------------------------------

 SCF Done:  E(RB2PLYPD3) =  -115.409796484     A.U. after   11 cycles
 E2(B2PLYPD3) =    -0.1436576095D+00 E(B2PLYPD3) =    -0.11555345409322D+03

 The electronic state is 1-A.
 Alpha  occ. eigenvalues --  -19.69198 -10.68304  -1.24181  -0.81723  -0.61247
 Alpha  occ. eigenvalues --   -0.52310  -0.50439  -0.40171  -0.35785
 Alpha virt. eigenvalues --    0.05369   0.09335   0.11754   0.12075   0.14129
 Alpha virt. eigenvalues --    0.16975   0.17560   0.28666   0.32501   0.32779
 Alpha virt. eigenvalues --    0.36660   0.38164   0.39463   0.40682   0.43199

 Mulliken charges:
               1
     1  C    0.059990
     2  O   -0.248916
     3  H    0.044044
     4  H    0.055671
     5  H    0.081347
     6  H    0.007865
 Sum of Mulliken charges =   0.00000

 Dipole moment (field-independent basis, Debye):
    X=             -0.8667    Y=             -1.1819    Z=              0.1033  Tot=              1.4692
 Quadrupole moment (field-independent basis, Debye-Ang):
   XX=            -13.0633   YY=            -12.6090   ZZ=            -13.4543
   XY=             -2.0638   XZ=              0.2263   YZ=             -0.0073

 Normal termination of Gaussian 09 at Wed Aug 26 15:05:14 2020.
