 Gaussian 09, Revision D.01,
 Gaussian 09:  ES64L-G09RevD.01 24-Apr-2013

 --------------------
 #p B2PLYPD3/Def2QZVP
 --------------------

 --------
 methanol
 --------
 Symbolic Z-matrix:
 Charge =  0 Multiplicity = 1

                         Standard orientation:
 ---------------------------------------------------------------------
 Center     Atomic      Atomic             Coordinates (Angstroms)
 Number     Number       Type             X           Y           Z
 ---------------------------------------------------------------------
      1          6           0       -0.673348   -0.009284    0.032166
      2          8           0        0.766110    0.073514   -0.039892
      3          1           0       -0.988053   -0.190524    1.049845
      4          1           0       -1.139218   -0.836163   -0.773074
      5          1           0       -1.048155    1.014612   -0.325433
      6          1           0        1.086637   -0.520336    0.174798
 ---------------------------------------------------------------------

 SCF Done:  E(RB2PLYPD3) =  -115.426912801     A.U. after   11 cycles
 E2(B2PLYPD3) =    -0.1444973615D+00 E(B2PLYPD3) =    -0.11557141016224D+03

 The electronic state is 1-A.
 Alpha  occ. eigenvalues --  -19.70006 -10.68477  -1.23425  -0.80834  -0.61286
 Alpha  occ. eigenvalues --   -0.51388  -0.49559  -0.41253  -0.36217
 Alpha virt. eigenvalues --    0.05339   0.08913   0.11552   0.12003   0.14404
 Alpha virt. eigenvalues --    0.16887   0.18117   0.28542   0.31673   0.32533
 Alpha virt. eigenvalues --    0.35398   0.37881   0.40334   0.40779   0.42575

 Mulliken charges:
               1
     1  C    0.050892
     2  O   -0.264945
     3  H    0.068007
     4  H    0.040728
     5  H    0.079172
     6  H    0.026146
 Sum of Mulliken charges =   0.00000

 Dipole moment (field-independent basis, Debye):
    X=             -1.0005    Y=             -1.0864    Z=              0.5660  Tot=              1.5817
 Quadrupole moment (field-independent basis, Debye-Ang):
   XX=            -13.1598   YY=            -12.7361   ZZ=            -13.3409
   XY=             -1.8564   XZ=              0.5986   YZ=             -0.3619

 Normal termination of Gaussian 09 at Wed Aug 26 15:57:25 2020.
