 Gaussian 09, Revision D.01,
 Gaussian 09:  ES64L-G09RevD.01 24-Apr-2013

 --------------------
 #p B2PLYPD3/Def2QZVP
 --------------------

 --------
 methanol
 --------
 Symbolic Z-matrix:
 Charge =  0 Multiplicity = 1

                         Standard orientation:
 ---------------------------------------------------------------------
 Center     Atomic      Atomic             Coordinates (Angstroms)
 Number     Number       Type             X           Y           Z
 ---------------------------------------------------------------------
      1          6           0        0.684400   -0.038061    0.010125
      2          8           0       -0.754620    0.094671   -0.017850
      3          1           0        0.995563   -0.745778   -0.812182
      4          1           0        1.048801   -0.314567    0.965961
      5          1           0        1.050854    1.091865   -0.197426
      6          1           0       -1.164660   -0.560520    0.125694
 ---------------------------------------------------------------------

 SCF Done:  E(RB2PLYPD3) =  -115.499981960     A.U. after   10 cycles
 E2(B2PLYPD3) =    -0.1451226213D+00 E(B2PLYPD3) =    -0.11564510458097D+03

 The electronic state is 1-A.
 Alpha  occ. eigenvalues --  -19.70333 -10.67527  -1.19697  -0.80240  -0.60628
 Alpha  occ. eigenvalues --   -0.52386  -0.48417  -0.40245  -0.36153
 Alpha virt. eigenvalues --    0.05359   0.08842   0.11616   0.12167   0.14619
 Alpha virt. eigenvalues --    0.16718   0.18017   0.28945   0.31830   0.33532
 Alpha virt. eigenvalues --    0.35692   0.38778   0.40034   0.41618   0.42041

 Mulliken charges:
               1
     1  C    0.059160
     2  O   -0.353635
     3  H    0.059371
     4  H    0.066735
     5  H    0.067812
     6  H    0.100558
 Sum of Mulliken charges =   0.00000

 Dipole moment (field-independent basis, Debye):
    X=              0.9066    Y=             -1.3502    Z=              0.3530  Tot=              1.6642
 Quadrupole moment (field-independent basis, Debye-Ang):
   XX=            -12.9010   YY=            -12.5401   ZZ=            -13.5210
   XY=              1.9137   XZ=             -0.2712   YZ=             -0.1312

 Normal termination of Gaussian 09 at Wed Aug 26 14:07:34 2020.
