 Gaussian 09, Revision D.01,
 Gaussian 09:  ES64L-G09RevD.01 24-Apr-2013

 --------------------
 #p B2PLYPD3/Def2QZVP
 --------------------

 --------
 methanol
 --------
 Symbolic Z-matrix:
 Charge =  0 Multiplicity = 1

                         Standard orientation:
 ---------------------------------------------------------------------
 Center     Atomic      Atomic             Coordinates (Angstroms)
 Number     Number       Type             X           Y           Z
 ---------------------------------------------------------------------
      1          6           0        0.660520    0.023954    0.007104
      2          8           0       -0.742949   -0.142328   -0.002223
      3          1           0        1.028803    0.509631    0.868325
      4          1           0        1.076726    0.527991   -0.860936
      5          1           0        1.064339   -0.924908   -0.020430
      6          1           0       -1.189396    0.882185   -0.011797
 ---------------------------------------------------------------------

 SCF Done:  E(RB2PLYPD3) =  -115.529536909     A.U. after   11 cycles
 E2(B2PLYPD3) =    -0.1499190327D+00 E(B2PLYPD3) =    -0.11567945594181D+03

 The electronic state is 1-A.
 Alpha  occ. eigenvalues --  -19.73880 -10.64202  -1.13906  -0.78572  -0.56897
 Alpha  occ. eigenvalues --   -0.51821  -0.49787  -0.40701  -0.35183
 Alpha virt. eigenvalues --    0.03570   0.07741   0.12614   0.12701   0.14999
 Alpha virt. eigenvalues --    0.17270   0.18489   0.28486   0.29911   0.33581
 Alpha virt. eigenvalues --    0.34452   0.38708   0.40088   0.41643   0.43751

 Mulliken charges:
               1
     1  C    0.073334
     2  O   -0.483505
     3  H    0.047952
     4  H    0.042466
     5  H    0.066953
     6  H    0.252800
 Sum of Mulliken charges =   0.00000

 Dipole moment (field-independent basis, Debye):
    X=              0.8461    Y=              1.5924    Z=              0.0085  Tot=              1.8032
 Quadrupole moment (field-independent basis, Debye-Ang):
   XX=            -12.8650   YY=            -12.0452   ZZ=            -13.9008
   XY=             -2.4263   XZ=              0.0080   YZ=              0.0301

 Normal termination of Gaussian 09 at Wed Aug 26 13:33:01 2020.
