 Gaussian 09, Revision D.01,
 Gaussian 09:  ES64L-G09RevD.01 24-Apr-2013

 --------------------
 #p B2PLYPD3/Def2QZVP
 --------------------

 --------
 methanol
 --------
 Symbolic Z-matrix:
 Charge =  0 Multiplicity = 1

                         Standard orientation:
 ---------------------------------------------------------------------
 Center     Atomic      Atomic             Coordinates (Angstroms)
 Number     Number       Type             X           Y           Z
 ---------------------------------------------------------------------
      1          6           0       -0.684030    0.020916    0.000727
      2          8           0        0.754209   -0.182953   -0.020593
      3          1           0       -1.193910    0.558130   -0.703962
      4          1           0       -0.961336    0.496206    0.735035
      5          1           0       -0.980589   -0.910295    0.074351
      6          1           0        1.206338    1.194089    0.054956
 ---------------------------------------------------------------------

 SCF Done:  E(RB2PLYPD3) =  -115.407088392     A.U. after   12 cycles
 E2(B2PLYPD3) =    -0.1578233981D+00 E(B2PLYPD3) =    -0.11556491178970D+03

 The electronic state is 1-A.
 Alpha  occ. eigenvalues --  -19.75903 -10.61614  -1.10797  -0.81206  -0.56607
 Alpha  occ. eigenvalues --   -0.51620  -0.47673  -0.39848  -0.35374
 Alpha virt. eigenvalues --   -0.02229   0.07316   0.12087   0.13341   0.14815
 Alpha virt. eigenvalues --    0.16944   0.18359   0.21635   0.29346   0.32392
 Alpha virt. eigenvalues --    0.34291   0.38291   0.38987   0.41936   0.45719

 Mulliken charges:
               1
     1  C    0.089210
     2  O   -0.475436
     3  H    0.042984
     4  H    0.055830
     5  H    0.066659
     6  H    0.220753
 Sum of Mulliken charges =   0.00000

 Dipole moment (field-independent basis, Debye):
    X=             -1.2455    Y=              1.7676    Z=              0.2227  Tot=              2.1738
 Quadrupole moment (field-independent basis, Debye-Ang):
   XX=            -13.1490   YY=            -11.0362   ZZ=            -14.2662
   XY=              2.1291   XZ=              0.1028   YZ=              0.0880

 Normal termination of Gaussian 09 at Wed Aug 26 22:31:05 2020.
