 Gaussian 09, Revision D.01,
 Gaussian 09:  ES64L-G09RevD.01 24-Apr-2013

 --------------------
 #p B2PLYPD3/Def2QZVP
 --------------------

 --------
 methanol
 --------
 Symbolic Z-matrix:
 Charge =  0 Multiplicity = 1

                         Standard orientation:
 ---------------------------------------------------------------------
 Center     Atomic      Atomic             Coordinates (Angstroms)
 Number     Number       Type             X           Y           Z
 ---------------------------------------------------------------------
      1          6           0        0.638592   -0.021114    0.013708
      2          8           0       -0.742910    0.085054   -0.016848
      3          1           0        0.918760   -0.997285   -0.667073
      4          1           0        1.092863   -0.164819    1.011483
      5          1           0        1.196212    1.024994   -0.421019
      6          1           0       -1.096104   -0.416638    0.129148
 ---------------------------------------------------------------------

 SCF Done:  E(RB2PLYPD3) =  -115.281524354     A.U. after   11 cycles
 E2(B2PLYPD3) =    -0.1435531778D+00 E(B2PLYPD3) =    -0.11542507753214D+03

 The electronic state is 1-A.
 Alpha  occ. eigenvalues --  -19.69501 -10.69607  -1.28268  -0.82997  -0.63211
 Alpha  occ. eigenvalues --   -0.52117  -0.50117  -0.39685  -0.36032
 Alpha virt. eigenvalues --    0.05025   0.09270   0.11340   0.11995   0.14472
 Alpha virt. eigenvalues --    0.17044   0.17746   0.28398   0.31657   0.33604
 Alpha virt. eigenvalues --    0.34134   0.36857   0.39738   0.40995   0.42786

 Mulliken charges:
               1
     1  C    0.049317
     2  O   -0.170252
     3  H    0.032258
     4  H    0.059817
     5  H    0.068072
     6  H   -0.039211
 Sum of Mulliken charges =   0.00000

 Dipole moment (field-independent basis, Debye):
    X=              0.7500    Y=             -1.0880    Z=              0.4509  Tot=              1.3963
 Quadrupole moment (field-independent basis, Debye-Ang):
   XX=            -12.9102   YY=            -12.8031   ZZ=            -13.6606
   XY=              1.9158   XZ=             -0.2448   YZ=             -0.2073

 Normal termination of Gaussian 09 at Wed Aug 26 22:42:53 2020.
