 Gaussian 09, Revision D.01,
 Gaussian 09:  ES64L-G09RevD.01 24-Apr-2013

 --------------------
 #p B2PLYPD3/Def2QZVP
 --------------------

 --------
 methanol
 --------
 Symbolic Z-matrix:
 Charge =  0 Multiplicity = 1

                         Standard orientation:
 ---------------------------------------------------------------------
 Center     Atomic      Atomic             Coordinates (Angstroms)
 Number     Number       Type             X           Y           Z
 ---------------------------------------------------------------------
      1          6           0       -0.662864   -0.029842    0.021494
      2          8           0        0.744292    0.095508   -0.025829
      3          1           0       -1.012218   -0.311053    0.940698
      4          1           0       -1.124644   -0.821364   -0.738383
      5          1           0       -1.114433    1.098328   -0.217651
      6          1           0        1.274142   -0.550923    0.093004
 ---------------------------------------------------------------------

 SCF Done:  E(RB2PLYPD3) =  -115.513597387     A.U. after   11 cycles
 E2(B2PLYPD3) =    -0.1459951344D+00 E(B2PLYPD3) =    -0.11565959252099D+03

 The electronic state is 1-A.
 Alpha  occ. eigenvalues --  -19.71334 -10.67923  -1.18501  -0.80011  -0.61398
 Alpha  occ. eigenvalues --   -0.51104  -0.48843  -0.39150  -0.35624
 Alpha virt. eigenvalues --    0.05280   0.08199   0.11473   0.12541   0.15062
 Alpha virt. eigenvalues --    0.16870   0.18058   0.29121   0.32840   0.33176
 Alpha virt. eigenvalues --    0.34691   0.37440   0.39089   0.40641   0.43534

 Mulliken charges:
               1
     1  C    0.061610
     2  O   -0.399227
     3  H    0.067842
     4  H    0.040282
     5  H    0.065022
     6  H    0.164472
 Sum of Mulliken charges =   0.00000

 Dipole moment (field-independent basis, Debye):
    X=             -0.5733    Y=             -1.3283    Z=              0.4143  Tot=              1.5049
 Quadrupole moment (field-independent basis, Debye-Ang):
   XX=            -12.2623   YY=            -12.7489   ZZ=            -13.9070
   XY=             -1.9932   XZ=              0.2303   YZ=             -0.1949

 Normal termination of Gaussian 09 at Wed Aug 26 23:18:43 2020.
