 Gaussian 09, Revision D.01,
 Gaussian 09:  ES64L-G09RevD.01 24-Apr-2013

 --------------------
 #p B2PLYPD3/Def2QZVP
 --------------------

 --------
 methanol
 --------
 Symbolic Z-matrix:
 Charge =  0 Multiplicity = 1

                         Standard orientation:
 ---------------------------------------------------------------------
 Center     Atomic      Atomic             Coordinates (Angstroms)
 Number     Number       Type             X           Y           Z
 ---------------------------------------------------------------------
      1          6           0       -0.639262   -0.048103    0.004966
      2          8           0        0.754123    0.105330   -0.033979
      3          1           0       -0.968790   -0.304231    0.958836
      4          1           0       -1.086321   -0.756995   -0.753919
      5          1           0       -1.183948    1.107731   -0.132679
      6          1           0        1.041643   -0.600526    0.169797
 ---------------------------------------------------------------------

 SCF Done:  E(RB2PLYPD3) =  -115.491050752     A.U. after   10 cycles
 E2(B2PLYPD3) =    -0.1453568644D+00 E(B2PLYPD3) =    -0.11563640761677D+03

 The electronic state is 1-A.
 Alpha  occ. eigenvalues --  -19.71615 -10.67621  -1.22268  -0.79442  -0.61968
 Alpha  occ. eigenvalues --   -0.52894  -0.49318  -0.39907  -0.36574
 Alpha virt. eigenvalues --    0.05104   0.08737   0.11321   0.12260   0.14758
 Alpha virt. eigenvalues --    0.17398   0.18367   0.28595   0.32709   0.33323
 Alpha virt. eigenvalues --    0.33879   0.38566   0.39686   0.41702   0.43813

 Mulliken charges:
               1
     1  C    0.051344
     2  O   -0.319942
     3  H    0.061387
     4  H    0.055902
     5  H    0.042114
     6  H    0.109193
 Sum of Mulliken charges =   0.00000

 Dipole moment (field-independent basis, Debye):
    X=             -0.8654    Y=             -1.4735    Z=              0.5106  Tot=              1.7835
 Quadrupole moment (field-independent basis, Debye-Ang):
   XX=            -13.3010   YY=            -12.6000   ZZ=            -13.6625
   XY=             -1.7266   XZ=              0.4455   YZ=             -0.1459

 Normal termination of Gaussian 09 at Wed Aug 26 19:00:28 2020.
