 Gaussian 09, Revision D.01,
 Gaussian 09:  ES64L-G09RevD.01 24-Apr-2013

 --------------------
 #p B2PLYPD3/Def2QZVP
 --------------------

 --------
 methanol
 --------
 Symbolic Z-matrix:
 Charge =  0 Multiplicity = 1

                         Standard orientation:
 ---------------------------------------------------------------------
 Center     Atomic      Atomic             Coordinates (Angstroms)
 Number     Number       Type             X           Y           Z
 ---------------------------------------------------------------------
      1          6           0       -0.654590   -0.032177   -0.001537
      2          8           0        0.746685    0.117131   -0.003663
      3          1           0       -1.000849   -0.515827    0.922064
      4          1           0       -1.044398   -0.567452   -0.876433
      5          1           0       -1.140711    1.017993   -0.013788
      6          1           0        1.140020   -0.678702    0.006683
 ---------------------------------------------------------------------

 SCF Done:  E(RB2PLYPD3) =  -115.545363342     A.U. after   10 cycles
 E2(B2PLYPD3) =    -0.1461686021D+00 E(B2PLYPD3) =    -0.11569153194417D+03

 The electronic state is 1-A.
 Alpha  occ. eigenvalues --  -19.72050 -10.66536  -1.18205  -0.78887  -0.59992
 Alpha  occ. eigenvalues --   -0.52124  -0.49668  -0.40433  -0.35717
 Alpha virt. eigenvalues --    0.05240   0.08406   0.12236   0.12325   0.14720
 Alpha virt. eigenvalues --    0.17422   0.18157   0.28981   0.33266   0.33821
 Alpha virt. eigenvalues --    0.36258   0.38014   0.39945   0.40828   0.43454

 Mulliken charges:
               1
     1  C    0.063256
     2  O   -0.420907
     3  H    0.050907
     4  H    0.051571
     5  H    0.062647
     6  H    0.192526
 Sum of Mulliken charges =   0.00000

 Dipole moment (field-independent basis, Debye):
    X=             -0.8057    Y=             -1.4758    Z=              0.0202  Tot=              1.6815
 Quadrupole moment (field-independent basis, Debye-Ang):
   XX=            -12.9239   YY=            -12.4926   ZZ=            -13.7380
   XY=             -2.1794   XZ=              0.0676   YZ=              0.0070

 Normal termination of Gaussian 09 at Thu Aug 27 00:11:27 2020.
