 Gaussian 09, Revision D.01,
 Gaussian 09:  ES64L-G09RevD.01 24-Apr-2013

 --------------------
 #p B2PLYPD3/Def2QZVP
 --------------------

 --------
 methanol
 --------
 Symbolic Z-matrix:
 Charge =  0 Multiplicity = 1

                         Standard orientation:
 ---------------------------------------------------------------------
 Center     Atomic      Atomic             Coordinates (Angstroms)
 Number     Number       Type             X           Y           Z
 ---------------------------------------------------------------------
      1          6           0        0.693156   -0.030378   -0.007959
      2          8           0       -0.781734   -0.020363   -0.052677
      3          1           0        1.091285   -0.548548    0.990911
      4          1           0        1.072292    1.256189   -0.000309
      5          1           0        1.065450   -0.527590   -0.895059
      6          1           0       -1.134095    0.165121    0.373629
 ---------------------------------------------------------------------

 SCF Done:  E(RB2PLYPD3) =  -115.136699408     A.U. after   11 cycles
 E2(B2PLYPD3) =    -0.1443743250D+00 E(B2PLYPD3) =    -0.11528107373324D+03

 The electronic state is 1-A.
 Alpha  occ. eigenvalues --  -19.68377 -10.71097  -1.28025  -0.83041  -0.61643
 Alpha  occ. eigenvalues --   -0.51699  -0.48849  -0.40775  -0.35696
 Alpha virt. eigenvalues --    0.04774   0.09251   0.10413   0.11969   0.13804
 Alpha virt. eigenvalues --    0.16805   0.17538   0.28150   0.29175   0.31175
 Alpha virt. eigenvalues --    0.33844   0.36293   0.38688   0.41471   0.42341

 Mulliken charges:
               1
     1  C    0.054592
     2  O   -0.166977
     3  H    0.060006
     4  H    0.036997
     5  H    0.113031
     6  H   -0.097649
 Sum of Mulliken charges =   0.00000

 Dipole moment (field-independent basis, Debye):
    X=              1.1229    Y=              0.1794    Z=              0.9216  Tot=              1.4637
 Quadrupole moment (field-independent basis, Debye-Ang):
   XX=            -12.9318   YY=            -13.4349   ZZ=            -12.7456
   XY=             -1.0526   XZ=             -1.6662   YZ=              0.3361

 Normal termination of Gaussian 09 at Wed Aug 26 19:14:19 2020.
