 Gaussian 09, Revision D.01,
 Gaussian 09:  ES64L-G09RevD.01 24-Apr-2013

 --------------------
 #p B2PLYPD3/Def2QZVP
 --------------------

 --------
 methanol
 --------
 Symbolic Z-matrix:
 Charge =  0 Multiplicity = 1

                         Standard orientation:
 ---------------------------------------------------------------------
 Center     Atomic      Atomic             Coordinates (Angstroms)
 Number     Number       Type             X           Y           Z
 ---------------------------------------------------------------------
      1          6           0       -0.666281   -0.020248    0.004656
      2          8           0        0.744755    0.100457   -0.013324
      3          1           0       -0.986183   -0.459891    0.983131
      4          1           0       -1.069298   -0.629329   -0.884916
      5          1           0       -1.068809    1.021041   -0.064529
      6          1           0        1.163941   -0.613992    0.044969
 ---------------------------------------------------------------------

 SCF Done:  E(RB2PLYPD3) =  -115.529357800     A.U. after   10 cycles
 E2(B2PLYPD3) =    -0.1453592871D+00 E(B2PLYPD3) =    -0.11567471708714D+03

 The electronic state is 1-A.
 Alpha  occ. eigenvalues --  -19.71096 -10.67178  -1.19182  -0.79708  -0.60144
 Alpha  occ. eigenvalues --   -0.51575  -0.50187  -0.40397  -0.35581
 Alpha virt. eigenvalues --    0.05395   0.08668   0.12057   0.12315   0.14587
 Alpha virt. eigenvalues --    0.16977   0.18055   0.28966   0.32983   0.33400
 Alpha virt. eigenvalues --    0.37121   0.39267   0.39467   0.39935   0.42858

 Mulliken charges:
               1
     1  C    0.060923
     2  O   -0.386984
     3  H    0.051938
     4  H    0.048086
     5  H    0.075984
     6  H    0.150053
 Sum of Mulliken charges =   0.00000

 Dipole moment (field-independent basis, Debye):
    X=             -0.7858    Y=             -1.3178    Z=              0.1417  Tot=              1.5408
 Quadrupole moment (field-independent basis, Debye-Ang):
   XX=            -12.8777   YY=            -12.5569   ZZ=            -13.6432
   XY=             -2.1551   XZ=              0.2081   YZ=             -0.0712

 Normal termination of Gaussian 09 at Wed Aug 26 20:39:31 2020.
