 Gaussian 09, Revision D.01,
 Gaussian 09:  ES64L-G09RevD.01 24-Apr-2013

 --------------------
 #p B2PLYPD3/Def2QZVP
 --------------------

 --------
 methanol
 --------
 Symbolic Z-matrix:
 Charge =  0 Multiplicity = 1

                         Standard orientation:
 ---------------------------------------------------------------------
 Center     Atomic      Atomic             Coordinates (Angstroms)
 Number     Number       Type             X           Y           Z
 ---------------------------------------------------------------------
      1          6           0       -0.661991    0.026961   -0.007854
      2          8           0        0.726817   -0.168120    0.000830
      3          1           0       -1.046116    0.493720   -0.773557
      4          1           0       -0.894272    0.600173    0.808543
      5          1           0       -1.087231   -0.894269    0.056643
      6          1           0        1.185029    0.983569   -0.051144
 ---------------------------------------------------------------------

 SCF Done:  E(RB2PLYPD3) =  -115.487009797     A.U. after   11 cycles
 E2(B2PLYPD3) =    -0.1517113670D+00 E(B2PLYPD3) =    -0.11563872116401D+03

 The electronic state is 1-A.
 Alpha  occ. eigenvalues --  -19.74209 -10.62183  -1.13129  -0.79366  -0.56651
 Alpha  occ. eigenvalues --   -0.53102  -0.49351  -0.40520  -0.34781
 Alpha virt. eigenvalues --    0.01667   0.07804   0.12613   0.12936   0.14975
 Alpha virt. eigenvalues --    0.17550   0.18039   0.25392   0.29702   0.33026
 Alpha virt. eigenvalues --    0.35130   0.39286   0.39784   0.43057   0.45243

 Mulliken charges:
               1
     1  C    0.099820
     2  O   -0.487280
     3  H    0.038580
     4  H    0.037949
     5  H    0.062606
     6  H    0.248325
 Sum of Mulliken charges =   0.00000

 Dipole moment (field-independent basis, Debye):
    X=             -0.9402    Y=              1.7250    Z=             -0.1053  Tot=              1.9674
 Quadrupole moment (field-independent basis, Debye-Ang):
   XX=            -13.0163   YY=            -11.5948   ZZ=            -13.9347
   XY=              2.4436   XZ=              0.0641   YZ=             -0.1004

 Normal termination of Gaussian 09 at Wed Aug 26 13:48:35 2020.
