 Gaussian 09, Revision D.01,
 Gaussian 09:  ES64L-G09RevD.01 24-Apr-2013

 --------------------
 #p B2PLYPD3/Def2QZVP
 --------------------

 --------
 methanol
 --------
 Symbolic Z-matrix:
 Charge =  0 Multiplicity = 1

                         Standard orientation:
 ---------------------------------------------------------------------
 Center     Atomic      Atomic             Coordinates (Angstroms)
 Number     Number       Type             X           Y           Z
 ---------------------------------------------------------------------
      1          6           0       -0.654411    0.039795   -0.002533
      2          8           0        0.734877   -0.176808   -0.011887
      3          1           0       -1.044713    0.574641   -0.711933
      4          1           0       -0.854332    0.444590    0.832401
      5          1           0       -1.144078   -0.897337   -0.017190
      6          1           0        1.090576    1.053798    0.007017
 ---------------------------------------------------------------------

 SCF Done:  E(RB2PLYPD3) =  -115.463589706     A.U. after   11 cycles
 E2(B2PLYPD3) =    -0.1528218158D+00 E(B2PLYPD3) =    -0.11561641152149D+03

 The electronic state is 1-A.
 Alpha  occ. eigenvalues --  -19.74683 -10.61717  -1.13073  -0.79895  -0.55680
 Alpha  occ. eigenvalues --   -0.54633  -0.48910  -0.40152  -0.35272
 Alpha virt. eigenvalues --    0.00877   0.07723   0.12507   0.12906   0.14675
 Alpha virt. eigenvalues --    0.17928   0.18296   0.24266   0.29563   0.33012
 Alpha virt. eigenvalues --    0.35041   0.38868   0.40298   0.43170   0.44886

 Mulliken charges:
               1
     1  C    0.103546
     2  O   -0.480472
     3  H    0.035732
     4  H    0.048607
     5  H    0.049246
     6  H    0.243341
 Sum of Mulliken charges =   0.00000

 Dipole moment (field-independent basis, Debye):
    X=             -1.1181    Y=              1.8049    Z=              0.0614  Tot=              2.1240
 Quadrupole moment (field-independent basis, Debye-Ang):
   XX=            -13.4125   YY=            -11.4544   ZZ=            -13.8484
   XY=              2.2343   XZ=              0.1564   YZ=             -0.0080

 Normal termination of Gaussian 09 at Wed Aug 26 22:49:01 2020.
