 Gaussian 09, Revision D.01,
 Gaussian 09:  ES64L-G09RevD.01 24-Apr-2013

 --------------------
 #p B2PLYPD3/Def2QZVP
 --------------------

 --------
 methanol
 --------
 Symbolic Z-matrix:
 Charge =  0 Multiplicity = 1

                         Standard orientation:
 ---------------------------------------------------------------------
 Center     Atomic      Atomic             Coordinates (Angstroms)
 Number     Number       Type             X           Y           Z
 ---------------------------------------------------------------------
      1          6           0       -0.675167   -0.036279    0.001386
      2          8           0        0.739488    0.105805   -0.009033
      3          1           0       -1.023680   -0.367920    0.967454
      4          1           0       -0.994483   -0.700292   -0.812845
      5          1           0       -1.044547    1.057966   -0.155928
      6          1           0        1.197806   -0.618521    0.065268
 ---------------------------------------------------------------------

 SCF Done:  E(RB2PLYPD3) =  -115.537226317     A.U. after   11 cycles
 E2(B2PLYPD3) =    -0.1456989447D+00 E(B2PLYPD3) =    -0.11568292526142D+03

 The electronic state is 1-A.
 Alpha  occ. eigenvalues --  -19.71059 -10.66623  -1.17892  -0.79575  -0.59970
 Alpha  occ. eigenvalues --   -0.52455  -0.49079  -0.40014  -0.35649
 Alpha virt. eigenvalues --    0.05359   0.08628   0.11946   0.12357   0.14778
 Alpha virt. eigenvalues --    0.16755   0.18027   0.29115   0.33112   0.33375
 Alpha virt. eigenvalues --    0.36897   0.38636   0.39739   0.41356   0.42798

 Mulliken charges:
               1
     1  C    0.065276
     2  O   -0.419270
     3  H    0.058896
     4  H    0.054977
     5  H    0.068625
     6  H    0.171495
 Sum of Mulliken charges =   0.00000

 Dipole moment (field-independent basis, Debye):
    X=             -0.7642    Y=             -1.4172    Z=              0.1628  Tot=              1.6183
 Quadrupole moment (field-independent basis, Debye-Ang):
   XX=            -12.7931   YY=            -12.4787   ZZ=            -13.6271
   XY=             -2.0738   XZ=              0.1611   YZ=             -0.0463

 Normal termination of Gaussian 09 at Wed Aug 26 11:54:39 2020.
