 Gaussian 09, Revision D.01,
 Gaussian 09:  ES64L-G09RevD.01 24-Apr-2013

 --------------------
 #p B2PLYPD3/Def2QZVP
 --------------------

 --------
 methanol
 --------
 Symbolic Z-matrix:
 Charge =  0 Multiplicity = 1

                         Standard orientation:
 ---------------------------------------------------------------------
 Center     Atomic      Atomic             Coordinates (Angstroms)
 Number     Number       Type             X           Y           Z
 ---------------------------------------------------------------------
      1          6           0        0.653931    0.026151   -0.000661
      2          8           0       -0.711799   -0.200739   -0.001815
      3          1           0        0.952340    0.401643    0.821438
      4          1           0        0.934468    0.640273   -0.692329
      5          1           0        1.054382   -0.786622   -0.122503
      6          1           0       -1.170384    1.193716    0.011879
 ---------------------------------------------------------------------

 SCF Done:  E(RB2PLYPD3) =  -115.395556535     A.U. after   12 cycles
 E2(B2PLYPD3) =    -0.1561181610D+00 E(B2PLYPD3) =    -0.11555167469613D+03

 The electronic state is 1-A.
 Alpha  occ. eigenvalues --  -19.75233 -10.59843  -1.13013  -0.80844  -0.56906
 Alpha  occ. eigenvalues --   -0.54188  -0.49419  -0.39069  -0.34934
 Alpha virt. eigenvalues --   -0.02791   0.07711   0.12741   0.13108   0.14767
 Alpha virt. eigenvalues --    0.17665   0.18017   0.21697   0.29582   0.33170
 Alpha virt. eigenvalues --    0.35772   0.39028   0.40821   0.44362   0.45678

 Mulliken charges:
               1
     1  C    0.112916
     2  O   -0.468376
     3  H    0.038245
     4  H    0.029737
     5  H    0.067294
     6  H    0.220185
 Sum of Mulliken charges =   0.00000

 Dipole moment (field-independent basis, Debye):
    X=              1.1455    Y=              1.7424    Z=              0.0092  Tot=              2.0852
 Quadrupole moment (field-independent basis, Debye-Ang):
   XX=            -13.3022   YY=            -11.0938   ZZ=            -13.8737
   XY=             -2.3861   XZ=             -0.0275   YZ=              0.0210

 Normal termination of Gaussian 09 at Wed Aug 26 21:20:53 2020.
