 Gaussian 09, Revision D.01,
 Gaussian 09:  ES64L-G09RevD.01 24-Apr-2013

 --------------------
 #p B2PLYPD3/Def2QZVP
 --------------------

 --------
 methanol
 --------
 Symbolic Z-matrix:
 Charge =  0 Multiplicity = 1

                         Standard orientation:
 ---------------------------------------------------------------------
 Center     Atomic      Atomic             Coordinates (Angstroms)
 Number     Number       Type             X           Y           Z
 ---------------------------------------------------------------------
      1          6           0       -0.664026   -0.020320   -0.018746
      2          8           0        0.749971    0.115491   -0.003331
      3          1           0       -1.051034   -0.578107    0.879975
      4          1           0       -0.936758   -0.637017   -0.848253
      5          1           0       -1.211175    1.030301    0.021513
      6          1           0        1.183354   -0.617183    0.085883
 ---------------------------------------------------------------------

 SCF Done:  E(RB2PLYPD3) =  -115.531548654     A.U. after   11 cycles
 E2(B2PLYPD3) =    -0.1458566292D+00 E(B2PLYPD3) =    -0.11567740528341D+03

 The electronic state is 1-A.
 Alpha  occ. eigenvalues --  -19.71427 -10.67114  -1.18359  -0.79395  -0.60521
 Alpha  occ. eigenvalues --   -0.51866  -0.49263  -0.40381  -0.35366
 Alpha virt. eigenvalues --    0.05278   0.08366   0.11962   0.12443   0.14781
 Alpha virt. eigenvalues --    0.17275   0.17875   0.29382   0.32548   0.33289
 Alpha virt. eigenvalues --    0.35577   0.38409   0.39118   0.41003   0.43273

 Mulliken charges:
               1
     1  C    0.076334
     2  O   -0.412942
     3  H    0.037210
     4  H    0.054427
     5  H    0.072323
     6  H    0.172649
 Sum of Mulliken charges =   0.00000

 Dipole moment (field-independent basis, Debye):
    X=             -0.8073    Y=             -1.4436    Z=              0.1360  Tot=              1.6596
 Quadrupole moment (field-independent basis, Debye-Ang):
   XX=            -12.6786   YY=            -12.4442   ZZ=            -13.9190
   XY=             -2.2339   XZ=              0.1608   YZ=              0.0182

 Normal termination of Gaussian 09 at Wed Aug 26 20:26:16 2020.
