 Gaussian 09, Revision D.01,
 Gaussian 09:  ES64L-G09RevD.01 24-Apr-2013

 --------------------
 #p B2PLYPD3/Def2QZVP
 --------------------

 --------
 methanol
 --------
 Symbolic Z-matrix:
 Charge =  0 Multiplicity = 1

                         Standard orientation:
 ---------------------------------------------------------------------
 Center     Atomic      Atomic             Coordinates (Angstroms)
 Number     Number       Type             X           Y           Z
 ---------------------------------------------------------------------
      1          6           0        0.657305    0.018987    0.000054
      2          8           0       -0.748118   -0.141207   -0.004553
      3          1           0        1.034506    0.509325    0.851478
      4          1           0        0.979553    0.605774   -0.837168
      5          1           0        1.154239   -0.943401   -0.027928
      6          1           0       -1.127178    0.844033    0.049713
 ---------------------------------------------------------------------

 SCF Done:  E(RB2PLYPD3) =  -115.541284323     A.U. after   11 cycles
 E2(B2PLYPD3) =    -0.1488306698D+00 E(B2PLYPD3) =    -0.11569011499232D+03

 The electronic state is 1-A.
 Alpha  occ. eigenvalues --  -19.73490 -10.64709  -1.14809  -0.78493  -0.57671
 Alpha  occ. eigenvalues --   -0.51936  -0.49812  -0.41111  -0.35156
 Alpha virt. eigenvalues --    0.04142   0.07915   0.12520   0.12612   0.14874
 Alpha virt. eigenvalues --    0.17798   0.18057   0.29206   0.31110   0.33236
 Alpha virt. eigenvalues --    0.34194   0.39230   0.39854   0.41463   0.44030

 Mulliken charges:
               1
     1  C    0.080595
     2  O   -0.476300
     3  H    0.042210
     4  H    0.041422
     5  H    0.065392
     6  H    0.246681
 Sum of Mulliken charges =   0.00000

 Dipole moment (field-independent basis, Debye):
    X=              0.9200    Y=              1.6275    Z=              0.1109  Tot=              1.8728
 Quadrupole moment (field-independent basis, Debye-Ang):
   XX=            -13.0681   YY=            -12.0095   ZZ=            -13.9419
   XY=             -2.3509   XZ=             -0.0414   YZ=              0.0627

 Normal termination of Gaussian 09 at Wed Aug 26 14:22:10 2020.
