 Gaussian 09, Revision D.01,
 Gaussian 09:  ES64L-G09RevD.01 24-Apr-2013

 --------------------
 #p B2PLYPD3/Def2QZVP
 --------------------

 --------
 methanol
 --------
 Symbolic Z-matrix:
 Charge =  0 Multiplicity = 1

                         Standard orientation:
 ---------------------------------------------------------------------
 Center     Atomic      Atomic             Coordinates (Angstroms)
 Number     Number       Type             X           Y           Z
 ---------------------------------------------------------------------
      1          6           0       -0.677380   -0.025331    0.014379
      2          8           0        0.752177    0.129821   -0.010362
      3          1           0       -1.002410   -0.468708    0.872174
      4          1           0       -1.039960   -0.589515   -0.858951
      5          1           0       -1.058485    0.980888   -0.054778
      6          1           0        1.147724   -0.809250    0.038173
 ---------------------------------------------------------------------

 SCF Done:  E(RB2PLYPD3) =  -115.544860270     A.U. after   10 cycles
 E2(B2PLYPD3) =    -0.1484097636D+00 E(B2PLYPD3) =    -0.11569327003399D+03

 The electronic state is 1-A.
 Alpha  occ. eigenvalues --  -19.72908 -10.64810  -1.14418  -0.78882  -0.57828
 Alpha  occ. eigenvalues --   -0.52191  -0.49065  -0.41262  -0.35423
 Alpha virt. eigenvalues --    0.04596   0.08078   0.12384   0.12475   0.14875
 Alpha virt. eigenvalues --    0.17169   0.18146   0.29088   0.32534   0.33387
 Alpha virt. eigenvalues --    0.33841   0.38663   0.39709   0.41688   0.44725

 Mulliken charges:
               1
     1  C    0.076930
     2  O   -0.482317
     3  H    0.054613
     4  H    0.045736
     5  H    0.068953
     6  H    0.236085
 Sum of Mulliken charges =   0.00000

 Dipole moment (field-independent basis, Debye):
    X=             -0.9681    Y=             -1.5702    Z=              0.1443  Tot=              1.8502
 Quadrupole moment (field-independent basis, Debye-Ang):
   XX=            -13.0713   YY=            -12.0621   ZZ=            -13.7615
   XY=             -2.2563   XZ=              0.0625   YZ=             -0.1222

 Normal termination of Gaussian 09 at Wed Aug 26 10:38:29 2020.
