 Gaussian 09, Revision D.01,
 Gaussian 09:  ES64L-G09RevD.01 24-Apr-2013

 --------------------
 #p B2PLYPD3/Def2QZVP
 --------------------

 --------
 methanol
 --------
 Symbolic Z-matrix:
 Charge =  0 Multiplicity = 1

                         Standard orientation:
 ---------------------------------------------------------------------
 Center     Atomic      Atomic             Coordinates (Angstroms)
 Number     Number       Type             X           Y           Z
 ---------------------------------------------------------------------
      1          6           0        0.665310    0.039261   -0.040022
      2          8           0       -0.724400   -0.205270    0.024493
      3          1           0        0.981204    0.564753    0.847289
      4          1           0        0.961094    0.422497   -0.697490
      5          1           0        1.094753   -0.768379    0.004467
      6          1           0       -1.233716    1.187725   -0.110076
 ---------------------------------------------------------------------

 SCF Done:  E(RB2PLYPD3) =  -115.337946519     A.U. after   13 cycles
 E2(B2PLYPD3) =    -0.1572681092D+00 E(B2PLYPD3) =    -0.11549521462770D+03

 The electronic state is 1-A.
 Alpha  occ. eigenvalues --  -19.75651 -10.59980  -1.11931  -0.82727  -0.57331
 Alpha  occ. eigenvalues --   -0.52810  -0.49144  -0.39082  -0.35157
 Alpha virt. eigenvalues --   -0.03105   0.07478   0.12715   0.12989   0.14654
 Alpha virt. eigenvalues --    0.17756   0.18591   0.21382   0.29552   0.32982
 Alpha virt. eigenvalues --    0.34827   0.38365   0.39824   0.42636   0.47576

 Mulliken charges:
               1
     1  C    0.008150
     2  O   -0.467126
     3  H    0.049426
     4  H    0.126825
     5  H    0.061432
     6  H    0.221292
 Sum of Mulliken charges =   0.00000

 Dipole moment (field-independent basis, Debye):
    X=              1.1339    Y=              1.6889    Z=             -0.3256  Tot=              2.0601
 Quadrupole moment (field-independent basis, Debye-Ang):
   XX=            -12.9756   YY=            -11.3381   ZZ=            -13.7931
   XY=             -2.5603   XZ=             -0.0002   YZ=             -0.2698

 Normal termination of Gaussian 09 at Wed Aug 26 22:58:03 2020.
