 Gaussian 09, Revision D.01,
 Gaussian 09:  ES64L-G09RevD.01 24-Apr-2013

 --------------------
 #p B2PLYPD3/Def2QZVP
 --------------------

 --------
 methanol
 --------
 Symbolic Z-matrix:
 Charge =  0 Multiplicity = 1

                         Standard orientation:
 ---------------------------------------------------------------------
 Center     Atomic      Atomic             Coordinates (Angstroms)
 Number     Number       Type             X           Y           Z
 ---------------------------------------------------------------------
      1          6           0       -0.664834   -0.025922    0.010160
      2          8           0        0.741565    0.130563   -0.009480
      3          1           0       -0.964267   -0.472390    0.898436
      4          1           0       -1.027654   -0.592155   -0.854643
      5          1           0       -1.084946    0.965154   -0.053009
      6          1           0        1.133351   -0.789581    0.024096
 ---------------------------------------------------------------------

 SCF Done:  E(RB2PLYPD3) =  -115.548876685     A.U. after   10 cycles
 E2(B2PLYPD3) =    -0.1477002789D+00 E(B2PLYPD3) =    -0.11569657696388D+03

 The electronic state is 1-A.
 Alpha  occ. eigenvalues --  -19.72713 -10.64782  -1.15509  -0.78721  -0.58220
 Alpha  occ. eigenvalues --   -0.52579  -0.49712  -0.40957  -0.35323
 Alpha virt. eigenvalues --    0.04708   0.08229   0.12416   0.12531   0.14813
 Alpha virt. eigenvalues --    0.17360   0.18091   0.29144   0.32932   0.33524
 Alpha virt. eigenvalues --    0.34371   0.38979   0.40051   0.41778   0.44452

 Mulliken charges:
               1
     1  C    0.075034
     2  O   -0.470930
     3  H    0.051323
     4  H    0.043732
     5  H    0.067196
     6  H    0.233645
 Sum of Mulliken charges =   0.00000

 Dipole moment (field-independent basis, Debye):
    X=             -0.8953    Y=             -1.5505    Z=              0.1031  Tot=              1.7934
 Quadrupole moment (field-independent basis, Debye-Ang):
   XX=            -13.1028   YY=            -12.1398   ZZ=            -13.7161
   XY=             -2.2934   XZ=              0.0839   YZ=             -0.0809

 Normal termination of Gaussian 09 at Thu Aug 27 00:10:17 2020.
