 Gaussian 09, Revision D.01,
 Gaussian 09:  ES64L-G09RevD.01 24-Apr-2013

 --------------------
 #p B2PLYPD3/Def2QZVP
 --------------------

 --------
 methanol
 --------
 Symbolic Z-matrix:
 Charge =  0 Multiplicity = 1

                         Standard orientation:
 ---------------------------------------------------------------------
 Center     Atomic      Atomic             Coordinates (Angstroms)
 Number     Number       Type             X           Y           Z
 ---------------------------------------------------------------------
      1          6           0       -0.689154   -0.009687    0.010577
      2          8           0        0.745302   -0.172371   -0.008049
      3          1           0       -1.034002    0.560784   -0.805543
      4          1           0       -0.964222    0.505029    0.806403
      5          1           0       -0.954679   -0.786826   -0.017435
      6          1           0        1.125409    1.158103    0.017507
 ---------------------------------------------------------------------

 SCF Done:  E(RB2PLYPD3) =  -115.384288093     A.U. after   11 cycles
 E2(B2PLYPD3) =    -0.1556691438D+00 E(B2PLYPD3) =    -0.11553995723718D+03

 The electronic state is 1-A.
 Alpha  occ. eigenvalues --  -19.74953 -10.60910  -1.11275  -0.81376  -0.58488
 Alpha  occ. eigenvalues --   -0.51940  -0.48134  -0.40692  -0.34836
 Alpha virt. eigenvalues --   -0.00920   0.07615   0.12739   0.12836   0.14480
 Alpha virt. eigenvalues --    0.17316   0.17961   0.22929   0.29529   0.33122
 Alpha virt. eigenvalues --    0.33414   0.37537   0.41451   0.42064   0.45055

 Mulliken charges:
               1
     1  C    0.006254
     2  O   -0.494941
     3  H    0.043659
     4  H    0.047523
     5  H    0.165183
     6  H    0.232323
 Sum of Mulliken charges =   0.00000

 Dipole moment (field-independent basis, Debye):
    X=             -1.2703    Y=              1.6885    Z=              0.0842  Tot=              2.1147
 Quadrupole moment (field-independent basis, Debye-Ang):
   XX=            -13.4682   YY=            -11.0204   ZZ=            -13.9066
   XY=              2.2974   XZ=              0.0280   YZ=              0.0814

 Normal termination of Gaussian 09 at Wed Aug 26 23:35:02 2020.
