 Gaussian 09, Revision D.01,
 Gaussian 09:  ES64L-G09RevD.01 24-Apr-2013

 --------------------
 #p B2PLYPD3/Def2QZVP
 --------------------

 --------
 methanol
 --------
 Symbolic Z-matrix:
 Charge =  0 Multiplicity = 1

                         Standard orientation:
 ---------------------------------------------------------------------
 Center     Atomic      Atomic             Coordinates (Angstroms)
 Number     Number       Type             X           Y           Z
 ---------------------------------------------------------------------
      1          6           0        0.679667    0.044373    0.001044
      2          8           0       -0.720004   -0.195892    0.007795
      3          1           0        0.948725    0.496644    0.841466
      4          1           0        1.065723    0.531421   -0.730968
      5          1           0        1.018647   -0.834790   -0.093122
      6          1           0       -1.351066    1.107621   -0.086001
 ---------------------------------------------------------------------

 SCF Done:  E(RB2PLYPD3) =  -115.416398251     A.U. after   12 cycles
 E2(B2PLYPD3) =    -0.1564195653D+00 E(B2PLYPD3) =    -0.11557281781632D+03

 The electronic state is 1-A.
 Alpha  occ. eigenvalues --  -19.75203 -10.61026  -1.11544  -0.80508  -0.55859
 Alpha  occ. eigenvalues --   -0.53772  -0.48244  -0.38895  -0.35188
 Alpha virt. eigenvalues --   -0.02055   0.07520   0.12672   0.12997   0.14838
 Alpha virt. eigenvalues --    0.16947   0.18425   0.21874   0.29469   0.33179
 Alpha virt. eigenvalues --    0.34949   0.38588   0.39510   0.43986   0.45501

 Mulliken charges:
               1
     1  C    0.094380
     2  O   -0.482157
     3  H    0.050930
     4  H    0.042344
     5  H    0.071040
     6  H    0.223462
 Sum of Mulliken charges =   0.00000

 Dipole moment (field-independent basis, Debye):
    X=              1.0113    Y=              1.6851    Z=             -0.1723  Tot=              1.9728
 Quadrupole moment (field-independent basis, Debye-Ang):
   XX=            -12.5893   YY=            -11.5704   ZZ=            -13.8989
   XY=             -2.5460   XZ=             -0.0057   YZ=             -0.0503

 Normal termination of Gaussian 09 at Wed Aug 26 23:21:06 2020.
