 Gaussian 09, Revision D.01,
 Gaussian 09:  ES64L-G09RevD.01 24-Apr-2013

 --------------------
 #p B2PLYPD3/Def2QZVP
 --------------------

 --------
 methanol
 --------
 Symbolic Z-matrix:
 Charge =  0 Multiplicity = 1

                         Standard orientation:
 ---------------------------------------------------------------------
 Center     Atomic      Atomic             Coordinates (Angstroms)
 Number     Number       Type             X           Y           Z
 ---------------------------------------------------------------------
      1          6           0        0.642961    0.008312    0.001740
      2          8           0       -0.755110   -0.176401   -0.022020
      3          1           0        1.029416    0.310449    0.867439
      4          1           0        1.034407    0.650848   -0.784302
      5          1           0        1.171674   -0.750658   -0.060471
      6          1           0       -1.052386    1.150701    0.143053
 ---------------------------------------------------------------------

 SCF Done:  E(RB2PLYPD3) =  -115.433164528     A.U. after   12 cycles
 E2(B2PLYPD3) =    -0.1554009227D+00 E(B2PLYPD3) =    -0.11558856545112D+03

 The electronic state is 1-A.
 Alpha  occ. eigenvalues --  -19.75747 -10.62196  -1.12538  -0.80859  -0.54015
 Alpha  occ. eigenvalues --   -0.52536  -0.50371  -0.39368  -0.35357
 Alpha virt. eigenvalues --   -0.01112   0.07332   0.12435   0.13051   0.14410
 Alpha virt. eigenvalues --    0.18379   0.19127   0.22880   0.29379   0.33299
 Alpha virt. eigenvalues --    0.34193   0.38009   0.40267   0.42429   0.43817

 Mulliken charges:
               1
     1  C    0.088331
     2  O   -0.473015
     3  H    0.039326
     4  H    0.033438
     5  H    0.059707
     6  H    0.252213
 Sum of Mulliken charges =   0.00000

 Dipole moment (field-independent basis, Debye):
    X=              1.1964    Y=              1.6622    Z=              0.3051  Tot=              2.0705
 Quadrupole moment (field-independent basis, Debye-Ang):
   XX=            -13.4322   YY=            -11.4780   ZZ=            -13.9413
   XY=             -2.4318   XZ=             -0.1403   YZ=              0.1714

 Normal termination of Gaussian 09 at Wed Aug 26 21:24:31 2020.
