 Gaussian 09, Revision D.01,
 Gaussian 09:  ES64L-G09RevD.01 24-Apr-2013

 --------------------
 #p B2PLYPD3/Def2QZVP
 --------------------

 --------
 methanol
 --------
 Symbolic Z-matrix:
 Charge =  0 Multiplicity = 1

                         Standard orientation:
 ---------------------------------------------------------------------
 Center     Atomic      Atomic             Coordinates (Angstroms)
 Number     Number       Type             X           Y           Z
 ---------------------------------------------------------------------
      1          6           0       -0.657524   -0.021373    0.001106
      2          8           0        0.750656    0.097468   -0.009390
      3          1           0       -1.041426   -0.468068    0.952603
      4          1           0       -1.012056   -0.631001   -0.893496
      5          1           0       -1.091583    1.048126   -0.063576
      6          1           0        1.084958   -0.600564    0.072955
 ---------------------------------------------------------------------

 SCF Done:  E(RB2PLYPD3) =  -115.502333653     A.U. after   10 cycles
 E2(B2PLYPD3) =    -0.1447211022D+00 E(B2PLYPD3) =    -0.11564705475516D+03

 The electronic state is 1-A.
 Alpha  occ. eigenvalues --  -19.70852 -10.67445  -1.21514  -0.79914  -0.61096
 Alpha  occ. eigenvalues --   -0.51849  -0.49944  -0.41014  -0.35933
 Alpha virt. eigenvalues --    0.05386   0.08933   0.12038   0.12072   0.14660
 Alpha virt. eigenvalues --    0.17168   0.17929   0.28816   0.32927   0.33464
 Alpha virt. eigenvalues --    0.36931   0.38589   0.39912   0.40150   0.42862

 Mulliken charges:
               1
     1  C    0.057631
     2  O   -0.326382
     3  H    0.050793
     4  H    0.049636
     5  H    0.070439
     6  H    0.097884
 Sum of Mulliken charges =   0.00000

 Dipole moment (field-independent basis, Debye):
    X=             -0.8927    Y=             -1.3299    Z=              0.1812  Tot=              1.6119
 Quadrupole moment (field-independent basis, Debye-Ang):
   XX=            -13.1591   YY=            -12.4804   ZZ=            -13.6229
   XY=             -2.0045   XZ=              0.1599   YZ=             -0.0919

 Normal termination of Gaussian 09 at Wed Aug 26 10:02:42 2020.
