 Gaussian 09, Revision D.01,
 Gaussian 09:  ES64L-G09RevD.01 24-Apr-2013

 --------------------
 #p B2PLYPD3/Def2QZVP
 --------------------

 --------
 methanol
 --------
 Symbolic Z-matrix:
 Charge =  0 Multiplicity = 1

                         Standard orientation:
 ---------------------------------------------------------------------
 Center     Atomic      Atomic             Coordinates (Angstroms)
 Number     Number       Type             X           Y           Z
 ---------------------------------------------------------------------
      1          6           0       -0.670938   -0.027455   -0.004642
      2          8           0        0.748280    0.109637    0.002693
      3          1           0       -1.022730   -0.555724    0.904606
      4          1           0       -1.051084   -0.518036   -0.893308
      5          1           0       -1.046397    1.042051    0.019401
      6          1           0        1.159602   -0.680655   -0.024391
 ---------------------------------------------------------------------

 SCF Done:  E(RB2PLYPD3) =  -115.546878906     A.U. after   10 cycles
 E2(B2PLYPD3) =    -0.1463005091D+00 E(B2PLYPD3) =    -0.11569317941547D+03

 The electronic state is 1-A.
 Alpha  occ. eigenvalues --  -19.71768 -10.66378  -1.17340  -0.79085  -0.59634
 Alpha  occ. eigenvalues --   -0.51864  -0.49277  -0.40784  -0.35647
 Alpha virt. eigenvalues --    0.05264   0.08462   0.12132   0.12329   0.14868
 Alpha virt. eigenvalues --    0.16942   0.18114   0.29070   0.33093   0.33565
 Alpha virt. eigenvalues --    0.37221   0.38015   0.39699   0.40916   0.42883

 Mulliken charges:
               1
     1  C    0.064256
     2  O   -0.432914
     3  H    0.051815
     4  H    0.055334
     5  H    0.069565
     6  H    0.191943
 Sum of Mulliken charges =   0.00000

 Dipole moment (field-independent basis, Debye):
    X=             -0.8426    Y=             -1.4542    Z=             -0.0711  Tot=              1.6821
 Quadrupole moment (field-independent basis, Debye-Ang):
   XX=            -12.9397   YY=            -12.3629   ZZ=            -13.7119
   XY=             -2.1161   XZ=             -0.0133   YZ=              0.0550

 Normal termination of Gaussian 09 at Wed Aug 26 23:59:19 2020.
