 Gaussian 09, Revision D.01,
 Gaussian 09:  ES64L-G09RevD.01 24-Apr-2013

 --------------------
 #p B2PLYPD3/Def2QZVP
 --------------------

 --------
 methanol
 --------
 Symbolic Z-matrix:
 Charge =  0 Multiplicity = 1

                         Standard orientation:
 ---------------------------------------------------------------------
 Center     Atomic      Atomic             Coordinates (Angstroms)
 Number     Number       Type             X           Y           Z
 ---------------------------------------------------------------------
      1          6           0        0.666554    0.014792   -0.004872
      2          8           0       -0.736340   -0.157421   -0.018578
      3          1           0        1.140698    0.252030    0.949414
      4          1           0        0.954753    0.808837   -0.725512
      5          1           0        1.126203   -0.773558   -0.220447
      6          1           0       -1.330259    0.883306    0.174399
 ---------------------------------------------------------------------

 SCF Done:  E(RB2PLYPD3) =  -115.488613520     A.U. after   11 cycles
 E2(B2PLYPD3) =    -0.1516218365D+00 E(B2PLYPD3) =    -0.11564023535666D+03

 The electronic state is 1-A.
 Alpha  occ. eigenvalues --  -19.74234 -10.63828  -1.12645  -0.79281  -0.55112
 Alpha  occ. eigenvalues --   -0.52158  -0.50260  -0.39615  -0.34591
 Alpha virt. eigenvalues --    0.01971   0.07427   0.12537   0.13223   0.14748
 Alpha virt. eigenvalues --    0.17524   0.18677   0.25751   0.29405   0.32861
 Alpha virt. eigenvalues --    0.34352   0.38182   0.40300   0.42512   0.42700

 Mulliken charges:
               1
     1  C    0.071217
     2  O   -0.496894
     3  H    0.042278
     4  H    0.036640
     5  H    0.080358
     6  H    0.266401
 Sum of Mulliken charges =   0.00000

 Dipole moment (field-independent basis, Debye):
    X=              0.6671    Y=              1.5189    Z=              0.2683  Tot=              1.6805
 Quadrupole moment (field-independent basis, Debye-Ang):
   XX=            -12.1521   YY=            -12.2335   ZZ=            -14.0248
   XY=             -2.8742   XZ=             -0.3946   YZ=              0.2144

 Normal termination of Gaussian 09 at Wed Aug 26 20:11:45 2020.
