 Gaussian 09, Revision D.01,
 Gaussian 09:  ES64L-G09RevD.01 24-Apr-2013

 --------------------
 #p B2PLYPD3/Def2QZVP
 --------------------

 --------
 methanol
 --------
 Symbolic Z-matrix:
 Charge =  0 Multiplicity = 1

                         Standard orientation:
 ---------------------------------------------------------------------
 Center     Atomic      Atomic             Coordinates (Angstroms)
 Number     Number       Type             X           Y           Z
 ---------------------------------------------------------------------
      1          6           0       -0.675693   -0.006783    0.011224
      2          8           0        0.746510    0.070761   -0.033185
      3          1           0       -0.970455   -0.129167    1.114070
      4          1           0       -1.088570   -0.910845   -0.681475
      5          1           0       -1.029395    0.986103   -0.389767
      6          1           0        1.170502   -0.471483    0.155304
 ---------------------------------------------------------------------

 SCF Done:  E(RB2PLYPD3) =  -115.433354146     A.U. after   11 cycles
 E2(B2PLYPD3) =    -0.1442272078D+00 E(B2PLYPD3) =    -0.11557758135406D+03

 The electronic state is 1-A.
 Alpha  occ. eigenvalues --  -19.69427 -10.68750  -1.22652  -0.81651  -0.60734
 Alpha  occ. eigenvalues --   -0.51283  -0.50408  -0.39912  -0.35702
 Alpha virt. eigenvalues --    0.05355   0.09102   0.11636   0.12131   0.14241
 Alpha virt. eigenvalues --    0.16626   0.17815   0.28870   0.32164   0.32696
 Alpha virt. eigenvalues --    0.36123   0.38480   0.39097   0.40557   0.42348

 Mulliken charges:
               1
     1  C    0.054218
     2  O   -0.267835
     3  H    0.056803
     4  H    0.044448
     5  H    0.088689
     6  H    0.023676
 Sum of Mulliken charges =   0.00000

 Dipole moment (field-independent basis, Debye):
    X=             -0.8054    Y=             -1.0432    Z=              0.4264  Tot=              1.3852
 Quadrupole moment (field-independent basis, Debye-Ang):
   XX=            -12.8682   YY=            -12.7495   ZZ=            -13.4369
   XY=             -1.8755   XZ=              0.7019   YZ=             -0.2626

 Normal termination of Gaussian 09 at Wed Aug 26 14:37:41 2020.
