 Gaussian 09, Revision D.01,
 Gaussian 09:  ES64L-G09RevD.01 24-Apr-2013

 --------------------
 #p B2PLYPD3/Def2QZVP
 --------------------

 --------
 methanol
 --------
 Symbolic Z-matrix:
 Charge =  0 Multiplicity = 1

                         Standard orientation:
 ---------------------------------------------------------------------
 Center     Atomic      Atomic             Coordinates (Angstroms)
 Number     Number       Type             X           Y           Z
 ---------------------------------------------------------------------
      1          6           0        0.659349    0.035596   -0.011035
      2          8           0       -0.747086   -0.181315   -0.014420
      3          1           0        0.884249    0.415777    0.909696
      4          1           0        1.077218    0.534114   -0.775054
      5          1           0        1.211678   -0.776850    0.017790
      6          1           0       -1.152549    1.063901    0.029135
 ---------------------------------------------------------------------

 SCF Done:  E(RB2PLYPD3) =  -115.461987512     A.U. after   12 cycles
 E2(B2PLYPD3) =    -0.1538305843D+00 E(B2PLYPD3) =    -0.11561581809625D+03

 The electronic state is 1-A.
 Alpha  occ. eigenvalues --  -19.75010 -10.62220  -1.12129  -0.80141  -0.54282
 Alpha  occ. eigenvalues --   -0.53288  -0.49938  -0.39362  -0.35317
 Alpha virt. eigenvalues --    0.00336   0.07464   0.12400   0.13100   0.14217
 Alpha virt. eigenvalues --    0.18457   0.18868   0.23708   0.29358   0.32726
 Alpha virt. eigenvalues --    0.34187   0.39584   0.40604   0.42604   0.43565

 Mulliken charges:
               1
     1  C    0.091965
     2  O   -0.484173
     3  H    0.046946
     4  H    0.044375
     5  H    0.047959
     6  H    0.252929
 Sum of Mulliken charges =   0.00000

 Dipole moment (field-independent basis, Debye):
    X=              1.1004    Y=              1.7050    Z=              0.0757  Tot=              2.0307
 Quadrupole moment (field-independent basis, Debye-Ang):
   XX=            -13.0182   YY=            -11.8299   ZZ=            -13.7678
   XY=             -2.5862   XZ=             -0.2321   YZ=             -0.0378

 Normal termination of Gaussian 09 at Wed Aug 26 22:28:41 2020.
