 Gaussian 09, Revision D.01,
 Gaussian 09:  ES64L-G09RevD.01 24-Apr-2013

 --------------------
 #p B2PLYPD3/Def2QZVP
 --------------------

 --------
 methanol
 --------
 Symbolic Z-matrix:
 Charge =  0 Multiplicity = 1

                         Standard orientation:
 ---------------------------------------------------------------------
 Center     Atomic      Atomic             Coordinates (Angstroms)
 Number     Number       Type             X           Y           Z
 ---------------------------------------------------------------------
      1          6           0        0.672282    0.023132   -0.001880
      2          8           0       -0.740192   -0.141834    0.001405
      3          1           0        0.988776    0.536916    0.876330
      4          1           0        1.048307    0.528868   -0.842696
      5          1           0        1.052021   -0.933068   -0.003348
      6          1           0       -1.201258    0.863161   -0.030249
 ---------------------------------------------------------------------

 SCF Done:  E(RB2PLYPD3) =  -115.531591268     A.U. after   11 cycles
 E2(B2PLYPD3) =    -0.1495686238D+00 E(B2PLYPD3) =    -0.11568115989144D+03

 The electronic state is 1-A.
 Alpha  occ. eigenvalues --  -19.73427 -10.63974  -1.13559  -0.78749  -0.57002
 Alpha  occ. eigenvalues --   -0.52115  -0.49626  -0.40814  -0.35054
 Alpha virt. eigenvalues --    0.03758   0.07879   0.12597   0.12665   0.14938
 Alpha virt. eigenvalues --    0.17164   0.18225   0.28880   0.30265   0.33320
 Alpha virt. eigenvalues --    0.34158   0.39105   0.40067   0.41928   0.44009

 Mulliken charges:
               1
     1  C    0.079126
     2  O   -0.492370
     3  H    0.046826
     4  H    0.046311
     5  H    0.070417
     6  H    0.249691
 Sum of Mulliken charges =   0.00000

 Dipole moment (field-independent basis, Debye):
    X=              0.8741    Y=              1.5977    Z=             -0.0645  Tot=              1.8223
 Quadrupole moment (field-independent basis, Debye-Ang):
   XX=            -12.8706   YY=            -11.9883   ZZ=            -13.8389
   XY=             -2.4212   XZ=             -0.0048   YZ=             -0.0444

 Normal termination of Gaussian 09 at Wed Aug 26 10:44:07 2020.
