 Gaussian 09, Revision D.01,
 Gaussian 09:  ES64L-G09RevD.01 24-Apr-2013

 --------------------
 #p B2PLYPD3/Def2QZVP
 --------------------

 --------
 methanol
 --------
 Symbolic Z-matrix:
 Charge =  0 Multiplicity = 1

                         Standard orientation:
 ---------------------------------------------------------------------
 Center     Atomic      Atomic             Coordinates (Angstroms)
 Number     Number       Type             X           Y           Z
 ---------------------------------------------------------------------
      1          6           0       -0.660541   -0.025433    0.009202
      2          8           0        0.726104   -0.028533   -0.045528
      3          1           0       -0.928031    1.281162    0.016809
      4          1           0       -0.951399   -0.561745    0.982802
      5          1           0       -1.047010   -0.510085   -0.938974
      6          1           0        1.080856    0.171530    0.248374
 ---------------------------------------------------------------------

 SCF Done:  E(RB2PLYPD3) =  -114.770996869     A.U. after   11 cycles
 E2(B2PLYPD3) =    -0.1429558742D+00 E(B2PLYPD3) =    -0.11491395274311D+03

 The electronic state is 1-A.
 Alpha  occ. eigenvalues --  -19.68108 -10.70620  -1.33202  -0.87273  -0.62101
 Alpha  occ. eigenvalues --   -0.53115  -0.51229  -0.39323  -0.35315
 Alpha virt. eigenvalues --    0.04771   0.10094   0.10590   0.11970   0.13638
 Alpha virt. eigenvalues --    0.16575   0.17119   0.27967   0.30209   0.32500
 Alpha virt. eigenvalues --    0.35094   0.37448   0.38647   0.41628   0.43055

 Mulliken charges:
               1
     1  C    0.056604
     2  O   -0.036057
     3  H    0.021750
     4  H    0.062263
     5  H    0.101874
     6  H   -0.206435
 Sum of Mulliken charges =   0.00000

 Dipole moment (field-independent basis, Debye):
    X=             -0.7653    Y=              0.2490    Z=              0.7371  Tot=              1.0913
 Quadrupole moment (field-independent basis, Debye-Ang):
   XX=            -13.1604   YY=            -13.2202   ZZ=            -12.7216
   XY=              1.2795   XZ=              1.4253   YZ=              0.2125

 Normal termination of Gaussian 09 at Wed Aug 26 19:31:38 2020.
