 Gaussian 09, Revision D.01,
 Gaussian 09:  ES64L-G09RevD.01 24-Apr-2013

 --------------------
 #p B2PLYPD3/Def2QZVP
 --------------------

 --------
 methanol
 --------
 Symbolic Z-matrix:
 Charge =  0 Multiplicity = 1

                         Standard orientation:
 ---------------------------------------------------------------------
 Center     Atomic      Atomic             Coordinates (Angstroms)
 Number     Number       Type             X           Y           Z
 ---------------------------------------------------------------------
      1          6           0       -0.623583   -0.025238    0.018717
      2          8           0        0.744815    0.085185   -0.032412
      3          1           0       -1.001295   -0.275239    0.962227
      4          1           0       -1.033589   -0.879015   -0.739410
      5          1           0       -1.172868    1.111371   -0.248431
      6          1           0        0.990728   -0.487170    0.172605
 ---------------------------------------------------------------------

 SCF Done:  E(RB2PLYPD3) =  -115.332277688     A.U. after   11 cycles
 E2(B2PLYPD3) =    -0.1436128529D+00 E(B2PLYPD3) =    -0.11547589054108D+03

 The electronic state is 1-A.
 Alpha  occ. eigenvalues --  -19.70279 -10.68649  -1.28724  -0.81473  -0.64095
 Alpha  occ. eigenvalues --   -0.52481  -0.50342  -0.40620  -0.36268
 Alpha virt. eigenvalues --    0.05007   0.09361   0.11094   0.12066   0.14929
 Alpha virt. eigenvalues --    0.17172   0.17881   0.28168   0.31979   0.33028
 Alpha virt. eigenvalues --    0.34904   0.36924   0.40645   0.42167   0.43105

 Mulliken charges:
               1
     1  C    0.046755
     2  O   -0.189068
     3  H    0.060423
     4  H    0.033682
     5  H    0.053642
     6  H   -0.005434
 Sum of Mulliken charges =   0.00000

 Dipole moment (field-independent basis, Debye):
    X=             -0.8233    Y=             -1.2147    Z=              0.6222  Tot=              1.5939
 Quadrupole moment (field-independent basis, Debye-Ang):
   XX=            -13.4116   YY=            -12.6099   ZZ=            -13.6211
   XY=             -1.6650   XZ=              0.3454   YZ=             -0.2961

 Normal termination of Gaussian 09 at Wed Aug 26 23:49:17 2020.
