 Gaussian 09, Revision D.01,
 Gaussian 09:  ES64L-G09RevD.01 24-Apr-2013

 --------------------
 #p B2PLYPD3/Def2QZVP
 --------------------

 --------
 methanol
 --------
 Symbolic Z-matrix:
 Charge =  0 Multiplicity = 1

                         Standard orientation:
 ---------------------------------------------------------------------
 Center     Atomic      Atomic             Coordinates (Angstroms)
 Number     Number       Type             X           Y           Z
 ---------------------------------------------------------------------
      1          6           0       -0.703466    0.022778    0.017806
      2          8           0        0.759154   -0.073911   -0.046652
      3          1           0       -0.926305    1.158715   -0.377460
      4          1           0       -1.142667   -0.287940    0.966559
      5          1           0       -1.004660   -0.807570   -0.677221
      6          1           0        1.221195    0.391413    0.354506
 ---------------------------------------------------------------------

 SCF Done:  E(RB2PLYPD3) =  -115.477862051     A.U. after   11 cycles
 E2(B2PLYPD3) =    -0.1454891579D+00 E(B2PLYPD3) =    -0.11562335120901D+03

 The electronic state is 1-A.
 Alpha  occ. eigenvalues --  -19.69726 -10.68451  -1.19269  -0.80722  -0.59854
 Alpha  occ. eigenvalues --   -0.51574  -0.48886  -0.39638  -0.35751
 Alpha virt. eigenvalues --    0.05301   0.08641   0.11404   0.12234   0.13994
 Alpha virt. eigenvalues --    0.16360   0.18415   0.28555   0.30322   0.33344
 Alpha virt. eigenvalues --    0.35747   0.37631   0.40170   0.41116   0.42089

 Mulliken charges:
               1
     1  C    0.055284
     2  O   -0.345931
     3  H    0.055606
     4  H    0.070911
     5  H    0.083778
     6  H    0.080352
 Sum of Mulliken charges =   0.00000

 Dipole moment (field-independent basis, Debye):
    X=             -0.9152    Y=              0.8452    Z=              0.8519  Tot=              1.5092
 Quadrupole moment (field-independent basis, Debye-Ang):
   XX=            -12.6724   YY=            -12.8127   ZZ=            -13.3888
   XY=              1.8322   XZ=              1.0646   YZ=              0.2812

 Normal termination of Gaussian 09 at Wed Aug 26 21:35:07 2020.
