 Gaussian 09, Revision D.01,
 Gaussian 09:  ES64L-G09RevD.01 24-Apr-2013

 --------------------
 #p B2PLYPD3/Def2QZVP
 --------------------

 --------
 methanol
 --------
 Symbolic Z-matrix:
 Charge =  0 Multiplicity = 1

                         Standard orientation:
 ---------------------------------------------------------------------
 Center     Atomic      Atomic             Coordinates (Angstroms)
 Number     Number       Type             X           Y           Z
 ---------------------------------------------------------------------
      1          6           0       -0.667859   -0.025348    0.011472
      2          8           0        0.758537    0.109068   -0.012649
      3          1           0       -1.017976   -0.462946    0.918236
      4          1           0       -1.062256   -0.607239   -0.880259
      5          1           0       -1.088268    1.032514   -0.058582
      6          1           0        1.107361   -0.682785    0.052968
 ---------------------------------------------------------------------

 SCF Done:  E(RB2PLYPD3) =  -115.541045780     A.U. after   10 cycles
 E2(B2PLYPD3) =    -0.1461650470D+00 E(B2PLYPD3) =    -0.11568721082728D+03

 The electronic state is 1-A.
 Alpha  occ. eigenvalues --  -19.71821 -10.66627  -1.18129  -0.79118  -0.59833
 Alpha  occ. eigenvalues --   -0.51803  -0.49306  -0.41232  -0.35878
 Alpha virt. eigenvalues --    0.05283   0.08511   0.12114   0.12233   0.14757
 Alpha virt. eigenvalues --    0.17221   0.18111   0.28970   0.32694   0.33387
 Alpha virt. eigenvalues --    0.37098   0.37997   0.39461   0.40967   0.43296

 Mulliken charges:
               1
     1  C    0.064494
     2  O   -0.414818
     3  H    0.057827
     4  H    0.048405
     5  H    0.067267
     6  H    0.176825
 Sum of Mulliken charges =   0.00000

 Dipole moment (field-independent basis, Debye):
    X=             -0.9506    Y=             -1.4433    Z=              0.1826  Tot=              1.7379
 Quadrupole moment (field-independent basis, Debye-Ang):
   XX=            -13.1069   YY=            -12.3663   ZZ=            -13.6909
   XY=             -2.0831   XZ=              0.1244   YZ=             -0.1235

 Normal termination of Gaussian 09 at Thu Aug 27 00:07:55 2020.
