 Gaussian 09, Revision D.01,
 Gaussian 09:  ES64L-G09RevD.01 24-Apr-2013

 --------------------
 #p B2PLYPD3/Def2QZVP
 --------------------

 --------
 methanol
 --------
 Symbolic Z-matrix:
 Charge =  0 Multiplicity = 1

                         Standard orientation:
 ---------------------------------------------------------------------
 Center     Atomic      Atomic             Coordinates (Angstroms)
 Number     Number       Type             X           Y           Z
 ---------------------------------------------------------------------
      1          6           0       -0.661841    0.027709    0.001082
      2          8           0        0.736638   -0.148802   -0.000221
      3          1           0       -1.028790    0.503897   -0.846639
      4          1           0       -0.956847    0.554011    0.847630
      5          1           0       -1.094182   -0.921211    0.021203
      6          1           0        1.157765    0.887464   -0.026917
 ---------------------------------------------------------------------

 SCF Done:  E(RB2PLYPD3) =  -115.527832396     A.U. after   11 cycles
 E2(B2PLYPD3) =    -0.1496016437D+00 E(B2PLYPD3) =    -0.11567743403985D+03

 The electronic state is 1-A.
 Alpha  occ. eigenvalues --  -19.73590 -10.63553  -1.13988  -0.78781  -0.56962
 Alpha  occ. eigenvalues --   -0.52814  -0.49697  -0.40747  -0.35117
 Alpha virt. eigenvalues --    0.03539   0.07930   0.12641   0.12684   0.14892
 Alpha virt. eigenvalues --    0.17507   0.18182   0.28594   0.29871   0.33313
 Alpha virt. eigenvalues --    0.34541   0.39469   0.40161   0.42527   0.44027

 Mulliken charges:
               1
     1  C    0.084347
     2  O   -0.486821
     3  H    0.043605
     4  H    0.044387
     5  H    0.064144
     6  H    0.250338
 Sum of Mulliken charges =   0.00000

 Dipole moment (field-independent basis, Debye):
    X=             -0.9088    Y=              1.6422    Z=             -0.0418  Tot=              1.8774
 Quadrupole moment (field-independent basis, Debye-Ang):
   XX=            -13.0354   YY=            -11.9278   ZZ=            -13.8084
   XY=              2.4021   XZ=              0.0074   YZ=             -0.0245

 Normal termination of Gaussian 09 at Wed Aug 26 13:20:22 2020.
