 Gaussian 09, Revision D.01,
 Gaussian 09:  ES64L-G09RevD.01 24-Apr-2013

 --------------------
 #p B2PLYPD3/Def2QZVP
 --------------------

 --------
 methanol
 --------
 Symbolic Z-matrix:
 Charge =  0 Multiplicity = 1

                         Standard orientation:
 ---------------------------------------------------------------------
 Center     Atomic      Atomic             Coordinates (Angstroms)
 Number     Number       Type             X           Y           Z
 ---------------------------------------------------------------------
      1          6           0        0.663877    0.023381    0.010924
      2          8           0       -0.744327   -0.138710   -0.014319
      3          1           0        1.024311    0.394898    0.906290
      4          1           0        1.068157    0.640590   -0.817905
      5          1           0        1.065887   -0.926056   -0.102176
      6          1           0       -1.186999    0.859965    0.062802
 ---------------------------------------------------------------------

 SCF Done:  E(RB2PLYPD3) =  -115.533108964     A.U. after   11 cycles
 E2(B2PLYPD3) =    -0.1495290773D+00 E(B2PLYPD3) =    -0.11568263804134D+03

 The electronic state is 1-A.
 Alpha  occ. eigenvalues --  -19.73662 -10.64346  -1.13994  -0.78661  -0.57061
 Alpha  occ. eigenvalues --   -0.51837  -0.49790  -0.40739  -0.35232
 Alpha virt. eigenvalues --    0.03855   0.07796   0.12514   0.12725   0.14952
 Alpha virt. eigenvalues --    0.17247   0.18454   0.28796   0.30393   0.33586
 Alpha virt. eigenvalues --    0.34182   0.38564   0.40100   0.41589   0.44005

 Mulliken charges:
               1
     1  C    0.074114
     2  O   -0.484305
     3  H    0.051224
     4  H    0.040678
     5  H    0.067463
     6  H    0.250825
 Sum of Mulliken charges =   0.00000

 Dipole moment (field-independent basis, Debye):
    X=              0.8557    Y=              1.5669    Z=              0.1843  Tot=              1.7948
 Quadrupole moment (field-independent basis, Debye-Ang):
   XX=            -12.8722   YY=            -12.0929   ZZ=            -13.8510
   XY=             -2.4143   XZ=             -0.1383   YZ=              0.1331

 Normal termination of Gaussian 09 at Wed Aug 26 12:48:24 2020.
