 Gaussian 09, Revision D.01,
 Gaussian 09:  ES64L-G09RevD.01 24-Apr-2013

 --------------------
 #p B2PLYPD3/Def2QZVP
 --------------------

 --------
 methanol
 --------
 Symbolic Z-matrix:
 Charge =  0 Multiplicity = 1

                         Standard orientation:
 ---------------------------------------------------------------------
 Center     Atomic      Atomic             Coordinates (Angstroms)
 Number     Number       Type             X           Y           Z
 ---------------------------------------------------------------------
      1          6           0       -0.647230   -0.009455    0.004493
      2          8           0        0.750751   -0.180480   -0.021585
      3          1           0       -1.110469    0.622400   -0.763141
      4          1           0       -0.960732    0.387577    0.847956
      5          1           0       -1.132168   -0.714245   -0.021905
      6          1           0        1.080737    1.204838    0.082812
 ---------------------------------------------------------------------

 SCF Done:  E(RB2PLYPD3) =  -115.388302939     A.U. after   12 cycles
 E2(B2PLYPD3) =    -0.1564349922D+00 E(B2PLYPD3) =    -0.11554473793089D+03

 The electronic state is 1-A.
 Alpha  occ. eigenvalues --  -19.75899 -10.61324  -1.12339  -0.81914  -0.55037
 Alpha  occ. eigenvalues --   -0.51630  -0.50645  -0.39554  -0.35053
 Alpha virt. eigenvalues --   -0.02357   0.07324   0.12643   0.13042   0.14532
 Alpha virt. eigenvalues --    0.18286   0.18891   0.22364   0.29664   0.32984
 Alpha virt. eigenvalues --    0.34278   0.37666   0.40785   0.41384   0.44955

 Mulliken charges:
               1
     1  C    0.055260
     2  O   -0.469949
     3  H    0.028891
     4  H    0.036396
     5  H    0.102910
     6  H    0.246491
 Sum of Mulliken charges =   0.00000

 Dipole moment (field-independent basis, Debye):
    X=             -1.1815    Y=              1.6816    Z=              0.2526  Tot=              2.0706
 Quadrupole moment (field-independent basis, Debye-Ang):
   XX=            -13.3595   YY=            -11.2041   ZZ=            -14.0332
   XY=              2.4676   XZ=              0.1092   YZ=              0.1611

 Normal termination of Gaussian 09 at Wed Aug 26 22:37:56 2020.
