 Gaussian 09, Revision D.01,
 Gaussian 09:  ES64L-G09RevD.01 24-Apr-2013

 --------------------
 #p B2PLYPD3/Def2QZVP
 --------------------

 --------
 methanol
 --------
 Symbolic Z-matrix:
 Charge =  0 Multiplicity = 1

                         Standard orientation:
 ---------------------------------------------------------------------
 Center     Atomic      Atomic             Coordinates (Angstroms)
 Number     Number       Type             X           Y           Z
 ---------------------------------------------------------------------
      1          6           0        0.648852    0.029011   -0.015581
      2          8           0       -0.730374   -0.188885    0.027354
      3          1           0        1.223049    0.596339    0.743767
      4          1           0        1.011278    0.528858   -0.711735
      5          1           0        1.109412   -0.873071   -0.075412
      6          1           0       -1.393855    1.084888   -0.081966
 ---------------------------------------------------------------------

 SCF Done:  E(RB2PLYPD3) =  -115.420192760     A.U. after   11 cycles
 E2(B2PLYPD3) =    -0.1567145347D+00 E(B2PLYPD3) =    -0.11557690729494D+03

 The electronic state is 1-A.
 Alpha  occ. eigenvalues --  -19.76035 -10.62650  -1.12513  -0.80195  -0.55716
 Alpha  occ. eigenvalues --   -0.50108  -0.49870  -0.39286  -0.34528
 Alpha virt. eigenvalues --   -0.02474   0.07046   0.12373   0.13591   0.15170
 Alpha virt. eigenvalues --    0.17515   0.18527   0.21369   0.29862   0.33240
 Alpha virt. eigenvalues --    0.34982   0.38216   0.38616   0.40626   0.45487

 Mulliken charges:
               1
     1  C    0.080527
     2  O   -0.466839
     3  H    0.027858
     4  H    0.054211
     5  H    0.062177
     6  H    0.242066
 Sum of Mulliken charges =   0.00000

 Dipole moment (field-independent basis, Debye):
    X=              0.7172    Y=              1.7435    Z=             -0.3597  Tot=              1.9192
 Quadrupole moment (field-independent basis, Debye-Ang):
   XX=            -12.1021   YY=            -11.6491   ZZ=            -14.5277
   XY=             -2.6459   XZ=              0.0440   YZ=             -0.2072

 Normal termination of Gaussian 09 at Wed Aug 26 23:56:48 2020.
