 Gaussian 09, Revision D.01,
 Gaussian 09:  ES64L-G09RevD.01 24-Apr-2013

 --------------------
 #p B2PLYPD3/Def2QZVP
 --------------------

 --------
 methanol
 --------
 Symbolic Z-matrix:
 Charge =  0 Multiplicity = 1

                         Standard orientation:
 ---------------------------------------------------------------------
 Center     Atomic      Atomic             Coordinates (Angstroms)
 Number     Number       Type             X           Y           Z
 ---------------------------------------------------------------------
      1          6           0        0.664327   -0.010909    0.015632
      2          8           0       -0.765218    0.086255   -0.017062
      3          1           0        1.108142   -0.728494   -0.827107
      4          1           0        1.008723   -0.367457    0.995230
      5          1           0        1.074674    1.054759   -0.181431
      6          1           0       -1.055760   -0.583400    0.056011
 ---------------------------------------------------------------------

 SCF Done:  E(RB2PLYPD3) =  -115.461285394     A.U. after   11 cycles
 E2(B2PLYPD3) =    -0.1445844249D+00 E(B2PLYPD3) =    -0.11560586981939D+03

 The electronic state is 1-A.
 Alpha  occ. eigenvalues --  -19.70504 -10.68070  -1.22919  -0.80205  -0.61355
 Alpha  occ. eigenvalues --   -0.51357  -0.49706  -0.41607  -0.36195
 Alpha virt. eigenvalues --    0.05353   0.08936   0.11744   0.12054   0.14701
 Alpha virt. eigenvalues --    0.17096   0.17866   0.28719   0.32096   0.33042
 Alpha virt. eigenvalues --    0.36302   0.37849   0.39796   0.40568   0.42641

 Mulliken charges:
               1
     1  C    0.055066
     2  O   -0.284686
     3  H    0.041368
     4  H    0.060362
     5  H    0.074980
     6  H    0.052909
 Sum of Mulliken charges =   0.00000

 Dipole moment (field-independent basis, Debye):
    X=              1.0178    Y=             -1.2686    Z=              0.2263  Tot=              1.6421
 Quadrupole moment (field-independent basis, Debye-Ang):
   XX=            -13.2478   YY=            -12.4387   ZZ=            -13.6274
   XY=              1.9026   XZ=             -0.1978   YZ=             -0.1753

 Normal termination of Gaussian 09 at Wed Aug 26 13:31:35 2020.
