 Gaussian 09, Revision D.01,
 Gaussian 09:  ES64L-G09RevD.01 24-Apr-2013

 --------------------
 #p B2PLYPD3/Def2QZVP
 --------------------

 --------
 methanol
 --------
 Symbolic Z-matrix:
 Charge =  0 Multiplicity = 1

                         Standard orientation:
 ---------------------------------------------------------------------
 Center     Atomic      Atomic             Coordinates (Angstroms)
 Number     Number       Type             X           Y           Z
 ---------------------------------------------------------------------
      1          6           0       -0.670647   -0.030932    0.002767
      2          8           0        0.753361    0.100729   -0.016623
      3          1           0       -0.966536   -0.405368    0.951415
      4          1           0       -1.036777   -0.678882   -0.816415
      5          1           0       -1.058592    1.094947   -0.096421
      6          1           0        1.058894   -0.630939    0.077805
 ---------------------------------------------------------------------

 SCF Done:  E(RB2PLYPD3) =  -115.510732686     A.U. after   10 cycles
 E2(B2PLYPD3) =    -0.1451204972D+00 E(B2PLYPD3) =    -0.11565585318330D+03

 The electronic state is 1-A.
 Alpha  occ. eigenvalues --  -19.70814 -10.66885  -1.20414  -0.79660  -0.60777
 Alpha  occ. eigenvalues --   -0.52639  -0.48750  -0.41348  -0.36109
 Alpha virt. eigenvalues --    0.05299   0.08981   0.11640   0.12222   0.14796
 Alpha virt. eigenvalues --    0.16967   0.17827   0.28968   0.32396   0.33317
 Alpha virt. eigenvalues --    0.36069   0.39038   0.40195   0.41095   0.43257

 Mulliken charges:
               1
     1  C    0.063960
     2  O   -0.354765
     3  H    0.058323
     4  H    0.054884
     5  H    0.063775
     6  H    0.113822
 Sum of Mulliken charges =   0.00000

 Dipole moment (field-independent basis, Debye):
    X=             -0.9960    Y=             -1.4399    Z=              0.2309  Tot=              1.7660
 Quadrupole moment (field-independent basis, Debye-Ang):
   XX=            -13.3901   YY=            -12.2504   ZZ=            -13.5874
   XY=             -1.8604   XZ=              0.2399   YZ=             -0.0839

 Normal termination of Gaussian 09 at Wed Aug 26 13:15:07 2020.
