 Gaussian 09, Revision D.01,
 Gaussian 09:  ES64L-G09RevD.01 24-Apr-2013

 --------------------
 #p B2PLYPD3/Def2QZVP
 --------------------

 --------
 methanol
 --------
 Symbolic Z-matrix:
 Charge =  0 Multiplicity = 1

                         Standard orientation:
 ---------------------------------------------------------------------
 Center     Atomic      Atomic             Coordinates (Angstroms)
 Number     Number       Type             X           Y           Z
 ---------------------------------------------------------------------
      1          6           0        0.691193    0.008850    0.010839
      2          8           0       -0.753002   -0.182847    0.009825
      3          1           0        0.960578    0.579524    0.775078
      4          1           0        1.089332    0.420853   -0.760303
      5          1           0        0.950187   -0.816795   -0.038582
      6          1           0       -1.123240    1.226092   -0.119827
 ---------------------------------------------------------------------

 SCF Done:  E(RB2PLYPD3) =  -115.376792775     A.U. after   12 cycles
 E2(B2PLYPD3) =    -0.1579470133D+00 E(B2PLYPD3) =    -0.11553473978803D+03

 The electronic state is 1-A.
 Alpha  occ. eigenvalues --  -19.75588 -10.60495  -1.10713  -0.81934  -0.57893
 Alpha  occ. eigenvalues --   -0.52915  -0.47131  -0.39872  -0.35370
 Alpha virt. eigenvalues --   -0.02384   0.07478   0.12547   0.12848   0.14549
 Alpha virt. eigenvalues --    0.16981   0.18335   0.21866   0.29342   0.32408
 Alpha virt. eigenvalues --    0.33861   0.38041   0.40161   0.43579   0.45321

 Mulliken charges:
               1
     1  C    0.066344
     2  O   -0.483833
     3  H    0.047678
     4  H    0.037417
     5  H    0.116127
     6  H    0.216267
 Sum of Mulliken charges =   0.00000

 Dipole moment (field-independent basis, Debye):
    X=              1.4126    Y=              1.6964    Z=             -0.2115  Tot=              2.2177
 Quadrupole moment (field-independent basis, Debye-Ang):
   XX=            -13.4889   YY=            -10.9548   ZZ=            -13.9348
   XY=             -2.1280   XZ=             -0.0044   YZ=             -0.0567

 Normal termination of Gaussian 09 at Wed Aug 26 22:58:34 2020.
