 Gaussian 09, Revision D.01,
 Gaussian 09:  ES64L-G09RevD.01 24-Apr-2013

 --------------------
 #p B2PLYPD3/Def2QZVP
 --------------------

 --------
 methanol
 --------
 Symbolic Z-matrix:
 Charge =  0 Multiplicity = 1

                         Standard orientation:
 ---------------------------------------------------------------------
 Center     Atomic      Atomic             Coordinates (Angstroms)
 Number     Number       Type             X           Y           Z
 ---------------------------------------------------------------------
      1          6           0        0.678987    0.019286    0.005006
      2          8           0       -0.734798   -0.143931   -0.029540
      3          1           0        0.916613    0.282051    0.963386
      4          1           0        1.104681    0.757858   -0.708758
      5          1           0        1.036627   -0.884513   -0.154902
      6          1           0       -1.253464    0.880331    0.106560
 ---------------------------------------------------------------------

 SCF Done:  E(RB2PLYPD3) =  -115.512083025     A.U. after   11 cycles
 E2(B2PLYPD3) =    -0.1505020698D+00 E(B2PLYPD3) =    -0.11566258509522D+03

 The electronic state is 1-A.
 Alpha  occ. eigenvalues --  -19.73526 -10.63611  -1.12850  -0.78879  -0.56268
 Alpha  occ. eigenvalues --   -0.52068  -0.49919  -0.40379  -0.34771
 Alpha virt. eigenvalues --    0.03132   0.07758   0.12410   0.12979   0.14791
 Alpha virt. eigenvalues --    0.16962   0.18356   0.27890   0.29647   0.32960
 Alpha virt. eigenvalues --    0.34370   0.38528   0.40305   0.41833   0.43804

 Mulliken charges:
               1
     1  C    0.077504
     2  O   -0.499503
     3  H    0.052734
     4  H    0.041773
     5  H    0.073509
     6  H    0.253984
 Sum of Mulliken charges =   0.00000

 Dipole moment (field-independent basis, Debye):
    X=              0.8253    Y=              1.5511    Z=              0.2859  Tot=              1.7801
 Quadrupole moment (field-independent basis, Debye-Ang):
   XX=            -12.7120   YY=            -11.9803   ZZ=            -13.8393
   XY=             -2.5247   XZ=             -0.3955   YZ=              0.1512

 Normal termination of Gaussian 09 at Wed Aug 26 22:33:07 2020.
