 Gaussian 09, Revision D.01,
 Gaussian 09:  ES64L-G09RevD.01 24-Apr-2013

 --------------------
 #p B2PLYPD3/Def2QZVP
 --------------------

 --------
 methanol
 --------
 Symbolic Z-matrix:
 Charge =  0 Multiplicity = 1

                         Standard orientation:
 ---------------------------------------------------------------------
 Center     Atomic      Atomic             Coordinates (Angstroms)
 Number     Number       Type             X           Y           Z
 ---------------------------------------------------------------------
      1          6           0       -0.678253    0.017906    0.004385
      2          8           0        0.747164   -0.135898   -0.012918
      3          1           0       -1.053262    0.589536   -0.838504
      4          1           0       -0.982179    0.506743    0.863629
      5          1           0       -1.060528   -0.952672    0.000685
      6          1           0        1.188175    0.836141    0.051221
 ---------------------------------------------------------------------

 SCF Done:  E(RB2PLYPD3) =  -115.538272694     A.U. after   11 cycles
 E2(B2PLYPD3) =    -0.1490638979D+00 E(B2PLYPD3) =    -0.11568733659235D+03

 The electronic state is 1-A.
 Alpha  occ. eigenvalues --  -19.73151 -10.64337  -1.13646  -0.78878  -0.57372
 Alpha  occ. eigenvalues --   -0.51744  -0.49595  -0.41136  -0.35089
 Alpha virt. eigenvalues --    0.04156   0.07932   0.12500   0.12629   0.14954
 Alpha virt. eigenvalues --    0.17174   0.18036   0.29171   0.31356   0.33326
 Alpha virt. eigenvalues --    0.33532   0.39271   0.39946   0.41275   0.44345

 Mulliken charges:
               1
     1  C    0.082013
     2  O   -0.493514
     3  H    0.045556
     4  H    0.047503
     5  H    0.072957
     6  H    0.245485
 Sum of Mulliken charges =   0.00000

 Dipole moment (field-independent basis, Debye):
    X=             -0.9210    Y=              1.5888    Z=              0.1597  Tot=              1.8434
 Quadrupole moment (field-independent basis, Debye-Ang):
   XX=            -12.9066   YY=            -11.9652   ZZ=            -13.8679
   XY=              2.3658   XZ=              0.1323   YZ=              0.0839

 Normal termination of Gaussian 09 at Thu Aug 27 00:07:39 2020.
