 Gaussian 09, Revision D.01,
 Gaussian 09:  ES64L-G09RevD.01 24-Apr-2013

 --------------------
 #p B2PLYPD3/Def2QZVP
 --------------------

 --------
 methanol
 --------
 Symbolic Z-matrix:
 Charge =  0 Multiplicity = 1

                         Standard orientation:
 ---------------------------------------------------------------------
 Center     Atomic      Atomic             Coordinates (Angstroms)
 Number     Number       Type             X           Y           Z
 ---------------------------------------------------------------------
      1          6           0        0.663439    0.062070    0.004996
      2          8           0       -0.740199   -0.205400   -0.004342
      3          1           0        1.051502    0.416242    0.741396
      4          1           0        1.030894    0.583636   -0.693385
      5          1           0        1.160318   -0.873275   -0.067699
      6          1           0       -1.301757    1.144179    0.024444
 ---------------------------------------------------------------------

 SCF Done:  E(RB2PLYPD3) =  -115.398920513     A.U. after   12 cycles
 E2(B2PLYPD3) =    -0.1571181760D+00 E(B2PLYPD3) =    -0.11555603868937D+03

 The electronic state is 1-A.
 Alpha  occ. eigenvalues --  -19.76017 -10.61231  -1.11320  -0.81885  -0.54001
 Alpha  occ. eigenvalues --   -0.53777  -0.48698  -0.38787  -0.35838
 Alpha virt. eigenvalues --   -0.02582   0.07208   0.12430   0.13369   0.14873
 Alpha virt. eigenvalues --    0.17623   0.18641   0.21340   0.29455   0.34027
 Alpha virt. eigenvalues --    0.34320   0.37404   0.39503   0.43984   0.44799

 Mulliken charges:
               1
     1  C    0.100488
     2  O   -0.471531
     3  H    0.056757
     4  H    0.043411
     5  H    0.044457
     6  H    0.226418
 Sum of Mulliken charges =   0.00000

 Dipole moment (field-independent basis, Debye):
    X=              1.0718    Y=              1.8399    Z=              0.0717  Tot=              2.1305
 Quadrupole moment (field-independent basis, Debye-Ang):
   XX=            -12.5601   YY=            -11.4971   ZZ=            -14.1185
   XY=             -2.4313   XZ=              0.0136   YZ=              0.0157

 Normal termination of Gaussian 09 at Wed Aug 26 19:06:11 2020.
