 Gaussian 09, Revision D.01,
 Gaussian 09:  ES64L-G09RevD.01 24-Apr-2013

 --------------------
 #p B2PLYPD3/Def2QZVP
 --------------------

 --------
 methanol
 --------
 Symbolic Z-matrix:
 Charge =  0 Multiplicity = 1

                         Standard orientation:
 ---------------------------------------------------------------------
 Center     Atomic      Atomic             Coordinates (Angstroms)
 Number     Number       Type             X           Y           Z
 ---------------------------------------------------------------------
      1          6           0        0.670450   -0.012944   -0.001747
      2          8           0       -0.752727    0.110468   -0.003031
      3          1           0        1.030573   -0.573343   -0.911196
      4          1           0        1.016020   -0.532171    0.940569
      5          1           0        1.105492    0.971502   -0.009580
      6          1           0       -1.152966   -0.672065    0.014932
 ---------------------------------------------------------------------

 SCF Done:  E(RB2PLYPD3) =  -115.544790456     A.U. after   10 cycles
 E2(B2PLYPD3) =    -0.1460928010D+00 E(B2PLYPD3) =    -0.11569088325742D+03

 The electronic state is 1-A.
 Alpha  occ. eigenvalues --  -19.71687 -10.66585  -1.17593  -0.79309  -0.59331
 Alpha  occ. eigenvalues --   -0.51290  -0.50573  -0.40861  -0.35445
 Alpha virt. eigenvalues --    0.05293   0.08452   0.12096   0.12541   0.14559
 Alpha virt. eigenvalues --    0.17294   0.18007   0.29053   0.32878   0.33135
 Alpha virt. eigenvalues --    0.36550   0.39198   0.39813   0.40191   0.43529

 Mulliken charges:
               1
     1  C    0.068303
     2  O   -0.428765
     3  H    0.047903
     4  H    0.046487
     5  H    0.078447
     6  H    0.187625
 Sum of Mulliken charges =   0.00000

 Dipole moment (field-independent basis, Debye):
    X=              0.8809    Y=             -1.3722    Z=              0.0310  Tot=              1.6309
 Quadrupole moment (field-independent basis, Debye-Ang):
   XX=            -12.9023   YY=            -12.4373   ZZ=            -13.7119
   XY=              2.2935   XZ=             -0.0636   YZ=             -0.0063

 Normal termination of Gaussian 09 at Wed Aug 26 19:10:59 2020.
