 Gaussian 09, Revision D.01,
 Gaussian 09:  ES64L-G09RevD.01 24-Apr-2013

 --------------------
 #p B2PLYPD3/Def2QZVP
 --------------------

 --------
 methanol
 --------
 Symbolic Z-matrix:
 Charge =  0 Multiplicity = 1

                         Standard orientation:
 ---------------------------------------------------------------------
 Center     Atomic      Atomic             Coordinates (Angstroms)
 Number     Number       Type             X           Y           Z
 ---------------------------------------------------------------------
      1          6           0        0.664038    0.014879   -0.016842
      2          8           0       -0.748061   -0.150549    0.012169
      3          1           0        1.089299    0.576314    0.814109
      4          1           0        0.967777    0.538242   -0.800327
      5          1           0        1.110528   -0.925535    0.006972
      6          1           0       -1.167348    0.926101   -0.017061
 ---------------------------------------------------------------------

 SCF Done:  E(RB2PLYPD3) =  -115.514523691     A.U. after   11 cycles
 E2(B2PLYPD3) =    -0.1506675528D+00 E(B2PLYPD3) =    -0.11566519124410D+03

 The electronic state is 1-A.
 Alpha  occ. eigenvalues --  -19.74120 -10.63669  -1.13255  -0.79065  -0.57013
 Alpha  occ. eigenvalues --   -0.51536  -0.49499  -0.41238  -0.34947
 Alpha virt. eigenvalues --    0.02980   0.07682   0.12492   0.12889   0.15051
 Alpha virt. eigenvalues --    0.17654   0.18057   0.27557   0.29786   0.33265
 Alpha virt. eigenvalues --    0.34113   0.39036   0.39625   0.41484   0.44440

 Mulliken charges:
               1
     1  C    0.091188
     2  O   -0.490198
     3  H    0.034051
     4  H    0.044265
     5  H    0.067462
     6  H    0.253231
 Sum of Mulliken charges =   0.00000

 Dipole moment (field-independent basis, Debye):
    X=              0.9439    Y=              1.6821    Z=             -0.1309  Tot=              1.9333
 Quadrupole moment (field-independent basis, Debye-Ang):
   XX=            -12.9638   YY=            -11.7423   ZZ=            -14.0696
   XY=             -2.3973   XZ=              0.0456   YZ=             -0.1260

 Normal termination of Gaussian 09 at Wed Aug 26 13:15:35 2020.
