 Gaussian 09, Revision D.01,
 Gaussian 09:  ES64L-G09RevD.01 24-Apr-2013

 --------------------
 #p B2PLYPD3/Def2QZVP
 --------------------

 --------
 methanol
 --------
 Symbolic Z-matrix:
 Charge =  0 Multiplicity = 1

                         Standard orientation:
 ---------------------------------------------------------------------
 Center     Atomic      Atomic             Coordinates (Angstroms)
 Number     Number       Type             X           Y           Z
 ---------------------------------------------------------------------
      1          6           0        0.662121   -0.026413    0.003565
      2          8           0       -0.751836    0.111615   -0.004381
      3          1           0        1.037090   -0.578225   -0.892973
      4          1           0        0.985154   -0.534624    0.921769
      5          1           0        1.154529    1.018649   -0.017331
      6          1           0       -1.134814   -0.640241    0.002199
 ---------------------------------------------------------------------

 SCF Done:  E(RB2PLYPD3) =  -115.534560376     A.U. after   10 cycles
 E2(B2PLYPD3) =    -0.1455958760D+00 E(B2PLYPD3) =    -0.11568015625228D+03

 The electronic state is 1-A.
 Alpha  occ. eigenvalues --  -19.71460 -10.66957  -1.18973  -0.79329  -0.60255
 Alpha  occ. eigenvalues --   -0.51928  -0.49756  -0.40636  -0.35764
 Alpha virt. eigenvalues --    0.05342   0.08580   0.12181   0.12242   0.14601
 Alpha virt. eigenvalues --    0.17429   0.17937   0.29003   0.32983   0.33322
 Alpha virt. eigenvalues --    0.36527   0.38559   0.39705   0.40475   0.43375

 Mulliken charges:
               1
     1  C    0.065684
     2  O   -0.397694
     3  H    0.049410
     4  H    0.052809
     5  H    0.068410
     6  H    0.161381
 Sum of Mulliken charges =   0.00000

 Dipole moment (field-independent basis, Debye):
    X=              0.8709    Y=             -1.4206    Z=              0.0306  Tot=              1.6666
 Quadrupole moment (field-independent basis, Debye-Ang):
   XX=            -12.9272   YY=            -12.5041   ZZ=            -13.7020
   XY=              2.1743   XZ=             -0.0485   YZ=             -0.0208

 Normal termination of Gaussian 09 at Thu Aug 27 00:00:24 2020.
