 Gaussian 09, Revision D.01,
 Gaussian 09:  ES64L-G09RevD.01 24-Apr-2013

 --------------------
 #p B2PLYPD3/Def2QZVP
 --------------------

 --------
 methanol
 --------
 Symbolic Z-matrix:
 Charge =  0 Multiplicity = 1

                         Standard orientation:
 ---------------------------------------------------------------------
 Center     Atomic      Atomic             Coordinates (Angstroms)
 Number     Number       Type             X           Y           Z
 ---------------------------------------------------------------------
      1          6           0        0.663089   -0.024410   -0.000796
      2          8           0       -0.753323    0.128689   -0.000252
      3          1           0        1.065246   -0.525863   -0.856692
      4          1           0        1.069957   -0.521573    0.858234
      5          1           0        1.054151    0.992283    0.000891
      6          1           0       -1.141304   -0.827903    0.004362
 ---------------------------------------------------------------------

 SCF Done:  E(RB2PLYPD3) =  -115.545624830     A.U. after   10 cycles
 E2(B2PLYPD3) =    -0.1487338029D+00 E(B2PLYPD3) =    -0.11569435863328D+03

 The electronic state is 1-A.
 Alpha  occ. eigenvalues --  -19.73439 -10.65069  -1.14858  -0.78520  -0.58041
 Alpha  occ. eigenvalues --   -0.51607  -0.49195  -0.41236  -0.35484
 Alpha virt. eigenvalues --    0.04455   0.07923   0.12333   0.12605   0.15101
 Alpha virt. eigenvalues --    0.17202   0.18347   0.29006   0.32228   0.33724
 Alpha virt. eigenvalues --    0.34081   0.38260   0.39704   0.41324   0.44045

 Mulliken charges:
               1
     1  C    0.069086
     2  O   -0.471009
     3  H    0.048554
     4  H    0.047984
     5  H    0.065046
     6  H    0.240339
 Sum of Mulliken charges =   0.00000

 Dipole moment (field-independent basis, Debye):
    X=              0.9096    Y=             -1.5892    Z=              0.0066  Tot=              1.8311
 Quadrupole moment (field-independent basis, Debye-Ang):
   XX=            -13.0257   YY=            -12.0678   ZZ=            -13.9147
   XY=              2.2039   XZ=             -0.0072   YZ=             -0.0002

 Normal termination of Gaussian 09 at Wed Aug 26 10:56:20 2020.
