 Gaussian 09, Revision D.01,
 Gaussian 09:  ES64L-G09RevD.01 24-Apr-2013

 --------------------
 #p B2PLYPD3/Def2QZVP
 --------------------

 --------
 methanol
 --------
 Symbolic Z-matrix:
 Charge =  0 Multiplicity = 1

                         Standard orientation:
 ---------------------------------------------------------------------
 Center     Atomic      Atomic             Coordinates (Angstroms)
 Number     Number       Type             X           Y           Z
 ---------------------------------------------------------------------
      1          6           0       -0.679773   -0.007919   -0.001706
      2          8           0        0.753786    0.100453   -0.008234
      3          1           0       -1.025515   -0.461938    0.977721
      4          1           0       -1.010290   -0.662093   -0.877630
      5          1           0       -1.058198    1.000198   -0.084567
      6          1           0        1.142351   -0.632276    0.060586
 ---------------------------------------------------------------------

 SCF Done:  E(RB2PLYPD3) =  -115.530475670     A.U. after   10 cycles
 E2(B2PLYPD3) =    -0.1455033941D+00 E(B2PLYPD3) =    -0.11567597906409D+03

 The electronic state is 1-A.
 Alpha  occ. eigenvalues --  -19.70963 -10.67010  -1.18541  -0.79755  -0.59650
 Alpha  occ. eigenvalues --   -0.51175  -0.50501  -0.41067  -0.35460
 Alpha virt. eigenvalues --    0.05367   0.08697   0.11986   0.12358   0.14546
 Alpha virt. eigenvalues --    0.16994   0.17797   0.29054   0.32350   0.33049
 Alpha virt. eigenvalues --    0.37313   0.39344   0.39538   0.40119   0.42979

 Mulliken charges:
               1
     1  C    0.068497
     2  O   -0.399468
     3  H    0.048856
     4  H    0.048450
     5  H    0.083328
     6  H    0.150337
 Sum of Mulliken charges =   0.00000

 Dipole moment (field-independent basis, Debye):
    X=             -0.9243    Y=             -1.3197    Z=              0.1323  Tot=              1.6166
 Quadrupole moment (field-independent basis, Debye-Ang):
   XX=            -13.0221   YY=            -12.3714   ZZ=            -13.6630
   XY=             -2.1833   XZ=              0.1741   YZ=             -0.0789

 Normal termination of Gaussian 09 at Wed Aug 26 20:52:18 2020.
