 Gaussian 09, Revision D.01,
 Gaussian 09:  ES64L-G09RevD.01 24-Apr-2013

 --------------------
 #p B2PLYPD3/Def2QZVP
 --------------------

 --------
 methanol
 --------
 Symbolic Z-matrix:
 Charge =  0 Multiplicity = 1

                         Standard orientation:
 ---------------------------------------------------------------------
 Center     Atomic      Atomic             Coordinates (Angstroms)
 Number     Number       Type             X           Y           Z
 ---------------------------------------------------------------------
      1          6           0       -0.652736    0.018233    0.006875
      2          8           0        0.740959   -0.078151   -0.032153
      3          1           0       -0.942003    0.985588   -0.609612
      4          1           0       -1.071572   -0.018844    1.074836
      5          1           0       -1.026004   -0.928089   -0.511768
      6          1           0        1.028325    0.477153    0.262517
 ---------------------------------------------------------------------

 SCF Done:  E(RB2PLYPD3) =  -115.409239468     A.U. after   10 cycles
 E2(B2PLYPD3) =    -0.1436807392D+00 E(B2PLYPD3) =    -0.11555292020770D+03

 The electronic state is 1-A.
 Alpha  occ. eigenvalues --  -19.69761 -10.68053  -1.25535  -0.81175  -0.61539
 Alpha  occ. eigenvalues --   -0.52354  -0.50478  -0.41031  -0.36016
 Alpha virt. eigenvalues --    0.05358   0.09329   0.11652   0.12087   0.14289
 Alpha virt. eigenvalues --    0.16915   0.17965   0.28386   0.32484   0.33743
 Alpha virt. eigenvalues --    0.36174   0.38426   0.39521   0.41268   0.43088

 Mulliken charges:
               1
     1  C    0.045848
     2  O   -0.231086
     3  H    0.045155
     4  H    0.051396
     5  H    0.075270
     6  H    0.013418
 Sum of Mulliken charges =   0.00000

 Dipole moment (field-independent basis, Debye):
    X=             -0.8817    Y=              1.0435    Z=              0.5873  Tot=              1.4870
 Quadrupole moment (field-independent basis, Debye-Ang):
   XX=            -13.4565   YY=            -12.6637   ZZ=            -13.2752
   XY=              1.7701   XZ=              0.7378   YZ=              0.3249

 Normal termination of Gaussian 09 at Wed Aug 26 14:50:53 2020.
