 Gaussian 09, Revision D.01,
 Gaussian 09:  ES64L-G09RevD.01 24-Apr-2013

 --------------------
 #p B2PLYPD3/Def2QZVP
 --------------------

 --------
 methanol
 --------
 Symbolic Z-matrix:
 Charge =  0 Multiplicity = 1

                         Standard orientation:
 ---------------------------------------------------------------------
 Center     Atomic      Atomic             Coordinates (Angstroms)
 Number     Number       Type             X           Y           Z
 ---------------------------------------------------------------------
      1          6           0        0.699372   -0.004405    0.017904
      2          8           0       -0.770346   -0.051401   -0.049931
      3          1           0        0.906233   -0.059451    1.126361
      4          1           0        1.216093    0.993996   -0.539726
      5          1           0        0.983275   -0.951407   -0.510195
      6          1           0       -1.139061    0.454506    0.215590
 ---------------------------------------------------------------------

 SCF Done:  E(RB2PLYPD3) =  -115.379445628     A.U. after   11 cycles
 E2(B2PLYPD3) =    -0.1446461351D+00 E(B2PLYPD3) =    -0.11552409176315D+03

 The electronic state is 1-A.
 Alpha  occ. eigenvalues --  -19.68960 -10.69297  -1.23279  -0.81428  -0.60255
 Alpha  occ. eigenvalues --   -0.51182  -0.49315  -0.40665  -0.36049
 Alpha virt. eigenvalues --    0.05247   0.08794   0.11396   0.12019   0.14027
 Alpha virt. eigenvalues --    0.16405   0.17915   0.28467   0.30270   0.32423
 Alpha virt. eigenvalues --    0.34648   0.38253   0.39337   0.40752   0.42347

 Mulliken charges:
               1
     1  C    0.049631
     2  O   -0.254290
     3  H    0.067441
     4  H    0.049333
     5  H    0.094369
     6  H   -0.006483
 Sum of Mulliken charges =   0.00000

 Dipole moment (field-independent basis, Debye):
    X=              1.0521    Y=              0.9299    Z=              0.6293  Tot=              1.5387
 Quadrupole moment (field-independent basis, Debye-Ang):
   XX=            -13.0479   YY=            -12.7121   ZZ=            -13.2847
   XY=             -1.6135   XZ=             -1.0262   YZ=              0.3631

 Normal termination of Gaussian 09 at Wed Aug 26 21:04:19 2020.
