 Gaussian 09, Revision D.01,
 Gaussian 09:  ES64L-G09RevD.01 24-Apr-2013

 --------------------
 #p B2PLYPD3/Def2QZVP
 --------------------

 --------
 methanol
 --------
 Symbolic Z-matrix:
 Charge =  0 Multiplicity = 1

                         Standard orientation:
 ---------------------------------------------------------------------
 Center     Atomic      Atomic             Coordinates (Angstroms)
 Number     Number       Type             X           Y           Z
 ---------------------------------------------------------------------
      1          6           0       -0.658136   -0.020040    0.020896
      2          8           0        0.747761   -0.171614   -0.018948
      3          1           0       -1.110223    0.618460   -0.779498
      4          1           0       -0.969779    0.472565    0.785540
      5          1           0       -1.047751   -0.771279   -0.032759
      6          1           0        1.094482    1.173412    0.052924
 ---------------------------------------------------------------------

 SCF Done:  E(RB2PLYPD3) =  -115.393133707     A.U. after   11 cycles
 E2(B2PLYPD3) =    -0.1556040559D+00 E(B2PLYPD3) =    -0.11554873776275D+03

 The electronic state is 1-A.
 Alpha  occ. eigenvalues --  -19.75551 -10.61373  -1.12281  -0.81448  -0.57588
 Alpha  occ. eigenvalues --   -0.50635  -0.49976  -0.40659  -0.34593
 Alpha virt. eigenvalues --   -0.01485   0.07434   0.12779   0.12917   0.14784
 Alpha virt. eigenvalues --    0.18034   0.18210   0.22657   0.29817   0.32907
 Alpha virt. eigenvalues --    0.34351   0.37222   0.40447   0.41526   0.45045

 Mulliken charges:
               1
     1  C    0.051491
     2  O   -0.478096
     3  H    0.024236
     4  H    0.039171
     5  H    0.118989
     6  H    0.244209
 Sum of Mulliken charges =   0.00000

 Dipole moment (field-independent basis, Debye):
    X=             -1.1527    Y=              1.6911    Z=              0.2420  Tot=              2.0609
 Quadrupole moment (field-independent basis, Debye-Ang):
   XX=            -13.4129   YY=            -11.0357   ZZ=            -14.1527
   XY=              2.3817   XZ=              0.0166   YZ=              0.2225

 Normal termination of Gaussian 09 at Wed Aug 26 23:51:22 2020.
