 Gaussian 09, Revision D.01,
 Gaussian 09:  ES64L-G09RevD.01 24-Apr-2013

 --------------------
 #p B2PLYPD3/Def2QZVP
 --------------------

 --------
 methanol
 --------
 Symbolic Z-matrix:
 Charge =  0 Multiplicity = 1

                         Standard orientation:
 ---------------------------------------------------------------------
 Center     Atomic      Atomic             Coordinates (Angstroms)
 Number     Number       Type             X           Y           Z
 ---------------------------------------------------------------------
      1          6           0        0.669249   -0.008814    0.018618
      2          8           0       -0.763977    0.081354   -0.021423
      3          1           0        1.127816   -0.746677   -0.838994
      4          1           0        1.022571   -0.373865    1.007300
      5          1           0        1.092695    1.052185   -0.184898
      6          1           0       -1.146763   -0.529588    0.076265
 ---------------------------------------------------------------------

 SCF Done:  E(RB2PLYPD3) =  -115.450043508     A.U. after   11 cycles
 E2(B2PLYPD3) =    -0.1446656453D+00 E(B2PLYPD3) =    -0.11559470915304D+03

 The electronic state is 1-A.
 Alpha  occ. eigenvalues --  -19.70241 -10.68788  -1.22431  -0.80796  -0.61365
 Alpha  occ. eigenvalues --   -0.50871  -0.49724  -0.40687  -0.35979
 Alpha virt. eigenvalues --    0.05338   0.08830   0.11720   0.12018   0.14576
 Alpha virt. eigenvalues --    0.16966   0.17901   0.28788   0.32060   0.32729
 Alpha virt. eigenvalues --    0.35917   0.37368   0.39815   0.40156   0.42055

 Mulliken charges:
               1
     1  C    0.054883
     2  O   -0.282169
     3  H    0.040016
     4  H    0.061183
     5  H    0.081621
     6  H    0.044466
 Sum of Mulliken charges =   0.00000

 Dipole moment (field-independent basis, Debye):
    X=              0.9007    Y=             -1.1791    Z=              0.3025  Tot=              1.5143
 Quadrupole moment (field-independent basis, Debye-Ang):
   XX=            -12.8245   YY=            -12.6615   ZZ=            -13.6695
   XY=              1.9881   XZ=             -0.2711   YZ=             -0.2246

 Normal termination of Gaussian 09 at Wed Aug 26 14:39:45 2020.
