 Gaussian 09, Revision D.01,
 Gaussian 09:  ES64L-G09RevD.01 24-Apr-2013

 --------------------
 #p B2PLYPD3/Def2QZVP
 --------------------

 --------
 methanol
 --------
 Symbolic Z-matrix:
 Charge =  0 Multiplicity = 1

                         Standard orientation:
 ---------------------------------------------------------------------
 Center     Atomic      Atomic             Coordinates (Angstroms)
 Number     Number       Type             X           Y           Z
 ---------------------------------------------------------------------
      1          6           0       -0.653677   -0.021318   -0.002114
      2          8           0        0.757223    0.100582   -0.008131
      3          1           0       -0.993949   -0.515404    0.960872
      4          1           0       -1.071632   -0.551439   -0.917334
      5          1           0       -1.106184    1.027108    0.010481
      6          1           0        1.036039   -0.637012    0.023718
 ---------------------------------------------------------------------

 SCF Done:  E(RB2PLYPD3) =  -115.508474574     A.U. after   10 cycles
 E2(B2PLYPD3) =    -0.1450892726D+00 E(B2PLYPD3) =    -0.11565356384611D+03

 The electronic state is 1-A.
 Alpha  occ. eigenvalues --  -19.71245 -10.67410  -1.21511  -0.79396  -0.60792
 Alpha  occ. eigenvalues --   -0.51898  -0.50092  -0.41302  -0.36060
 Alpha virt. eigenvalues --    0.05362   0.08852   0.11927   0.12177   0.14489
 Alpha virt. eigenvalues --    0.17419   0.18101   0.28635   0.32874   0.33278
 Alpha virt. eigenvalues --    0.36710   0.38686   0.39570   0.40066   0.43521

 Mulliken charges:
               1
     1  C    0.055320
     2  O   -0.332958
     3  H    0.048788
     4  H    0.051362
     5  H    0.067807
     6  H    0.109682
 Sum of Mulliken charges =   0.00000

 Dipole moment (field-independent basis, Debye):
    X=             -0.9777    Y=             -1.3426    Z=              0.0674  Tot=              1.6622
 Quadrupole moment (field-independent basis, Debye-Ang):
   XX=            -13.3446   YY=            -12.4759   ZZ=            -13.5987
   XY=             -2.0074   XZ=              0.1376   YZ=             -0.0111

 Normal termination of Gaussian 09 at Wed Aug 26 15:43:37 2020.
