 Gaussian 09, Revision D.01,
 Gaussian 09:  ES64L-G09RevD.01 24-Apr-2013

 --------------------
 #p B2PLYPD3/Def2QZVP
 --------------------

 --------
 methanol
 --------
 Symbolic Z-matrix:
 Charge =  0 Multiplicity = 1

                         Standard orientation:
 ---------------------------------------------------------------------
 Center     Atomic      Atomic             Coordinates (Angstroms)
 Number     Number       Type             X           Y           Z
 ---------------------------------------------------------------------
      1          6           0       -0.656753   -0.028497   -0.029884
      2          8           0        0.727253    0.137310    0.018473
      3          1           0       -1.140027   -0.499645    0.880641
      4          1           0       -0.925631   -0.612457   -0.775239
      5          1           0       -1.053561    0.991999   -0.066605
      6          1           0        1.241711   -0.807397   -0.007279
 ---------------------------------------------------------------------

 SCF Done:  E(RB2PLYPD3) =  -115.529168000     A.U. after   11 cycles
 E2(B2PLYPD3) =    -0.1489059693D+00 E(B2PLYPD3) =    -0.11567807396975D+03

 The electronic state is 1-A.
 Alpha  occ. eigenvalues --  -19.73335 -10.64570  -1.14879  -0.78433  -0.58726
 Alpha  occ. eigenvalues --   -0.51868  -0.49340  -0.40564  -0.34645
 Alpha virt. eigenvalues --    0.04018   0.07793   0.12243   0.12875   0.15332
 Alpha virt. eigenvalues --    0.17005   0.18192   0.29139   0.30998   0.32735
 Alpha virt. eigenvalues --    0.35069   0.38272   0.39465   0.40585   0.45522

 Mulliken charges:
               1
     1  C    0.075475
     2  O   -0.477579
     3  H    0.033934
     4  H    0.049153
     5  H    0.069939
     6  H    0.249078
 Sum of Mulliken charges =   0.00000

 Dipole moment (field-independent basis, Debye):
    X=             -0.6377    Y=             -1.5983    Z=             -0.1812  Tot=              1.7304
 Quadrupole moment (field-independent basis, Debye-Ang):
   XX=            -12.6661   YY=            -12.0741   ZZ=            -14.0535
   XY=             -2.3811   XZ=             -0.0467   YZ=              0.1773

 Normal termination of Gaussian 09 at Wed Aug 26 19:47:21 2020.
