 Gaussian 09, Revision D.01,
 Gaussian 09:  ES64L-G09RevD.01 24-Apr-2013

 --------------------
 #p B2PLYPD3/Def2QZVP
 --------------------

 --------
 methanol
 --------
 Symbolic Z-matrix:
 Charge =  0 Multiplicity = 1

                         Standard orientation:
 ---------------------------------------------------------------------
 Center     Atomic      Atomic             Coordinates (Angstroms)
 Number     Number       Type             X           Y           Z
 ---------------------------------------------------------------------
      1          6           0       -0.664880   -0.026781    0.011493
      2          8           0        0.746649    0.079637   -0.015297
      3          1           0       -1.008243   -0.398280    0.984625
      4          1           0       -1.043960   -0.689832   -0.867295
      5          1           0       -1.022995    1.121794   -0.139187
      6          1           0        1.091288   -0.510092    0.075281
 ---------------------------------------------------------------------

 SCF Done:  E(RB2PLYPD3) =  -115.403666454     A.U. after   11 cycles
 E2(B2PLYPD3) =    -0.1437916550D+00 E(B2PLYPD3) =    -0.11554745810867D+03

 The electronic state is 1-A.
 Alpha  occ. eigenvalues --  -19.69491 -10.68286  -1.24622  -0.81462  -0.61914
 Alpha  occ. eigenvalues --   -0.52130  -0.49384  -0.40514  -0.36298
 Alpha virt. eigenvalues --    0.05310   0.09317   0.11532   0.11983   0.14643
 Alpha virt. eigenvalues --    0.16686   0.17815   0.28748   0.32702   0.33131
 Alpha virt. eigenvalues --    0.35746   0.38036   0.40507   0.40853   0.42185

 Mulliken charges:
               1
     1  C    0.048675
     2  O   -0.237217
     3  H    0.061493
     4  H    0.051480
     5  H    0.070609
     6  H    0.004960
 Sum of Mulliken charges =   0.00000

 Dipole moment (field-independent basis, Debye):
    X=             -0.8722    Y=             -1.2539    Z=              0.2563  Tot=              1.5488
 Quadrupole moment (field-independent basis, Debye-Ang):
   XX=            -13.1796   YY=            -12.5207   ZZ=            -13.4665
   XY=             -1.7608   XZ=              0.2165   YZ=             -0.1344

 Normal termination of Gaussian 09 at Wed Aug 26 15:25:55 2020.
