 Gaussian 09, Revision D.01,
 Gaussian 09:  ES64L-G09RevD.01 24-Apr-2013

 --------------------
 #p B2PLYPD3/Def2QZVP
 --------------------

 --------
 methanol
 --------
 Symbolic Z-matrix:
 Charge =  0 Multiplicity = 1

                         Standard orientation:
 ---------------------------------------------------------------------
 Center     Atomic      Atomic             Coordinates (Angstroms)
 Number     Number       Type             X           Y           Z
 ---------------------------------------------------------------------
      1          6           0       -0.670890   -0.022093   -0.000599
      2          8           0        0.741209    0.131206   -0.002722
      3          1           0       -1.033259   -0.488741    0.879738
      4          1           0       -0.971146   -0.619696   -0.837921
      5          1           0       -1.082212    0.971510   -0.056715
      6          1           0        1.182279   -0.780165    0.040267
 ---------------------------------------------------------------------

 SCF Done:  E(RB2PLYPD3) =  -115.548481657     A.U. after   10 cycles
 E2(B2PLYPD3) =    -0.1478935984D+00 E(B2PLYPD3) =    -0.11569637525574D+03

 The electronic state is 1-A.
 Alpha  occ. eigenvalues --  -19.72684 -10.64818  -1.14899  -0.78743  -0.58156
 Alpha  occ. eigenvalues --   -0.52057  -0.49746  -0.40903  -0.35114
 Alpha virt. eigenvalues --    0.04630   0.08119   0.12438   0.12587   0.14953
 Alpha virt. eigenvalues --    0.17229   0.17959   0.29277   0.33192   0.33242
 Alpha virt. eigenvalues --    0.33918   0.39314   0.39631   0.41609   0.44284

 Mulliken charges:
               1
     1  C    0.078473
     2  O   -0.480465
     3  H    0.047419
     4  H    0.045696
     5  H    0.071516
     6  H    0.237361
 Sum of Mulliken charges =   0.00000

 Dipole moment (field-independent basis, Debye):
    X=             -0.8502    Y=             -1.5603    Z=              0.0826  Tot=              1.7789
 Quadrupole moment (field-independent basis, Debye-Ang):
   XX=            -12.8839   YY=            -12.1038   ZZ=            -13.8329
   XY=             -2.3436   XZ=              0.0388   YZ=             -0.0483

 Normal termination of Gaussian 09 at Wed Aug 26 10:22:48 2020.
