 Gaussian 09, Revision D.01,
 Gaussian 09:  ES64L-G09RevD.01 24-Apr-2013

 --------------------
 #p B2PLYPD3/Def2QZVP
 --------------------

 --------
 methanol
 --------
 Symbolic Z-matrix:
 Charge =  0 Multiplicity = 1

                         Standard orientation:
 ---------------------------------------------------------------------
 Center     Atomic      Atomic             Coordinates (Angstroms)
 Number     Number       Type             X           Y           Z
 ---------------------------------------------------------------------
      1          6           0       -0.658236    0.025364    0.013584
      2          8           0        0.736927   -0.147081   -0.011143
      3          1           0       -1.058463    0.581069   -0.837223
      4          1           0       -0.990233    0.491572    0.845747
      5          1           0       -1.096941   -0.926111   -0.031225
      6          1           0        1.199637    0.877930    0.030346
 ---------------------------------------------------------------------

 SCF Done:  E(RB2PLYPD3) =  -115.525849689     A.U. after   11 cycles
 E2(B2PLYPD3) =    -0.1497737422D+00 E(B2PLYPD3) =    -0.11567562343106D+03

 The electronic state is 1-A.
 Alpha  occ. eigenvalues --  -19.73790 -10.63870  -1.13996  -0.78692  -0.57142
 Alpha  occ. eigenvalues --   -0.52054  -0.49883  -0.40597  -0.35044
 Alpha virt. eigenvalues --    0.03440   0.07774   0.12662   0.12734   0.15040
 Alpha virt. eigenvalues --    0.17445   0.18282   0.28419   0.29804   0.33424
 Alpha virt. eigenvalues --    0.34658   0.39111   0.39848   0.41801   0.44358

 Mulliken charges:
               1
     1  C    0.081175
     2  O   -0.485602
     3  H    0.038483
     4  H    0.047004
     5  H    0.065418
     6  H    0.253522
 Sum of Mulliken charges =   0.00000

 Dipole moment (field-independent basis, Debye):
    X=             -0.8173    Y=              1.6275    Z=              0.1378  Tot=              1.8264
 Quadrupole moment (field-independent basis, Debye-Ang):
   XX=            -12.8109   YY=            -12.0083   ZZ=            -13.9191
   XY=              2.4496   XZ=              0.0575   YZ=              0.1144

 Normal termination of Gaussian 09 at Wed Aug 26 23:59:31 2020.
