 Gaussian 09, Revision D.01,
 Gaussian 09:  ES64L-G09RevD.01 24-Apr-2013

 --------------------
 #p B2PLYPD3/Def2QZVP
 --------------------

 --------
 methanol
 --------
 Symbolic Z-matrix:
 Charge =  0 Multiplicity = 1

                         Standard orientation:
 ---------------------------------------------------------------------
 Center     Atomic      Atomic             Coordinates (Angstroms)
 Number     Number       Type             X           Y           Z
 ---------------------------------------------------------------------
      1          6           0       -0.642308    0.013411    0.013239
      2          8           0        0.722340   -0.156442   -0.026213
      3          1           0       -1.077535    0.665588   -0.726220
      4          1           0       -0.907368    0.440707    0.768488
      5          1           0       -1.018498   -0.955130   -0.010662
      6          1           0        1.078528    1.019906    0.098665
 ---------------------------------------------------------------------

 SCF Done:  E(RB2PLYPD3) =  -115.468826901     A.U. after   11 cycles
 E2(B2PLYPD3) =    -0.1516985795D+00 E(B2PLYPD3) =    -0.11562052548092D+03

 The electronic state is 1-A.
 Alpha  occ. eigenvalues --  -19.74490 -10.62066  -1.14579  -0.79535  -0.58288
 Alpha  occ. eigenvalues --   -0.52436  -0.49480  -0.40964  -0.34669
 Alpha virt. eigenvalues --    0.01559   0.07872   0.12230   0.13115   0.15459
 Alpha virt. eigenvalues --    0.17207   0.18064   0.25327   0.29734   0.33061
 Alpha virt. eigenvalues --    0.36085   0.38866   0.39296   0.41623   0.46107

 Mulliken charges:
               1
     1  C    0.080390
     2  O   -0.468611
     3  H    0.027271
     4  H    0.054308
     5  H    0.062278
     6  H    0.244363
 Sum of Mulliken charges =   0.00000

 Dipole moment (field-independent basis, Debye):
    X=             -0.9630    Y=              1.7280    Z=              0.3515  Tot=              2.0092
 Quadrupole moment (field-independent basis, Debye-Ang):
   XX=            -13.5309   YY=            -11.2815   ZZ=            -14.0530
   XY=              2.1075   XZ=              0.1077   YZ=              0.2373

 Normal termination of Gaussian 09 at Wed Aug 26 20:45:51 2020.
