 Gaussian 09, Revision D.01,
 Gaussian 09:  ES64L-G09RevD.01 24-Apr-2013

 --------------------
 #p B2PLYPD3/Def2QZVP
 --------------------

 --------
 methanol
 --------
 Symbolic Z-matrix:
 Charge =  0 Multiplicity = 1

                         Standard orientation:
 ---------------------------------------------------------------------
 Center     Atomic      Atomic             Coordinates (Angstroms)
 Number     Number       Type             X           Y           Z
 ---------------------------------------------------------------------
      1          6           0        0.666126    0.030592   -0.007502
      2          8           0       -0.726535   -0.158369    0.014269
      3          1           0        1.015527    0.544066    0.844493
      4          1           0        0.900744    0.514311   -0.840488
      5          1           0        1.094827   -0.885699   -0.032775
      6          1           0       -1.195576    0.910727   -0.040365
 ---------------------------------------------------------------------

 SCF Done:  E(RB2PLYPD3) =  -115.510043383     A.U. after   11 cycles
 E2(B2PLYPD3) =    -0.1502264380D+00 E(B2PLYPD3) =    -0.11566026982078D+03

 The electronic state is 1-A.
 Alpha  occ. eigenvalues --  -19.73579 -10.62703  -1.13464  -0.79055  -0.56555
 Alpha  occ. eigenvalues --   -0.53288  -0.49943  -0.40341  -0.34910
 Alpha virt. eigenvalues --    0.02891   0.07914   0.12668   0.12823   0.14823
 Alpha virt. eigenvalues --    0.17487   0.18101   0.27425   0.29582   0.33164
 Alpha virt. eigenvalues --    0.34560   0.39725   0.40811   0.42605   0.44231

 Mulliken charges:
               1
     1  C    0.090141
     2  O   -0.494134
     3  H    0.043399
     4  H    0.044213
     5  H    0.064674
     6  H    0.251707
 Sum of Mulliken charges =   0.00000

 Dipole moment (field-independent basis, Debye):
    X=              0.8864    Y=              1.6516    Z=             -0.1470  Tot=              1.8802
 Quadrupole moment (field-independent basis, Debye-Ang):
   XX=            -12.9290   YY=            -11.8865   ZZ=            -13.7411
   XY=             -2.5191   XZ=              0.1294   YZ=             -0.0775

 Normal termination of Gaussian 09 at Wed Aug 26 13:58:12 2020.
