 Gaussian 09, Revision D.01,
 Gaussian 09:  ES64L-G09RevD.01 24-Apr-2013

 --------------------
 #p B2PLYPD3/Def2QZVP
 --------------------

 --------
 methanol
 --------
 Symbolic Z-matrix:
 Charge =  0 Multiplicity = 1

                         Standard orientation:
 ---------------------------------------------------------------------
 Center     Atomic      Atomic             Coordinates (Angstroms)
 Number     Number       Type             X           Y           Z
 ---------------------------------------------------------------------
      1          6           0       -0.672909    0.009099   -0.001984
      2          8           0        0.746332   -0.139403   -0.008795
      3          1           0       -1.090375    0.574803   -0.823934
      4          1           0       -1.041395    0.462875    0.883162
      5          1           0       -0.970498   -0.911872   -0.018178
      6          1           0        1.169073    0.934828    0.041216
 ---------------------------------------------------------------------

 SCF Done:  E(RB2PLYPD3) =  -115.512206408     A.U. after   11 cycles
 E2(B2PLYPD3) =    -0.1508496012D+00 E(B2PLYPD3) =    -0.11566305600891D+03

 The electronic state is 1-A.
 Alpha  occ. eigenvalues --  -19.74009 -10.63562  -1.13097  -0.79054  -0.57034
 Alpha  occ. eigenvalues --   -0.51332  -0.49437  -0.41386  -0.35032
 Alpha virt. eigenvalues --    0.03100   0.07761   0.12582   0.12752   0.15067
 Alpha virt. eigenvalues --    0.16941   0.18390   0.27742   0.29672   0.33546
 Alpha virt. eigenvalues --    0.34057   0.38287   0.40316   0.41252   0.43891

 Mulliken charges:
               1
     1  C    0.072922
     2  O   -0.489300
     3  H    0.044469
     4  H    0.044310
     5  H    0.077345
     6  H    0.250255
 Sum of Mulliken charges =   0.00000

 Dipole moment (field-independent basis, Debye):
    X=             -0.9549    Y=              1.5904    Z=              0.1012  Tot=              1.8578
 Quadrupole moment (field-independent basis, Debye-Ang):
   XX=            -13.0703   YY=            -11.7462   ZZ=            -13.9274
   XY=              2.3258   XZ=              0.1086   YZ=              0.0458

 Normal termination of Gaussian 09 at Wed Aug 26 13:08:15 2020.
