 Gaussian 09, Revision D.01,
 Gaussian 09:  ES64L-G09RevD.01 24-Apr-2013

 --------------------
 #p B2PLYPD3/Def2QZVP
 --------------------

 --------
 methanol
 --------
 Symbolic Z-matrix:
 Charge =  0 Multiplicity = 1

                         Standard orientation:
 ---------------------------------------------------------------------
 Center     Atomic      Atomic             Coordinates (Angstroms)
 Number     Number       Type             X           Y           Z
 ---------------------------------------------------------------------
      1          6           0       -0.676164   -0.023142    0.023562
      2          8           0        0.761863    0.094635   -0.028094
      3          1           0       -0.981251   -0.378375    1.003003
      4          1           0       -1.121893   -0.679274   -0.880850
      5          1           0       -1.104219    1.019460   -0.135529
      6          1           0        1.169443   -0.580039    0.096751
 ---------------------------------------------------------------------

 SCF Done:  E(RB2PLYPD3) =  -115.508235763     A.U. after   10 cycles
 E2(B2PLYPD3) =    -0.1454688916D+00 E(B2PLYPD3) =    -0.11565370465439D+03

 The electronic state is 1-A.
 Alpha  occ. eigenvalues --  -19.70867 -10.67923  -1.19543  -0.79936  -0.60223
 Alpha  occ. eigenvalues --   -0.51459  -0.49480  -0.40404  -0.35933
 Alpha virt. eigenvalues --    0.05406   0.08560   0.11834   0.12214   0.14338
 Alpha virt. eigenvalues --    0.17027   0.18253   0.28764   0.31971   0.33001
 Alpha virt. eigenvalues --    0.36115   0.38231   0.39558   0.40492   0.42828

 Mulliken charges:
               1
     1  C    0.059290
     2  O   -0.363845
     3  H    0.064172
     4  H    0.046709
     5  H    0.075666
     6  H    0.118008
 Sum of Mulliken charges =   0.00000

 Dipole moment (field-independent basis, Debye):
    X=             -0.8965    Y=             -1.2499    Z=              0.3496  Tot=              1.5774
 Quadrupole moment (field-independent basis, Debye-Ang):
   XX=            -12.7885   YY=            -12.7512   ZZ=            -13.5380
   XY=             -2.1255   XZ=              0.3690   YZ=             -0.2206

 Normal termination of Gaussian 09 at Wed Aug 26 11:35:03 2020.
