 Gaussian 09, Revision D.01,
 Gaussian 09:  ES64L-G09RevD.01 24-Apr-2013

 --------------------
 #p B2PLYPD3/Def2QZVP
 --------------------

 --------
 methanol
 --------
 Symbolic Z-matrix:
 Charge =  0 Multiplicity = 1

                         Standard orientation:
 ---------------------------------------------------------------------
 Center     Atomic      Atomic             Coordinates (Angstroms)
 Number     Number       Type             X           Y           Z
 ---------------------------------------------------------------------
      1          6           0        0.666393    0.036413   -0.008941
      2          8           0       -0.734285   -0.144099    0.007764
      3          1           0        1.028832    0.528550    0.855084
      4          1           0        1.002333    0.505128   -0.828756
      5          1           0        1.043324   -0.964034   -0.004187
      6          1           0       -1.198571    0.864668   -0.030600
 ---------------------------------------------------------------------

 SCF Done:  E(RB2PLYPD3) =  -115.527882012     A.U. after   11 cycles
 E2(B2PLYPD3) =    -0.1495349228D+00 E(B2PLYPD3) =    -0.11567741693482D+03

 The electronic state is 1-A.
 Alpha  occ. eigenvalues --  -19.73491 -10.63661  -1.13876  -0.78812  -0.57330
 Alpha  occ. eigenvalues --   -0.52831  -0.49118  -0.40561  -0.35250
 Alpha virt. eigenvalues --    0.03715   0.07911   0.12489   0.12731   0.15100
 Alpha virt. eigenvalues --    0.17088   0.18323   0.28780   0.30151   0.33609
 Alpha virt. eigenvalues --    0.34495   0.38741   0.39642   0.42590   0.44887

 Mulliken charges:
               1
     1  C    0.079678
     2  O   -0.487219
     3  H    0.046869
     4  H    0.049004
     5  H    0.063886
     6  H    0.247782
 Sum of Mulliken charges =   0.00000

 Dipole moment (field-independent basis, Debye):
    X=              0.8487    Y=              1.6395    Z=             -0.1082  Tot=              1.8493
 Quadrupole moment (field-independent basis, Debye-Ang):
   XX=            -12.8896   YY=            -11.9922   ZZ=            -13.8004
   XY=             -2.3274   XZ=              0.0422   YZ=             -0.0805

 Normal termination of Gaussian 09 at Wed Aug 26 14:26:39 2020.
