 Gaussian 09, Revision D.01,
 Gaussian 09:  ES64L-G09RevD.01 24-Apr-2013

 --------------------
 #p B2PLYPD3/Def2QZVP
 --------------------

 --------
 methanol
 --------
 Symbolic Z-matrix:
 Charge =  0 Multiplicity = 1

                         Standard orientation:
 ---------------------------------------------------------------------
 Center     Atomic      Atomic             Coordinates (Angstroms)
 Number     Number       Type             X           Y           Z
 ---------------------------------------------------------------------
      1          6           0        0.683221   -0.004881    0.005341
      2          8           0       -0.761252    0.078749   -0.011977
      3          1           0        0.998147   -0.890934   -0.701268
      4          1           0        0.953180   -0.247382    1.021216
      5          1           0        1.015530    1.079216   -0.310461
      6          1           0       -0.976162   -0.541611    0.054278
 ---------------------------------------------------------------------

 SCF Done:  E(RB2PLYPD3) =  -115.354765821     A.U. after   11 cycles
 E2(B2PLYPD3) =    -0.1437989937D+00 E(B2PLYPD3) =    -0.11549856481477D+03

 The electronic state is 1-A.
 Alpha  occ. eigenvalues --  -19.68925 -10.68065  -1.25881  -0.80862  -0.61526
 Alpha  occ. eigenvalues --   -0.51952  -0.49309  -0.42596  -0.36178
 Alpha virt. eigenvalues --    0.05211   0.09424   0.11281   0.11976   0.14735
 Alpha virt. eigenvalues --    0.16402   0.17361   0.28678   0.31044   0.32614
 Alpha virt. eigenvalues --    0.36612   0.37050   0.40380   0.41410   0.43233

 Mulliken charges:
               1
     1  C    0.064554
     2  O   -0.238394
     3  H    0.042173
     4  H    0.062865
     5  H    0.081172
     6  H   -0.012369
 Sum of Mulliken charges =   0.00000

 Dipole moment (field-independent basis, Debye):
    X=              1.1992    Y=             -1.2421    Z=              0.2118  Tot=              1.7395
 Quadrupole moment (field-independent basis, Debye-Ang):
   XX=            -13.7700   YY=            -12.0205   ZZ=            -13.5006
   XY=              1.7199   XZ=             -0.1517   YZ=             -0.1549

 Normal termination of Gaussian 09 at Wed Aug 26 18:50:59 2020.
