 Gaussian 09, Revision D.01,
 Gaussian 09:  ES64L-G09RevD.01 24-Apr-2013

 --------------------
 #p B2PLYPD3/Def2QZVP
 --------------------

 --------
 methanol
 --------
 Symbolic Z-matrix:
 Charge =  0 Multiplicity = 1

                         Standard orientation:
 ---------------------------------------------------------------------
 Center     Atomic      Atomic             Coordinates (Angstroms)
 Number     Number       Type             X           Y           Z
 ---------------------------------------------------------------------
      1          6           0        0.666195   -0.017893    0.002976
      2          8           0       -0.749987    0.098778   -0.003198
      3          1           0        1.015019   -0.611049   -0.911059
      4          1           0        1.070013   -0.485234    0.946260
      5          1           0        1.066522    1.028529   -0.067896
      6          1           0       -1.148831   -0.615114    0.040423
 ---------------------------------------------------------------------

 SCF Done:  E(RB2PLYPD3) =  -115.525019874     A.U. after   10 cycles
 E2(B2PLYPD3) =    -0.1452889630D+00 E(B2PLYPD3) =    -0.11567030883684D+03

 The electronic state is 1-A.
 Alpha  occ. eigenvalues --  -19.71106 -10.67293  -1.19529  -0.79757  -0.60374
 Alpha  occ. eigenvalues --   -0.51363  -0.50084  -0.40706  -0.35678
 Alpha virt. eigenvalues --    0.05400   0.08685   0.12086   0.12232   0.14671
 Alpha virt. eigenvalues --    0.16995   0.18040   0.28957   0.32889   0.33396
 Alpha virt. eigenvalues --    0.37171   0.39071   0.39622   0.39790   0.42625

 Mulliken charges:
               1
     1  C    0.060108
     2  O   -0.375546
     3  H    0.047998
     4  H    0.051896
     5  H    0.076171
     6  H    0.139373
 Sum of Mulliken charges =   0.00000

 Dipole moment (field-independent basis, Debye):
    X=              0.8303    Y=             -1.3237    Z=              0.0953  Tot=              1.5654
 Quadrupole moment (field-independent basis, Debye-Ang):
   XX=            -12.9113   YY=            -12.5161   ZZ=            -13.6786
   XY=              2.1186   XZ=             -0.0565   YZ=             -0.0709

 Normal termination of Gaussian 09 at Wed Aug 26 22:57:58 2020.
