 Gaussian 09, Revision D.01,
 Gaussian 09:  ES64L-G09RevD.01 24-Apr-2013

 --------------------
 #p B2PLYPD3/Def2QZVP
 --------------------

 --------
 methanol
 --------
 Symbolic Z-matrix:
 Charge =  0 Multiplicity = 1

                         Standard orientation:
 ---------------------------------------------------------------------
 Center     Atomic      Atomic             Coordinates (Angstroms)
 Number     Number       Type             X           Y           Z
 ---------------------------------------------------------------------
      1          6           0        0.668402   -0.012141   -0.001313
      2          8           0       -0.749066    0.100850   -0.000452
      3          1           0        1.043665   -0.536517   -0.933403
      4          1           0        1.031324   -0.546687    0.935698
      5          1           0        1.028922    1.008303    0.010245
      6          1           0       -1.121796   -0.659057   -0.001041
 ---------------------------------------------------------------------

 SCF Done:  E(RB2PLYPD3) =  -115.536435651     A.U. after   10 cycles
 E2(B2PLYPD3) =    -0.1456111299D+00 E(B2PLYPD3) =    -0.11568204678141D+03

 The electronic state is 1-A.
 Alpha  occ. eigenvalues --  -19.71363 -10.66740  -1.18788  -0.79523  -0.59846
 Alpha  occ. eigenvalues --   -0.51368  -0.50344  -0.41172  -0.35547
 Alpha virt. eigenvalues --    0.05352   0.08668   0.12049   0.12380   0.14683
 Alpha virt. eigenvalues --    0.16967   0.18042   0.28977   0.33113   0.33207
 Alpha virt. eigenvalues --    0.37115   0.39271   0.39755   0.40128   0.43163

 Mulliken charges:
               1
     1  C    0.062102
     2  O   -0.399225
     3  H    0.048875
     4  H    0.047330
     5  H    0.078463
     6  H    0.162455
 Sum of Mulliken charges =   0.00000

 Dipole moment (field-independent basis, Debye):
    X=              0.8736    Y=             -1.3431    Z=             -0.0043  Tot=              1.6022
 Quadrupole moment (field-independent basis, Debye-Ang):
   XX=            -13.1029   YY=            -12.3750   ZZ=            -13.6590
   XY=              2.1369   XZ=             -0.0134   YZ=              0.0120

 Normal termination of Gaussian 09 at Thu Aug 27 00:01:13 2020.
