 Gaussian 09, Revision D.01,
 Gaussian 09:  ES64L-G09RevD.01 24-Apr-2013

 --------------------
 #p B2PLYPD3/Def2QZVP
 --------------------

 --------
 methanol
 --------
 Symbolic Z-matrix:
 Charge =  0 Multiplicity = 1

                         Standard orientation:
 ---------------------------------------------------------------------
 Center     Atomic      Atomic             Coordinates (Angstroms)
 Number     Number       Type             X           Y           Z
 ---------------------------------------------------------------------
      1          6           0        0.649975    0.019962   -0.010298
      2          8           0       -0.737864   -0.142153    0.002801
      3          1           0        1.069647    0.533454    0.840475
      4          1           0        0.975974    0.586152   -0.816768
      5          1           0        1.118029   -0.955930   -0.011842
      6          1           0       -1.160586    0.853779    0.027518
 ---------------------------------------------------------------------

 SCF Done:  E(RB2PLYPD3) =  -115.536170913     A.U. after   11 cycles
 E2(B2PLYPD3) =    -0.1490374503D+00 E(B2PLYPD3) =    -0.11568520836362D+03

 The electronic state is 1-A.
 Alpha  occ. eigenvalues --  -19.73661 -10.64414  -1.14970  -0.78388  -0.58003
 Alpha  occ. eigenvalues --   -0.51894  -0.49831  -0.40899  -0.34937
 Alpha virt. eigenvalues --    0.03865   0.07859   0.12463   0.12800   0.15141
 Alpha virt. eigenvalues --    0.17575   0.18104   0.29090   0.30532   0.33275
 Alpha virt. eigenvalues --    0.34944   0.38905   0.39666   0.41650   0.44317

 Mulliken charges:
               1
     1  C    0.080088
     2  O   -0.474484
     3  H    0.036329
     4  H    0.042332
     5  H    0.065254
     6  H    0.250481
 Sum of Mulliken charges =   0.00000

 Dipole moment (field-independent basis, Debye):
    X=              0.8052    Y=              1.6429    Z=              0.0085  Tot=              1.8296
 Quadrupole moment (field-independent basis, Debye-Ang):
   XX=            -12.9432   YY=            -11.9657   ZZ=            -14.0315
   XY=             -2.3576   XZ=             -0.0174   YZ=             -0.0295

 Normal termination of Gaussian 09 at Wed Aug 26 14:54:25 2020.
