 Gaussian 09, Revision D.01,
 Gaussian 09:  ES64L-G09RevD.01 24-Apr-2013

 --------------------
 #p B2PLYPD3/Def2QZVP
 --------------------

 --------
 methanol
 --------
 Symbolic Z-matrix:
 Charge =  0 Multiplicity = 1

                         Standard orientation:
 ---------------------------------------------------------------------
 Center     Atomic      Atomic             Coordinates (Angstroms)
 Number     Number       Type             X           Y           Z
 ---------------------------------------------------------------------
      1          6           0        0.660605   -0.005618   -0.002037
      2          8           0       -0.751947    0.093371    0.000446
      3          1           0        1.080155   -0.576422   -0.906647
      4          1           0        1.054339   -0.538851    0.946249
      5          1           0        1.031227    1.036109   -0.019609
      6          1           0       -1.113773   -0.634099   -0.011341
 ---------------------------------------------------------------------

 SCF Done:  E(RB2PLYPD3) =  -115.521304597     A.U. after   10 cycles
 E2(B2PLYPD3) =    -0.1452958699D+00 E(B2PLYPD3) =    -0.11566660046663D+03

 The electronic state is 1-A.
 Alpha  occ. eigenvalues --  -19.71297 -10.67422  -1.20151  -0.79686  -0.60621
 Alpha  occ. eigenvalues --   -0.50831  -0.50394  -0.41332  -0.35540
 Alpha virt. eigenvalues --    0.05359   0.08698   0.12047   0.12190   0.14879
 Alpha virt. eigenvalues --    0.16967   0.17952   0.28941   0.32938   0.33443
 Alpha virt. eigenvalues --    0.37020   0.39003   0.39422   0.39822   0.42432

 Mulliken charges:
               1
     1  C    0.057707
     2  O   -0.361243
     3  H    0.045198
     4  H    0.044536
     5  H    0.079618
     6  H    0.134184
 Sum of Mulliken charges =   0.00000

 Dipole moment (field-independent basis, Debye):
    X=              0.8413    Y=             -1.3096    Z=             -0.0346  Tot=              1.5569
 Quadrupole moment (field-independent basis, Debye-Ang):
   XX=            -13.0812   YY=            -12.3805   ZZ=            -13.7919
   XY=              2.0548   XZ=             -0.0119   YZ=              0.0223

 Normal termination of Gaussian 09 at Wed Aug 26 16:17:30 2020.
