 Gaussian 09, Revision D.01,
 Gaussian 09:  ES64L-G09RevD.01 24-Apr-2013

 --------------------
 #p B2PLYPD3/Def2QZVP
 --------------------

 --------
 methanol
 --------
 Symbolic Z-matrix:
 Charge =  0 Multiplicity = 1

                         Standard orientation:
 ---------------------------------------------------------------------
 Center     Atomic      Atomic             Coordinates (Angstroms)
 Number     Number       Type             X           Y           Z
 ---------------------------------------------------------------------
      1          6           0        0.653479   -0.022704    0.021951
      2          8           0       -0.761255    0.080346   -0.003373
      3          1           0        1.010639   -0.660778   -0.929093
      4          1           0        0.962385   -0.558348    0.940786
      5          1           0        1.219155    1.120549   -0.085687
      6          1           0       -1.023019   -0.407967   -0.030727
 ---------------------------------------------------------------------

 SCF Done:  E(RB2PLYPD3) =  -115.047489660     A.U. after   11 cycles
 E2(B2PLYPD3) =    -0.1432092530D+00 E(B2PLYPD3) =    -0.11519069891331D+03

 The electronic state is 1-A.
 Alpha  occ. eigenvalues --  -19.68809 -10.69864  -1.31794  -0.82981  -0.63184
 Alpha  occ. eigenvalues --   -0.52141  -0.49781  -0.40749  -0.36741
 Alpha virt. eigenvalues --    0.04945   0.09650   0.11033   0.11763   0.14375
 Alpha virt. eigenvalues --    0.17105   0.17424   0.27982   0.32211   0.32524
 Alpha virt. eigenvalues --    0.32689   0.36886   0.39874   0.40636   0.43810

 Mulliken charges:
               1
     1  C    0.060171
     2  O   -0.113880
     3  H    0.039894
     4  H    0.064717
     5  H    0.071193
     6  H   -0.122095
 Sum of Mulliken charges =   0.00000

 Dipole moment (field-independent basis, Debye):
    X=              1.0702    Y=             -1.1745    Z=              0.0179  Tot=              1.5890
 Quadrupole moment (field-independent basis, Debye-Ang):
   XX=            -13.2043   YY=            -12.5341   ZZ=            -13.4799
   XY=              1.8104   XZ=              0.0948   YZ=             -0.0962

 Normal termination of Gaussian 09 at Wed Aug 26 23:52:12 2020.
