 Gaussian 09, Revision D.01,
 Gaussian 09:  ES64L-G09RevD.01 24-Apr-2013

 --------------------
 #p B2PLYPD3/Def2QZVP
 --------------------

 --------
 methanol
 --------
 Symbolic Z-matrix:
 Charge =  0 Multiplicity = 1

                         Standard orientation:
 ---------------------------------------------------------------------
 Center     Atomic      Atomic             Coordinates (Angstroms)
 Number     Number       Type             X           Y           Z
 ---------------------------------------------------------------------
      1          6           0        0.670832   -0.022731   -0.004063
      2          8           0       -0.749374    0.098851    0.004465
      3          1           0        1.034672   -0.564009   -0.875661
      4          1           0        1.101233   -0.498226    0.902203
      5          1           0        0.955986    1.094315   -0.041821
      6          1           0       -1.121887   -0.686504    0.003932
 ---------------------------------------------------------------------

 SCF Done:  E(RB2PLYPD3) =  -115.539687189     A.U. after   10 cycles
 E2(B2PLYPD3) =    -0.1462189772D+00 E(B2PLYPD3) =    -0.11568590616590D+03

 The electronic state is 1-A.
 Alpha  occ. eigenvalues --  -19.71692 -10.66634  -1.18145  -0.79071  -0.60271
 Alpha  occ. eigenvalues --   -0.51642  -0.48723  -0.41177  -0.35763
 Alpha virt. eigenvalues --    0.05248   0.08568   0.11789   0.12382   0.15141
 Alpha virt. eigenvalues --    0.16659   0.18084   0.29030   0.33013   0.33574
 Alpha virt. eigenvalues --    0.37040   0.38478   0.39909   0.40490   0.42228

 Mulliken charges:
               1
     1  C    0.055775
     2  O   -0.409683
     3  H    0.055055
     4  H    0.053897
     5  H    0.069194
     6  H    0.175762
 Sum of Mulliken charges =   0.00000

 Dipole moment (field-independent basis, Debye):
    X=              0.8586    Y=             -1.4625    Z=             -0.0230  Tot=              1.6961
 Quadrupole moment (field-independent basis, Debye-Ang):
   XX=            -13.1639   YY=            -12.2207   ZZ=            -13.7692
   XY=              1.8922   XZ=              0.0338   YZ=              0.0183

 Normal termination of Gaussian 09 at Wed Aug 26 12:12:07 2020.
