 Gaussian 09, Revision D.01,
 Gaussian 09:  ES64L-G09RevD.01 24-Apr-2013

 --------------------
 #p B2PLYPD3/Def2QZVP
 --------------------

 --------
 methanol
 --------
 Symbolic Z-matrix:
 Charge =  0 Multiplicity = 1

                         Standard orientation:
 ---------------------------------------------------------------------
 Center     Atomic      Atomic             Coordinates (Angstroms)
 Number     Number       Type             X           Y           Z
 ---------------------------------------------------------------------
      1          6           0        0.659563    0.026173   -0.000385
      2          8           0       -0.754986   -0.136574   -0.008778
      3          1           0        1.066273    0.440182    0.874990
      4          1           0        0.987196    0.609739   -0.844493
      5          1           0        1.125105   -0.956750   -0.047146
      6          1           0       -1.096066    0.842384    0.089185
 ---------------------------------------------------------------------

 SCF Done:  E(RB2PLYPD3) =  -115.542837089     A.U. after   10 cycles
 E2(B2PLYPD3) =    -0.1488676447D+00 E(B2PLYPD3) =    -0.11569170473382D+03

 The electronic state is 1-A.
 Alpha  occ. eigenvalues --  -19.73513 -10.64882  -1.14893  -0.78553  -0.57559
 Alpha  occ. eigenvalues --   -0.52344  -0.49308  -0.41154  -0.35514
 Alpha virt. eigenvalues --    0.04335   0.07951   0.12418   0.12531   0.14786
 Alpha virt. eigenvalues --    0.17645   0.18329   0.29012   0.31421   0.33383
 Alpha virt. eigenvalues --    0.34216   0.38585   0.39998   0.41618   0.44169

 Mulliken charges:
               1
     1  C    0.074437
     2  O   -0.472195
     3  H    0.047127
     4  H    0.046749
     5  H    0.061353
     6  H    0.242529
 Sum of Mulliken charges =   0.00000

 Dipole moment (field-independent basis, Debye):
    X=              0.9910    Y=              1.6022    Z=              0.1903  Tot=              1.8935
 Quadrupole moment (field-independent basis, Debye-Ang):
   XX=            -13.2045   YY=            -12.0725   ZZ=            -13.8304
   XY=             -2.2514   XZ=             -0.0943   YZ=              0.0959

 Normal termination of Gaussian 09 at Wed Aug 26 13:20:04 2020.
