 Gaussian 09, Revision D.01,
 Gaussian 09:  ES64L-G09RevD.01 24-Apr-2013

 --------------------
 #p B2PLYPD3/Def2QZVP
 --------------------

 --------
 methanol
 --------
 Symbolic Z-matrix:
 Charge =  0 Multiplicity = 1

                         Standard orientation:
 ---------------------------------------------------------------------
 Center     Atomic      Atomic             Coordinates (Angstroms)
 Number     Number       Type             X           Y           Z
 ---------------------------------------------------------------------
      1          6           0       -0.666314   -0.027925    0.007229
      2          8           0        0.750838    0.136097   -0.010891
      3          1           0       -1.025396   -0.458086    0.869022
      4          1           0       -1.048131   -0.582836   -0.843737
      5          1           0       -1.080262    0.964746   -0.035916
      6          1           0        1.144972   -0.845053    0.054380
 ---------------------------------------------------------------------

 SCF Done:  E(RB2PLYPD3) =  -115.540204729     A.U. after   11 cycles
 E2(B2PLYPD3) =    -0.1490485229D+00 E(B2PLYPD3) =    -0.11568925325184D+03

 The electronic state is 1-A.
 Alpha  occ. eigenvalues --  -19.73460 -10.64558  -1.14299  -0.78727  -0.57463
 Alpha  occ. eigenvalues --   -0.52154  -0.49237  -0.41080  -0.35454
 Alpha virt. eigenvalues --    0.04230   0.07916   0.12466   0.12575   0.14938
 Alpha virt. eigenvalues --    0.17337   0.18331   0.28987   0.31367   0.33594
 Alpha virt. eigenvalues --    0.33919   0.38684   0.39802   0.41747   0.44400

 Mulliken charges:
               1
     1  C    0.075730
     2  O   -0.480707
     3  H    0.050624
     4  H    0.046047
     5  H    0.064041
     6  H    0.244264
 Sum of Mulliken charges =   0.00000

 Dipole moment (field-independent basis, Debye):
    X=             -0.9416    Y=             -1.6036    Z=              0.1585  Tot=              1.8663
 Quadrupole moment (field-independent basis, Debye-Ang):
   XX=            -13.0383   YY=            -12.0515   ZZ=            -13.8275
   XY=             -2.2809   XZ=              0.0934   YZ=             -0.0987

 Normal termination of Gaussian 09 at Thu Aug 27 00:09:15 2020.
