 Gaussian 09, Revision D.01,
 Gaussian 09:  ES64L-G09RevD.01 24-Apr-2013

 --------------------
 #p B2PLYPD3/Def2QZVP
 --------------------

 --------
 methanol
 --------
 Symbolic Z-matrix:
 Charge =  0 Multiplicity = 1

                         Standard orientation:
 ---------------------------------------------------------------------
 Center     Atomic      Atomic             Coordinates (Angstroms)
 Number     Number       Type             X           Y           Z
 ---------------------------------------------------------------------
      1          6           0       -0.672842    0.004437    0.013560
      2          8           0        0.750156   -0.101086   -0.030513
      3          1           0       -0.972056    0.914704   -0.701743
      4          1           0       -0.990411    0.206131    1.012093
      5          1           0       -1.119074   -0.937377   -0.323300
      6          1           0        1.117347    0.598611    0.175696
 ---------------------------------------------------------------------

 SCF Done:  E(RB2PLYPD3) =  -115.520673751     A.U. after   11 cycles
 E2(B2PLYPD3) =    -0.1451511580D+00 E(B2PLYPD3) =    -0.11566582490943D+03

 The electronic state is 1-A.
 Alpha  occ. eigenvalues --  -19.70851 -10.66968  -1.19455  -0.79976  -0.60195
 Alpha  occ. eigenvalues --   -0.51451  -0.50844  -0.41009  -0.35404
 Alpha virt. eigenvalues --    0.05318   0.08823   0.11865   0.12412   0.14511
 Alpha virt. eigenvalues --    0.17199   0.17699   0.29027   0.32217   0.32957
 Alpha virt. eigenvalues --    0.36649   0.38841   0.39911   0.41110   0.43588

 Mulliken charges:
               1
     1  C    0.070807
     2  O   -0.379819
     3  H    0.033813
     4  H    0.056250
     5  H    0.081722
     6  H    0.137227
 Sum of Mulliken charges =   0.00000

 Dipole moment (field-independent basis, Debye):
    X=             -0.9277    Y=              1.2308    Z=              0.4834  Tot=              1.6153
 Quadrupole moment (field-independent basis, Debye-Ang):
   XX=            -13.0850   YY=            -12.4757   ZZ=            -13.5777
   XY=              2.2053   XZ=              0.4765   YZ=              0.3334

 Normal termination of Gaussian 09 at Wed Aug 26 16:02:45 2020.
