 Gaussian 09, Revision D.01,
 Gaussian 09:  ES64L-G09RevD.01 24-Apr-2013

 --------------------
 #p B2PLYPD3/Def2QZVP
 --------------------

 --------
 methanol
 --------
 Symbolic Z-matrix:
 Charge =  0 Multiplicity = 1

                         Standard orientation:
 ---------------------------------------------------------------------
 Center     Atomic      Atomic             Coordinates (Angstroms)
 Number     Number       Type             X           Y           Z
 ---------------------------------------------------------------------
      1          6           0       -0.672949    0.028784    0.005547
      2          8           0        0.747994   -0.165901   -0.010280
      3          1           0       -1.103563    0.541682   -0.799183
      4          1           0       -1.005969    0.517708    0.799708
      5          1           0       -1.098910   -0.892592    0.023161
      6          1           0        1.262186    0.987705    0.025271
 ---------------------------------------------------------------------

 SCF Done:  E(RB2PLYPD3) =  -115.485960354     A.U. after   11 cycles
 E2(B2PLYPD3) =    -0.1528548212D+00 E(B2PLYPD3) =    -0.11563881517522D+03

 The electronic state is 1-A.
 Alpha  occ. eigenvalues --  -19.74724 -10.62906  -1.11797  -0.79632  -0.55553
 Alpha  occ. eigenvalues --   -0.51761  -0.49165  -0.40439  -0.35186
 Alpha virt. eigenvalues --    0.01354   0.07444   0.12629   0.13017   0.14966
 Alpha virt. eigenvalues --    0.17412   0.18412   0.24796   0.29515   0.33508
 Alpha virt. eigenvalues --    0.34028   0.39107   0.39488   0.42128   0.44210

 Mulliken charges:
               1
     1  C    0.093566
     2  O   -0.497398
     3  H    0.043012
     4  H    0.045174
     5  H    0.063760
     6  H    0.251886
 Sum of Mulliken charges =   0.00000

 Dipole moment (field-independent basis, Debye):
    X=             -0.9432    Y=              1.7094    Z=              0.1105  Tot=              1.9555
 Quadrupole moment (field-independent basis, Debye-Ang):
   XX=            -12.5842   YY=            -11.7622   ZZ=            -14.0606
   XY=              2.5191   XZ=              0.0674   YZ=              0.0627

 Normal termination of Gaussian 09 at Wed Aug 26 16:19:25 2020.
