 Gaussian 09, Revision D.01,
 Gaussian 09:  ES64L-G09RevD.01 24-Apr-2013

 --------------------
 #p B2PLYPD3/Def2QZVP
 --------------------

 --------
 methanol
 --------
 Symbolic Z-matrix:
 Charge =  0 Multiplicity = 1

                         Standard orientation:
 ---------------------------------------------------------------------
 Center     Atomic      Atomic             Coordinates (Angstroms)
 Number     Number       Type             X           Y           Z
 ---------------------------------------------------------------------
      1          6           0        0.662280    0.022322   -0.022286
      2          8           0       -0.722451   -0.162550    0.021354
      3          1           0        1.021644    0.616910    0.812983
      4          1           0        0.912961    0.494995   -0.788974
      5          1           0        1.080508   -0.892858    0.012135
      6          1           0       -1.209189    0.947423   -0.073262
 ---------------------------------------------------------------------

 SCF Done:  E(RB2PLYPD3) =  -115.486750241     A.U. after   11 cycles
 E2(B2PLYPD3) =    -0.1510520061D+00 E(B2PLYPD3) =    -0.11563780224715D+03

 The electronic state is 1-A.
 Alpha  occ. eigenvalues --  -19.73940 -10.62282  -1.13404  -0.79392  -0.57392
 Alpha  occ. eigenvalues --   -0.52380  -0.49909  -0.40583  -0.34620
 Alpha virt. eigenvalues --    0.02091   0.07829   0.12659   0.12904   0.15095
 Alpha virt. eigenvalues --    0.17479   0.17936   0.26087   0.29680   0.33051
 Alpha virt. eigenvalues --    0.35045   0.39190   0.40396   0.41823   0.45603

 Mulliken charges:
               1
     1  C    0.091142
     2  O   -0.491159
     3  H    0.034481
     4  H    0.047202
     5  H    0.067424
     6  H    0.250910
 Sum of Mulliken charges =   0.00000

 Dipole moment (field-independent basis, Debye):
    X=              0.8579    Y=              1.6772    Z=             -0.2710  Tot=              1.9032
 Quadrupole moment (field-independent basis, Debye-Ang):
   XX=            -12.9120   YY=            -11.6816   ZZ=            -13.9080
   XY=             -2.5090   XZ=              0.1107   YZ=             -0.2091

 Normal termination of Gaussian 09 at Wed Aug 26 13:09:36 2020.
