 Gaussian 09, Revision D.01,
 Gaussian 09:  ES64L-G09RevD.01 24-Apr-2013

 --------------------
 #p B2PLYPD3/Def2QZVP
 --------------------

 --------
 methanol
 --------
 Symbolic Z-matrix:
 Charge =  0 Multiplicity = 1

                         Standard orientation:
 ---------------------------------------------------------------------
 Center     Atomic      Atomic             Coordinates (Angstroms)
 Number     Number       Type             X           Y           Z
 ---------------------------------------------------------------------
      1          6           0        0.665856   -0.004518    0.028549
      2          8           0       -0.735593   -0.143549   -0.033727
      3          1           0        1.073683    0.339016    0.852871
      4          1           0        1.041981    0.782645   -0.798646
      5          1           0        1.034931   -0.844240   -0.148183
      6          1           0       -1.260985    0.898078    0.192477
 ---------------------------------------------------------------------

 SCF Done:  E(RB2PLYPD3) =  -115.482018408     A.U. after   11 cycles
 E2(B2PLYPD3) =    -0.1511754970D+00 E(B2PLYPD3) =    -0.11563319390459D+03

 The electronic state is 1-A.
 Alpha  occ. eigenvalues --  -19.74239 -10.63524  -1.13235  -0.79756  -0.57316
 Alpha  occ. eigenvalues --   -0.51235  -0.50033  -0.40859  -0.34308
 Alpha virt. eigenvalues --    0.02426   0.07570   0.12500   0.12900   0.15065
 Alpha virt. eigenvalues --    0.17312   0.18394   0.26662   0.29575   0.32523
 Alpha virt. eigenvalues --    0.34875   0.36838   0.40263   0.40993   0.45271

 Mulliken charges:
               1
     1  C    0.078091
     2  O   -0.486710
     3  H    0.048062
     4  H    0.019156
     5  H    0.080970
     6  H    0.260431
 Sum of Mulliken charges =   0.00000

 Dipole moment (field-independent basis, Debye):
    X=              0.7188    Y=              1.4692    Z=              0.5534  Tot=              1.7267
 Quadrupole moment (field-independent basis, Debye-Ang):
   XX=            -12.5971   YY=            -12.0096   ZZ=            -14.0013
   XY=             -2.6700   XZ=             -0.2160   YZ=              0.4594

 Normal termination of Gaussian 09 at Wed Aug 26 21:58:18 2020.
