 Gaussian 09, Revision D.01,
 Gaussian 09:  ES64L-G09RevD.01 24-Apr-2013

 --------------------
 #p B2PLYPD3/Def2QZVP
 --------------------

 --------
 methanol
 --------
 Symbolic Z-matrix:
 Charge =  0 Multiplicity = 1

                         Standard orientation:
 ---------------------------------------------------------------------
 Center     Atomic      Atomic             Coordinates (Angstroms)
 Number     Number       Type             X           Y           Z
 ---------------------------------------------------------------------
      1          6           0        0.635822    0.075190    0.007294
      2          8           0       -0.711198   -0.213935   -0.019989
      3          1           0        0.969153    0.387852    0.754312
      4          1           0        1.004404    0.614861   -0.723609
      5          1           0        1.251997   -0.825800   -0.011671
      6          1           0       -1.350904    1.083426    0.097115
 ---------------------------------------------------------------------

 SCF Done:  E(RB2PLYPD3) =  -115.396010280     A.U. after   12 cycles
 E2(B2PLYPD3) =    -0.1558572417D+00 E(B2PLYPD3) =    -0.11555186752141D+03

 The electronic state is 1-A.
 Alpha  occ. eigenvalues --  -19.75677 -10.61151  -1.13116  -0.81169  -0.55060
 Alpha  occ. eigenvalues --   -0.53654  -0.49794  -0.37682  -0.35637
 Alpha virt. eigenvalues --   -0.02611   0.07163   0.12827   0.13209   0.14855
 Alpha virt. eigenvalues --    0.18051   0.18882   0.21349   0.29399   0.33984
 Alpha virt. eigenvalues --    0.35450   0.38142   0.40457   0.42850   0.45499

 Mulliken charges:
               1
     1  C    0.074984
     2  O   -0.466671
     3  H    0.076296
     4  H    0.044846
     5  H    0.037280
     6  H    0.233265
 Sum of Mulliken charges =   0.00000

 Dipole moment (field-independent basis, Debye):
    X=              0.8341    Y=              1.8367    Z=              0.2605  Tot=              2.0340
 Quadrupole moment (field-independent basis, Debye-Ang):
   XX=            -12.2990   YY=            -11.8951   ZZ=            -13.9703
   XY=             -2.5915   XZ=             -0.0879   YZ=              0.0777

 Normal termination of Gaussian 09 at Wed Aug 26 19:20:25 2020.
