 Gaussian 09, Revision D.01,
 Gaussian 09:  ES64L-G09RevD.01 24-Apr-2013

 --------------------
 #p B2PLYPD3/Def2QZVP
 --------------------

 --------
 methanol
 --------
 Symbolic Z-matrix:
 Charge =  0 Multiplicity = 1

                         Standard orientation:
 ---------------------------------------------------------------------
 Center     Atomic      Atomic             Coordinates (Angstroms)
 Number     Number       Type             X           Y           Z
 ---------------------------------------------------------------------
      1          6           0        0.674883    0.024390   -0.004027
      2          8           0       -0.752762   -0.135416    0.001548
      3          1           0        1.045303    0.494741    0.872603
      4          1           0        1.034044    0.541783   -0.834407
      5          1           0        1.031320   -0.970360   -0.024780
      6          1           0       -1.137868    0.870823   -0.001636
 ---------------------------------------------------------------------

 SCF Done:  E(RB2PLYPD3) =  -115.537008653     A.U. after   11 cycles
 E2(B2PLYPD3) =    -0.1494955701D+00 E(B2PLYPD3) =    -0.11568650422352D+03

 The electronic state is 1-A.
 Alpha  occ. eigenvalues --  -19.73478 -10.64293  -1.13705  -0.78810  -0.57287
 Alpha  occ. eigenvalues --   -0.52130  -0.48852  -0.41401  -0.35405
 Alpha virt. eigenvalues --    0.04068   0.07934   0.12411   0.12601   0.14975
 Alpha virt. eigenvalues --    0.17124   0.18264   0.28885   0.31004   0.33576
 Alpha virt. eigenvalues --    0.33672   0.38820   0.39815   0.41883   0.44311

 Mulliken charges:
               1
     1  C    0.077233
     2  O   -0.486635
     3  H    0.048701
     4  H    0.049112
     5  H    0.067776
     6  H    0.243814
 Sum of Mulliken charges =   0.00000

 Dipole moment (field-independent basis, Debye):
    X=              1.0016    Y=              1.6155    Z=             -0.0217  Tot=              1.9009
 Quadrupole moment (field-independent basis, Debye-Ang):
   XX=            -13.1445   YY=            -11.9031   ZZ=            -13.8325
   XY=             -2.2294   XZ=             -0.0075   YZ=             -0.0241

 Normal termination of Gaussian 09 at Thu Aug 27 00:01:19 2020.
