 Gaussian 09, Revision D.01,
 Gaussian 09:  ES64L-G09RevD.01 24-Apr-2013

 --------------------
 #p B2PLYPD3/Def2QZVP
 --------------------

 --------
 methanol
 --------
 Symbolic Z-matrix:
 Charge =  0 Multiplicity = 1

                         Standard orientation:
 ---------------------------------------------------------------------
 Center     Atomic      Atomic             Coordinates (Angstroms)
 Number     Number       Type             X           Y           Z
 ---------------------------------------------------------------------
      1          6           0       -0.660705   -0.022239    0.009140
      2          8           0        0.751720    0.087345   -0.008282
      3          1           0       -1.057067   -0.508342    0.921291
      4          1           0       -1.106535   -0.563032   -0.913040
      5          1           0       -1.004390    1.102196   -0.021695
      6          1           0        1.118460   -0.596146    0.024860
 ---------------------------------------------------------------------

 SCF Done:  E(RB2PLYPD3) =  -115.497345435     A.U. after   10 cycles
 E2(B2PLYPD3) =    -0.1449458810D+00 E(B2PLYPD3) =    -0.11564229131612D+03

 The electronic state is 1-A.
 Alpha  occ. eigenvalues --  -19.70904 -10.67767  -1.21330  -0.80069  -0.61361
 Alpha  occ. eigenvalues --   -0.51358  -0.49401  -0.40823  -0.36011
 Alpha virt. eigenvalues --    0.05374   0.08798   0.11771   0.12171   0.14976
 Alpha virt. eigenvalues --    0.16748   0.18112   0.28871   0.33095   0.33331
 Alpha virt. eigenvalues --    0.36577   0.38365   0.40058   0.40235   0.41903

 Mulliken charges:
               1
     1  C    0.048128
     2  O   -0.319271
     3  H    0.057555
     4  H    0.049322
     5  H    0.069885
     6  H    0.094381
 Sum of Mulliken charges =   0.00000

 Dipole moment (field-independent basis, Debye):
    X=             -0.8215    Y=             -1.3374    Z=              0.1171  Tot=              1.5739
 Quadrupole moment (field-independent basis, Debye-Ang):
   XX=            -13.0319   YY=            -12.4768   ZZ=            -13.7097
   XY=             -1.8617   XZ=              0.0647   YZ=             -0.0848

 Normal termination of Gaussian 09 at Wed Aug 26 13:23:21 2020.
