 Gaussian 09, Revision D.01,
 Gaussian 09:  ES64L-G09RevD.01 24-Apr-2013

 --------------------
 #p B2PLYPD3/Def2QZVP
 --------------------

 --------
 methanol
 --------
 Symbolic Z-matrix:
 Charge =  0 Multiplicity = 1

                         Standard orientation:
 ---------------------------------------------------------------------
 Center     Atomic      Atomic             Coordinates (Angstroms)
 Number     Number       Type             X           Y           Z
 ---------------------------------------------------------------------
      1          6           0        0.660078    0.021707    0.000774
      2          8           0       -0.744669   -0.138402    0.003394
      3          1           0        1.058817    0.529020    0.847549
      4          1           0        1.053646    0.540289   -0.833740
      5          1           0        1.055734   -0.964522   -0.024783
      6          1           0       -1.171313    0.872188   -0.020818
 ---------------------------------------------------------------------

 SCF Done:  E(RB2PLYPD3) =  -115.534548166     A.U. after   11 cycles
 E2(B2PLYPD3) =    -0.1496013439D+00 E(B2PLYPD3) =    -0.11568414950988D+03

 The electronic state is 1-A.
 Alpha  occ. eigenvalues --  -19.73795 -10.64384  -1.14187  -0.78503  -0.57524
 Alpha  occ. eigenvalues --   -0.51587  -0.49480  -0.41033  -0.35176
 Alpha virt. eigenvalues --    0.03787   0.07804   0.12449   0.12750   0.15175
 Alpha virt. eigenvalues --    0.17239   0.18285   0.28847   0.30365   0.33633
 Alpha virt. eigenvalues --    0.34425   0.38756   0.39518   0.41597   0.44182

 Mulliken charges:
               1
     1  C    0.075250
     2  O   -0.479774
     3  H    0.045172
     4  H    0.043293
     5  H    0.066447
     6  H    0.249611
 Sum of Mulliken charges =   0.00000

 Dipole moment (field-independent basis, Debye):
    X=              0.8608    Y=              1.6252    Z=             -0.0516  Tot=              1.8398
 Quadrupole moment (field-independent basis, Debye-Ang):
   XX=            -12.9430   YY=            -11.9497   ZZ=            -13.9838
   XY=             -2.3044   XZ=              0.0366   YZ=             -0.0180

 Normal termination of Gaussian 09 at Thu Aug 27 00:10:22 2020.
