 Gaussian 09, Revision D.01,
 Gaussian 09:  ES64L-G09RevD.01 24-Apr-2013

 --------------------
 #p B2PLYPD3/Def2QZVP
 --------------------

 --------
 methanol
 --------
 Symbolic Z-matrix:
 Charge =  0 Multiplicity = 1

                         Standard orientation:
 ---------------------------------------------------------------------
 Center     Atomic      Atomic             Coordinates (Angstroms)
 Number     Number       Type             X           Y           Z
 ---------------------------------------------------------------------
      1          6           0        0.666926    0.013021   -0.008912
      2          8           0       -0.743784   -0.141532    0.004854
      3          1           0        1.027823    0.534582    0.880739
      4          1           0        0.992468    0.557579   -0.842206
      5          1           0        1.087554   -0.908530   -0.014479
      6          1           0       -1.159128    0.870496   -0.009412
 ---------------------------------------------------------------------

 SCF Done:  E(RB2PLYPD3) =  -115.532590995     A.U. after   11 cycles
 E2(B2PLYPD3) =    -0.1493425920D+00 E(B2PLYPD3) =    -0.11568193358688D+03

 The electronic state is 1-A.
 Alpha  occ. eigenvalues --  -19.73480 -10.64070  -1.13941  -0.78825  -0.57142
 Alpha  occ. eigenvalues --   -0.51726  -0.50262  -0.41119  -0.34953
 Alpha virt. eigenvalues --    0.03807   0.07920   0.12543   0.12737   0.14868
 Alpha virt. eigenvalues --    0.17514   0.18084   0.28996   0.30394   0.33264
 Alpha virt. eigenvalues --    0.33979   0.39116   0.40873   0.41322   0.43860

 Mulliken charges:
               1
     1  C    0.082586
     2  O   -0.487865
     3  H    0.039941
     4  H    0.043729
     5  H    0.071266
     6  H    0.250343
 Sum of Mulliken charges =   0.00000

 Dipole moment (field-independent basis, Debye):
    X=              0.9150    Y=              1.5902    Z=             -0.0659  Tot=              1.8358
 Quadrupole moment (field-independent basis, Debye-Ang):
   XX=            -13.0125   YY=            -11.9345   ZZ=            -13.8796
   XY=             -2.4414   XZ=              0.0016   YZ=             -0.0602

 Normal termination of Gaussian 09 at Wed Aug 26 09:16:16 2020.
