 Gaussian 09, Revision D.01,
 Gaussian 09:  ES64L-G09RevD.01 24-Apr-2013

 --------------------
 #p B2PLYPD3/Def2QZVP
 --------------------

 --------
 methanol
 --------
 Symbolic Z-matrix:
 Charge =  0 Multiplicity = 1

                         Standard orientation:
 ---------------------------------------------------------------------
 Center     Atomic      Atomic             Coordinates (Angstroms)
 Number     Number       Type             X           Y           Z
 ---------------------------------------------------------------------
      1          6           0        0.666590    0.025388   -0.006311
      2          8           0       -0.748056   -0.145769    0.001448
      3          1           0        1.023122    0.526320    0.840680
      4          1           0        1.022983    0.533356   -0.814123
      5          1           0        1.071961   -0.956837    0.002864
      6          1           0       -1.133160    0.910988   -0.003137
 ---------------------------------------------------------------------

 SCF Done:  E(RB2PLYPD3) =  -115.525586957     A.U. after   11 cycles
 E2(B2PLYPD3) =    -0.1501469126D+00 E(B2PLYPD3) =    -0.11567573386928D+03

 The electronic state is 1-A.
 Alpha  occ. eigenvalues --  -19.73860 -10.63775  -1.13541  -0.78889  -0.57031
 Alpha  occ. eigenvalues --   -0.52327  -0.49012  -0.41225  -0.35288
 Alpha virt. eigenvalues --    0.03464   0.07856   0.12426   0.12744   0.15019
 Alpha virt. eigenvalues --    0.17400   0.18166   0.28361   0.29869   0.33578
 Alpha virt. eigenvalues --    0.34061   0.38909   0.39758   0.42293   0.44451

 Mulliken charges:
               1
     1  C    0.086298
     2  O   -0.487365
     3  H    0.043405
     4  H    0.045541
     5  H    0.063770
     6  H    0.248350
 Sum of Mulliken charges =   0.00000

 Dipole moment (field-independent basis, Debye):
    X=              0.9957    Y=              1.6762    Z=             -0.0255  Tot=              1.9498
 Quadrupole moment (field-independent basis, Debye-Ang):
   XX=            -13.1597   YY=            -11.7883   ZZ=            -13.9074
   XY=             -2.2617   XZ=             -0.0150   YZ=             -0.0382

 Normal termination of Gaussian 09 at Wed Aug 26 10:35:32 2020.
