 Gaussian 09, Revision D.01,
 Gaussian 09:  ES64L-G09RevD.01 24-Apr-2013

 --------------------
 #p B2PLYPD3/Def2QZVP
 --------------------

 --------
 methanol
 --------
 Symbolic Z-matrix:
 Charge =  0 Multiplicity = 1

                         Standard orientation:
 ---------------------------------------------------------------------
 Center     Atomic      Atomic             Coordinates (Angstroms)
 Number     Number       Type             X           Y           Z
 ---------------------------------------------------------------------
      1          6           0        0.638405    0.021699   -0.020208
      2          8           0       -0.714371   -0.206248    0.032854
      3          1           0        1.097814    0.698979    0.707624
      4          1           0        0.920705    0.456439   -0.695620
      5          1           0        1.180741   -0.789577   -0.029309
      6          1           0       -1.314723    1.153949   -0.124277
 ---------------------------------------------------------------------

 SCF Done:  E(RB2PLYPD3) =  -115.368447269     A.U. after   13 cycles
 E2(B2PLYPD3) =    -0.1569935953D+00 E(B2PLYPD3) =    -0.11552544086443D+03

 The electronic state is 1-A.
 Alpha  occ. eigenvalues --  -19.75901 -10.60852  -1.13305  -0.81774  -0.56104
 Alpha  occ. eigenvalues --   -0.51357  -0.50749  -0.38958  -0.34444
 Alpha virt. eigenvalues --   -0.03734   0.07233   0.12646   0.13517   0.15019
 Alpha virt. eigenvalues --    0.17908   0.18602   0.21040   0.30104   0.33005
 Alpha virt. eigenvalues --    0.35843   0.38424   0.39739   0.41281   0.45824

 Mulliken charges:
               1
     1  C    0.052335
     2  O   -0.460810
     3  H    0.024829
     4  H    0.095341
     5  H    0.054706
     6  H    0.233598
 Sum of Mulliken charges =   0.00000

 Dipole moment (field-independent basis, Debye):
    X=              0.8350    Y=              1.7791    Z=             -0.4586  Tot=              2.0181
 Quadrupole moment (field-independent basis, Debye-Ang):
   XX=            -12.5028   YY=            -11.3620   ZZ=            -14.2971
   XY=             -2.6859   XZ=              0.0323   YZ=             -0.2980

 Normal termination of Gaussian 09 at Wed Aug 26 18:37:42 2020.
