 Gaussian 09, Revision D.01,
 Gaussian 09:  ES64L-G09RevD.01 24-Apr-2013

 --------------------
 #p B2PLYPD3/Def2QZVP
 --------------------

 --------
 methanol
 --------
 Symbolic Z-matrix:
 Charge =  0 Multiplicity = 1

                         Standard orientation:
 ---------------------------------------------------------------------
 Center     Atomic      Atomic             Coordinates (Angstroms)
 Number     Number       Type             X           Y           Z
 ---------------------------------------------------------------------
      1          6           0       -0.674028    0.028590    0.005019
      2          8           0        0.744081   -0.139683   -0.003771
      3          1           0       -1.059340    0.522147   -0.838868
      4          1           0       -1.039062    0.488796    0.838878
      5          1           0       -0.969144   -0.978985   -0.012074
      6          1           0        1.159066    0.913967    0.012119
 ---------------------------------------------------------------------

 SCF Done:  E(RB2PLYPD3) =  -115.522646262     A.U. after   11 cycles
 E2(B2PLYPD3) =    -0.1504594855D+00 E(B2PLYPD3) =    -0.11567310574768D+03

 The electronic state is 1-A.
 Alpha  occ. eigenvalues --  -19.73815 -10.63690  -1.13305  -0.78806  -0.57232
 Alpha  occ. eigenvalues --   -0.52440  -0.48410  -0.41076  -0.35374
 Alpha virt. eigenvalues --    0.03453   0.07874   0.12344   0.12730   0.15159
 Alpha virt. eigenvalues --    0.16844   0.18378   0.28262   0.29897   0.33817
 Alpha virt. eigenvalues --    0.33941   0.38590   0.39403   0.42456   0.44640

 Mulliken charges:
               1
     1  C    0.075546
     2  O   -0.486035
     3  H    0.047794
     4  H    0.050029
     5  H    0.067642
     6  H    0.245024
 Sum of Mulliken charges =   0.00000

 Dipole moment (field-independent basis, Debye):
    X=             -0.9669    Y=              1.6429    Z=              0.0487  Tot=              1.9069
 Quadrupole moment (field-independent basis, Debye-Ang):
   XX=            -13.1471   YY=            -11.7945   ZZ=            -13.8522
   XY=              2.1796   XZ=              0.0161   YZ=              0.0400

 Normal termination of Gaussian 09 at Wed Aug 26 12:06:07 2020.
