 Gaussian 09, Revision D.01,
 Gaussian 09:  ES64L-G09RevD.01 24-Apr-2013

 --------------------
 #p B2PLYPD3/Def2QZVP
 --------------------

 --------
 methanol
 --------
 Symbolic Z-matrix:
 Charge =  0 Multiplicity = 1

                         Standard orientation:
 ---------------------------------------------------------------------
 Center     Atomic      Atomic             Coordinates (Angstroms)
 Number     Number       Type             X           Y           Z
 ---------------------------------------------------------------------
      1          6           0       -0.656151    0.012881   -0.015356
      2          8           0        0.714177   -0.190524   -0.000329
      3          1           0       -0.968478    0.461999   -0.803233
      4          1           0       -0.861994    0.547510    0.838439
      5          1           0       -1.057989   -0.724575    0.082944
      6          1           0        1.111949    1.161969   -0.023388
 ---------------------------------------------------------------------

 SCF Done:  E(RB2PLYPD3) =  -115.384152059     A.U. after   11 cycles
 E2(B2PLYPD3) =    -0.1549302136D+00 E(B2PLYPD3) =    -0.11553908227249D+03

 The electronic state is 1-A.
 Alpha  occ. eigenvalues --  -19.74830 -10.59858  -1.13155  -0.81213  -0.57175
 Alpha  occ. eigenvalues --   -0.54132  -0.49823  -0.39370  -0.34673
 Alpha virt. eigenvalues --   -0.01688   0.07813   0.12568   0.13104   0.14465
 Alpha virt. eigenvalues --    0.17965   0.18221   0.22576   0.29435   0.32900
 Alpha virt. eigenvalues --    0.35074   0.38655   0.41704   0.44025   0.45905

 Mulliken charges:
               1
     1  C    0.048342
     2  O   -0.470712
     3  H    0.037740
     4  H    0.037041
     5  H    0.113572
     6  H    0.234017
 Sum of Mulliken charges =   0.00000

 Dipole moment (field-independent basis, Debye):
    X=             -1.1463    Y=              1.6771    Z=             -0.0470  Tot=              2.0320
 Quadrupole moment (field-independent basis, Debye-Ang):
   XX=            -13.4460   YY=            -11.2278   ZZ=            -13.6633
   XY=              2.4953   XZ=              0.0770   YZ=             -0.1206

 Normal termination of Gaussian 09 at Wed Aug 26 21:13:12 2020.
