 Gaussian 09, Revision D.01,
 Gaussian 09:  ES64L-G09RevD.01 24-Apr-2013

 --------------------
 #p B2PLYPD3/Def2QZVP
 --------------------

 --------
 methanol
 --------
 Symbolic Z-matrix:
 Charge =  0 Multiplicity = 1

                         Standard orientation:
 ---------------------------------------------------------------------
 Center     Atomic      Atomic             Coordinates (Angstroms)
 Number     Number       Type             X           Y           Z
 ---------------------------------------------------------------------
      1          6           0        0.658399    0.023261    0.039275
      2          8           0       -0.745808   -0.164704   -0.020840
      3          1           0        1.095084    0.325405    0.764110
      4          1           0        1.078811    0.768207   -0.725307
      5          1           0        1.094282   -0.917978   -0.199746
      6          1           0       -1.252108    1.002438    0.092013
 ---------------------------------------------------------------------

 SCF Done:  E(RB2PLYPD3) =  -115.455306716     A.U. after   11 cycles
 E2(B2PLYPD3) =    -0.1535604470D+00 E(B2PLYPD3) =    -0.11560886716316D+03

 The electronic state is 1-A.
 Alpha  occ. eigenvalues --  -19.75322 -10.63503  -1.12559  -0.80034  -0.56537
 Alpha  occ. eigenvalues --   -0.50743  -0.49165  -0.40195  -0.35024
 Alpha virt. eigenvalues --    0.00864   0.07272   0.12270   0.13141   0.15138
 Alpha virt. eigenvalues --    0.17397   0.18635   0.24120   0.29561   0.33141
 Alpha virt. eigenvalues --    0.34676   0.37011   0.37852   0.41421   0.45435

 Mulliken charges:
               1
     1  C    0.069964
     2  O   -0.476112
     3  H    0.071125
     4  H    0.020992
     5  H    0.059903
     6  H    0.254128
 Sum of Mulliken charges =   0.00000

 Dipole moment (field-independent basis, Debye):
    X=              0.8254    Y=              1.6832    Z=              0.3564  Tot=              1.9082
 Quadrupole moment (field-independent basis, Debye-Ang):
   XX=            -12.6667   YY=            -11.7753   ZZ=            -14.2441
   XY=             -2.5049   XZ=              0.0362   YZ=              0.3141

 Normal termination of Gaussian 09 at Wed Aug 26 20:42:02 2020.
