 Gaussian 09, Revision D.01,
 Gaussian 09:  ES64L-G09RevD.01 24-Apr-2013

 --------------------
 #p B2PLYPD3/Def2QZVP
 --------------------

 --------
 methanol
 --------
 Symbolic Z-matrix:
 Charge =  0 Multiplicity = 1

                         Standard orientation:
 ---------------------------------------------------------------------
 Center     Atomic      Atomic             Coordinates (Angstroms)
 Number     Number       Type             X           Y           Z
 ---------------------------------------------------------------------
      1          6           0        0.676513    0.052125    0.021012
      2          8           0       -0.758611   -0.176875   -0.026431
      3          1           0        1.030215    0.330291    0.785155
      4          1           0        1.082076    0.635387   -0.767856
      5          1           0        1.136604   -0.902307   -0.058654
      6          1           0       -1.239085    1.038877    0.126733
 ---------------------------------------------------------------------

 SCF Done:  E(RB2PLYPD3) =  -115.443539080     A.U. after   11 cycles
 E2(B2PLYPD3) =    -0.1545945555D+00 E(B2PLYPD3) =    -0.11559813363530D+03

 The electronic state is 1-A.
 Alpha  occ. eigenvalues --  -19.75342 -10.62585  -1.11059  -0.80960  -0.54604
 Alpha  occ. eigenvalues --   -0.52853  -0.48224  -0.39830  -0.35870
 Alpha virt. eigenvalues --    0.00434   0.07276   0.12437   0.12883   0.14840
 Alpha virt. eigenvalues --    0.17421   0.18892   0.23520   0.29089   0.32993
 Alpha virt. eigenvalues --    0.34242   0.37987   0.39173   0.42073   0.44946

 Mulliken charges:
               1
     1  C    0.067647
     2  O   -0.490561
     3  H    0.077435
     4  H    0.050778
     5  H    0.049606
     6  H    0.245094
 Sum of Mulliken charges =   0.00000

 Dipole moment (field-independent basis, Debye):
    X=              1.0762    Y=              1.7333    Z=              0.3448  Tot=              2.0691
 Quadrupole moment (field-independent basis, Debye-Ang):
   XX=            -12.7331   YY=            -11.7818   ZZ=            -13.9333
   XY=             -2.4414   XZ=             -0.1478   YZ=              0.1719

 Normal termination of Gaussian 09 at Wed Aug 26 23:51:05 2020.
