 Gaussian 09, Revision D.01,
 Gaussian 09:  ES64L-G09RevD.01 24-Apr-2013

 --------------------
 #p B2PLYPD3/Def2QZVP
 --------------------

 --------
 methanol
 --------
 Symbolic Z-matrix:
 Charge =  0 Multiplicity = 1

                         Standard orientation:
 ---------------------------------------------------------------------
 Center     Atomic      Atomic             Coordinates (Angstroms)
 Number     Number       Type             X           Y           Z
 ---------------------------------------------------------------------
      1          6           0       -0.689291    0.001415   -0.001850
      2          8           0        0.775300   -0.045358   -0.029869
      3          1           0       -1.098853    1.079439   -0.459434
      4          1           0       -1.094022   -0.197570    1.080610
      5          1           0       -0.908218   -0.928030   -0.637720
      6          1           0        1.034438    0.400530    0.266601
 ---------------------------------------------------------------------

 SCF Done:  E(RB2PLYPD3) =  -115.191005018     A.U. after   11 cycles
 E2(B2PLYPD3) =    -0.1440338286D+00 E(B2PLYPD3) =    -0.11533503884697D+03

 The electronic state is 1-A.
 Alpha  occ. eigenvalues --  -19.68607 -10.69799  -1.28437  -0.81843  -0.61282
 Alpha  occ. eigenvalues --   -0.50559  -0.49352  -0.41967  -0.36589
 Alpha virt. eigenvalues --    0.05104   0.09077   0.11127   0.11841   0.14269
 Alpha virt. eigenvalues --    0.16285   0.17937   0.28306   0.30208   0.32490
 Alpha virt. eigenvalues --    0.34561   0.37182   0.38662   0.41626   0.41932

 Mulliken charges:
               1
     1  C    0.040671
     2  O   -0.163664
     3  H    0.053401
     4  H    0.060682
     5  H    0.092593
     6  H   -0.083683
 Sum of Mulliken charges =   0.00000

 Dipole moment (field-independent basis, Debye):
    X=             -1.1621    Y=              0.8797    Z=              0.6513  Tot=              1.5964
 Quadrupole moment (field-independent basis, Debye-Ang):
   XX=            -13.4550   YY=            -12.5200   ZZ=            -13.2255
   XY=              1.3897   XZ=              0.8331   YZ=              0.4141

 Normal termination of Gaussian 09 at Wed Aug 26 23:54:40 2020.
