 Gaussian 09, Revision D.01,
 Gaussian 09:  ES64L-G09RevD.01 24-Apr-2013

 --------------------
 #p B2PLYPD3/Def2QZVP
 --------------------

 --------
 methanol
 --------
 Symbolic Z-matrix:
 Charge =  0 Multiplicity = 1

                         Standard orientation:
 ---------------------------------------------------------------------
 Center     Atomic      Atomic             Coordinates (Angstroms)
 Number     Number       Type             X           Y           Z
 ---------------------------------------------------------------------
      1          6           0       -0.657417   -0.006005   -0.004114
      2          8           0        0.756749   -0.142006   -0.006262
      3          1           0       -1.010493    0.611448   -0.854808
      4          1           0       -0.949904    0.540668    0.915493
      5          1           0       -1.252269   -0.825933   -0.005090
      6          1           0        1.103177    0.845894    0.019183
 ---------------------------------------------------------------------

 SCF Done:  E(RB2PLYPD3) =  -115.534429366     A.U. after   10 cycles
 E2(B2PLYPD3) =    -0.1489094847D+00 E(B2PLYPD3) =    -0.11568333885019D+03

 The electronic state is 1-A.
 Alpha  occ. eigenvalues --  -19.73566 -10.65156  -1.14874  -0.78753  -0.57064
 Alpha  occ. eigenvalues --   -0.51657  -0.51114  -0.40765  -0.34873
 Alpha virt. eigenvalues --    0.04093   0.07819   0.12222   0.12984   0.14328
 Alpha virt. eigenvalues --    0.17819   0.19053   0.29363   0.30889   0.32578
 Alpha virt. eigenvalues --    0.33041   0.39198   0.39808   0.42261   0.43056

 Mulliken charges:
               1
     1  C    0.076999
     2  O   -0.469551
     3  H    0.033448
     4  H    0.033186
     5  H    0.074514
     6  H    0.251403
 Sum of Mulliken charges =   0.00000

 Dipole moment (field-independent basis, Debye):
    X=             -0.9685    Y=              1.5399    Z=              0.0461  Tot=              1.8197
 Quadrupole moment (field-independent basis, Debye-Ang):
   XX=            -13.0506   YY=            -12.1579   ZZ=            -13.9657
   XY=              2.5693   XZ=              0.1038   YZ=              0.0083

 Normal termination of Gaussian 09 at Wed Aug 26 23:57:09 2020.
