 Gaussian 09, Revision D.01,
 Gaussian 09:  ES64L-G09RevD.01 24-Apr-2013

 --------------------
 #p B2PLYPD3/Def2QZVP
 --------------------

 --------
 methanol
 --------
 Symbolic Z-matrix:
 Charge =  0 Multiplicity = 1

                         Standard orientation:
 ---------------------------------------------------------------------
 Center     Atomic      Atomic             Coordinates (Angstroms)
 Number     Number       Type             X           Y           Z
 ---------------------------------------------------------------------
      1          6           0        0.667836   -0.004932   -0.012199
      2          8           0       -0.766856   -0.072482   -0.038379
      3          1           0        1.094049   -0.017211    1.131733
      4          1           0        1.076789    1.039426   -0.518926
      5          1           0        1.148280   -0.862143   -0.488565
      6          1           0       -1.191288    0.449375    0.255989
 ---------------------------------------------------------------------

 SCF Done:  E(RB2PLYPD3) =  -115.447011548     A.U. after   11 cycles
 E2(B2PLYPD3) =    -0.1451200785D+00 E(B2PLYPD3) =    -0.11559213162669D+03

 The electronic state is 1-A.
 Alpha  occ. eigenvalues --  -19.70451 -10.69575  -1.21989  -0.81026  -0.61177
 Alpha  occ. eigenvalues --   -0.51303  -0.49488  -0.40166  -0.35450
 Alpha virt. eigenvalues --    0.05234   0.08657   0.11390   0.12317   0.14230
 Alpha virt. eigenvalues --    0.17211   0.17923   0.28783   0.31539   0.32219
 Alpha virt. eigenvalues --    0.35099   0.36922   0.38151   0.41409   0.42189

 Mulliken charges:
               1
     1  C    0.058188
     2  O   -0.288786
     3  H    0.038880
     4  H    0.039619
     5  H    0.097508
     6  H    0.054591
 Sum of Mulliken charges =   0.00000

 Dipole moment (field-independent basis, Debye):
    X=              0.8339    Y=              0.9337    Z=              0.5278  Tot=              1.3586
 Quadrupole moment (field-independent basis, Debye-Ang):
   XX=            -12.5779   YY=            -12.9602   ZZ=            -13.6985
   XY=             -1.9494   XZ=             -1.0693   YZ=              0.4059

 Normal termination of Gaussian 09 at Wed Aug 26 21:05:18 2020.
