 Gaussian 09, Revision D.01,
 Gaussian 09:  ES64L-G09RevD.01 24-Apr-2013

 --------------------
 #p B2PLYPD3/Def2QZVP
 --------------------

 --------
 methanol
 --------
 Symbolic Z-matrix:
 Charge =  0 Multiplicity = 1

                         Standard orientation:
 ---------------------------------------------------------------------
 Center     Atomic      Atomic             Coordinates (Angstroms)
 Number     Number       Type             X           Y           Z
 ---------------------------------------------------------------------
      1          6           0        0.668864   -0.023279    0.003205
      2          8           0       -0.745117    0.114801   -0.002761
      3          1           0        1.000302   -0.563315   -0.894833
      4          1           0        0.951716   -0.562952    0.900631
      5          1           0        1.120003    1.010448    0.002375
      6          1           0       -1.124265   -0.662914   -0.005314
 ---------------------------------------------------------------------

 SCF Done:  E(RB2PLYPD3) =  -115.542456588     A.U. after   10 cycles
 E2(B2PLYPD3) =    -0.1456400785D+00 E(B2PLYPD3) =    -0.11568809666680D+03

 The electronic state is 1-A.
 Alpha  occ. eigenvalues --  -19.71327 -10.66230  -1.18232  -0.79349  -0.59813
 Alpha  occ. eigenvalues --   -0.52290  -0.49930  -0.40927  -0.35504
 Alpha virt. eigenvalues --    0.05306   0.08688   0.12248   0.12269   0.14664
 Alpha virt. eigenvalues --    0.17317   0.17703   0.29133   0.32974   0.33261
 Alpha virt. eigenvalues --    0.37197   0.38597   0.40057   0.40817   0.43931

 Mulliken charges:
               1
     1  C    0.072687
     2  O   -0.419124
     3  H    0.048361
     4  H    0.050738
     5  H    0.071863
     6  H    0.175475
 Sum of Mulliken charges =   0.00000

 Dipole moment (field-independent basis, Debye):
    X=              0.8994    Y=             -1.4436    Z=              0.0082  Tot=              1.7009
 Quadrupole moment (field-independent basis, Debye-Ang):
   XX=            -13.0704   YY=            -12.3232   ZZ=            -13.6612
   XY=              2.2011   XZ=             -0.0255   YZ=             -0.0098

 Normal termination of Gaussian 09 at Wed Aug 26 23:58:37 2020.
