 Gaussian 09, Revision D.01,
 Gaussian 09:  ES64L-G09RevD.01 24-Apr-2013

 --------------------
 #p B2PLYPD3/Def2QZVP
 --------------------

 --------
 methanol
 --------
 Symbolic Z-matrix:
 Charge =  0 Multiplicity = 1

                         Standard orientation:
 ---------------------------------------------------------------------
 Center     Atomic      Atomic             Coordinates (Angstroms)
 Number     Number       Type             X           Y           Z
 ---------------------------------------------------------------------
      1          6           0       -0.658609   -0.028166    0.023815
      2          8           0        0.746620    0.106135   -0.016801
      3          1           0       -1.039328   -0.384793    0.926100
      4          1           0       -1.045113   -0.692190   -0.854415
      5          1           0       -1.085643    1.040328   -0.159374
      6          1           0        1.148776   -0.643434    0.079213
 ---------------------------------------------------------------------

 SCF Done:  E(RB2PLYPD3) =  -115.533500710     A.U. after   10 cycles
 E2(B2PLYPD3) =    -0.1457956512D+00 E(B2PLYPD3) =    -0.11567929636094D+03

 The electronic state is 1-A.
 Alpha  occ. eigenvalues --  -19.71697 -10.66846  -1.18866  -0.79407  -0.60664
 Alpha  occ. eigenvalues --   -0.51843  -0.49487  -0.40493  -0.35745
 Alpha virt. eigenvalues --    0.05298   0.08543   0.12005   0.12281   0.14865
 Alpha virt. eigenvalues --    0.17101   0.18203   0.28968   0.33086   0.33706
 Alpha virt. eigenvalues --    0.36525   0.37972   0.39169   0.41614   0.43019

 Mulliken charges:
               1
     1  C    0.061063
     2  O   -0.399578
     3  H    0.062392
     4  H    0.040720
     5  H    0.064688
     6  H    0.170715
 Sum of Mulliken charges =   0.00000

 Dipole moment (field-independent basis, Debye):
    X=             -0.7799    Y=             -1.4000    Z=              0.2905  Tot=              1.6287
 Quadrupole moment (field-independent basis, Debye-Ang):
   XX=            -12.9086   YY=            -12.5384   ZZ=            -13.6943
   XY=             -2.0920   XZ=              0.1274   YZ=             -0.2091

 Normal termination of Gaussian 09 at Wed Aug 26 16:01:50 2020.
