 Gaussian 09, Revision D.01,
 Gaussian 09:  ES64L-G09RevD.01 24-Apr-2013

 --------------------
 #p B2PLYPD3/Def2QZVP
 --------------------

 --------
 methanol
 --------
 Symbolic Z-matrix:
 Charge =  0 Multiplicity = 1

                         Standard orientation:
 ---------------------------------------------------------------------
 Center     Atomic      Atomic             Coordinates (Angstroms)
 Number     Number       Type             X           Y           Z
 ---------------------------------------------------------------------
      1          6           0        0.663553   -0.017810   -0.000107
      2          8           0       -0.747052    0.107184   -0.011058
      3          1           0        1.073299   -0.650893   -0.847134
      4          1           0        1.026314   -0.449160    0.960710
      5          1           0        1.078668    1.010019   -0.075768
      6          1           0       -1.183186   -0.660581    0.051295
 ---------------------------------------------------------------------

 SCF Done:  E(RB2PLYPD3) =  -115.545581892     A.U. after   10 cycles
 E2(B2PLYPD3) =    -0.1461653898D+00 E(B2PLYPD3) =    -0.11569174728152D+03

 The electronic state is 1-A.
 Alpha  occ. eigenvalues --  -19.71840 -10.66749  -1.17732  -0.79141  -0.59809
 Alpha  occ. eigenvalues --   -0.51184  -0.50121  -0.40583  -0.35420
 Alpha virt. eigenvalues --    0.05288   0.08365   0.12220   0.12385   0.14847
 Alpha virt. eigenvalues --    0.17065   0.18110   0.29079   0.33172   0.33619
 Alpha virt. eigenvalues --    0.36752   0.38983   0.39338   0.40004   0.42846

 Mulliken charges:
               1
     1  C    0.064463
     2  O   -0.426752
     3  H    0.046517
     4  H    0.048851
     5  H    0.074713
     6  H    0.192208
 Sum of Mulliken charges =   0.00000

 Dipole moment (field-independent basis, Debye):
    X=              0.7642    Y=             -1.3851    Z=              0.1350  Tot=              1.5877
 Quadrupole moment (field-independent basis, Debye-Ang):
   XX=            -12.7590   YY=            -12.4656   ZZ=            -13.8081
   XY=              2.2099   XZ=             -0.1883   YZ=             -0.0627

 Normal termination of Gaussian 09 at Thu Aug 27 00:09:17 2020.
