 Gaussian 09, Revision D.01,
 Gaussian 09:  ES64L-G09RevD.01 24-Apr-2013

 --------------------
 #p B2PLYPD3/Def2QZVP
 --------------------

 --------
 methanol
 --------
 Symbolic Z-matrix:
 Charge =  0 Multiplicity = 1

                         Standard orientation:
 ---------------------------------------------------------------------
 Center     Atomic      Atomic             Coordinates (Angstroms)
 Number     Number       Type             X           Y           Z
 ---------------------------------------------------------------------
      1          6           0       -0.657920   -0.018932   -0.000819
      2          8           0        0.742720    0.131678   -0.002109
      3          1           0       -1.052257   -0.491243    0.877057
      4          1           0       -0.976022   -0.583634   -0.863345
      5          1           0       -1.086402    0.949319   -0.036476
      6          1           0        1.120441   -0.814275    0.044548
 ---------------------------------------------------------------------

 SCF Done:  E(RB2PLYPD3) =  -115.547633170     A.U. after   10 cycles
 E2(B2PLYPD3) =    -0.1480278104D+00 E(B2PLYPD3) =    -0.11569566098031D+03

 The electronic state is 1-A.
 Alpha  occ. eigenvalues --  -19.73074 -10.64700  -1.15523  -0.78619  -0.58185
 Alpha  occ. eigenvalues --   -0.52151  -0.50016  -0.41165  -0.35207
 Alpha virt. eigenvalues --    0.04518   0.08141   0.12479   0.12591   0.14915
 Alpha virt. eigenvalues --    0.17467   0.18139   0.29148   0.32512   0.33277
 Alpha virt. eigenvalues --    0.34544   0.39207   0.40108   0.41501   0.44152

 Mulliken charges:
               1
     1  C    0.073900
     2  O   -0.468441
     3  H    0.043729
     4  H    0.043672
     5  H    0.067965
     6  H    0.239176
 Sum of Mulliken charges =   0.00000

 Dipole moment (field-independent basis, Debye):
    X=             -0.8923    Y=             -1.5552    Z=              0.0833  Tot=              1.7949
 Quadrupole moment (field-independent basis, Debye-Ang):
   XX=            -13.1210   YY=            -12.0731   ZZ=            -13.8159
   XY=             -2.3042   XZ=              0.0291   YZ=             -0.0513

 Normal termination of Gaussian 09 at Thu Aug 27 00:12:09 2020.
