 Gaussian 09, Revision D.01,
 Gaussian 09:  ES64L-G09RevD.01 24-Apr-2013

 --------------------
 #p B2PLYPD3/Def2QZVP
 --------------------

 --------
 methanol
 --------
 Symbolic Z-matrix:
 Charge =  0 Multiplicity = 1

                         Standard orientation:
 ---------------------------------------------------------------------
 Center     Atomic      Atomic             Coordinates (Angstroms)
 Number     Number       Type             X           Y           Z
 ---------------------------------------------------------------------
      1          6           0        0.681761    0.038902    0.021391
      2          8           0       -0.722873   -0.190360   -0.005903
      3          1           0        0.953726    0.473835    0.843139
      4          1           0        1.092798    0.543459   -0.811870
      5          1           0        1.061341   -0.775411   -0.079797
      6          1           0       -1.415447    1.047589   -0.032597
 ---------------------------------------------------------------------

 SCF Done:  E(RB2PLYPD3) =  -115.418739099     A.U. after   11 cycles
 E2(B2PLYPD3) =    -0.1556290827D+00 E(B2PLYPD3) =    -0.11557436818154D+03

 The electronic state is 1-A.
 Alpha  occ. eigenvalues --  -19.74939 -10.61392  -1.11290  -0.80585  -0.55885
 Alpha  occ. eigenvalues --   -0.52368  -0.49165  -0.38781  -0.35034
 Alpha virt. eigenvalues --   -0.01529   0.07445   0.12846   0.13073   0.14716
 Alpha virt. eigenvalues --    0.17121   0.18704   0.22165   0.29356   0.33151
 Alpha virt. eigenvalues --    0.34620   0.38370   0.40425   0.42904   0.44928

 Mulliken charges:
               1
     1  C    0.074450
     2  O   -0.496792
     3  H    0.054196
     4  H    0.042381
     5  H    0.086122
     6  H    0.239643
 Sum of Mulliken charges =   0.00000

 Dipole moment (field-independent basis, Debye):
    X=              0.8696    Y=              1.6183    Z=              0.0026  Tot=              1.8372
 Quadrupole moment (field-independent basis, Debye-Ang):
   XX=            -12.1030   YY=            -11.8998   ZZ=            -13.8547
   XY=             -2.8334   XZ=             -0.0250   YZ=              0.0901

 Normal termination of Gaussian 09 at Wed Aug 26 21:56:03 2020.
