 Gaussian 09, Revision D.01,
 Gaussian 09:  ES64L-G09RevD.01 24-Apr-2013

 --------------------
 #p B2PLYPD3/Def2QZVP
 --------------------

 --------
 methanol
 --------
 Symbolic Z-matrix:
 Charge =  0 Multiplicity = 1

                         Standard orientation:
 ---------------------------------------------------------------------
 Center     Atomic      Atomic             Coordinates (Angstroms)
 Number     Number       Type             X           Y           Z
 ---------------------------------------------------------------------
      1          6           0       -0.665423   -0.016399   -0.000645
      2          8           0        0.752347    0.102386   -0.008349
      3          1           0       -0.993639   -0.538607    0.946584
      4          1           0       -1.014844   -0.596928   -0.918298
      5          1           0       -1.139400    1.011917   -0.003879
      6          1           0        1.121644   -0.597077    0.046259
 ---------------------------------------------------------------------

 SCF Done:  E(RB2PLYPD3) =  -115.511466385     A.U. after   10 cycles
 E2(B2PLYPD3) =    -0.1449157200D+00 E(B2PLYPD3) =    -0.11565638210475D+03

 The electronic state is 1-A.
 Alpha  occ. eigenvalues --  -19.70793 -10.67484  -1.20449  -0.79906  -0.60574
 Alpha  occ. eigenvalues --   -0.51559  -0.50359  -0.40761  -0.35710
 Alpha virt. eigenvalues --    0.05392   0.08825   0.11991   0.12270   0.14454
 Alpha virt. eigenvalues --    0.17324   0.17780   0.28917   0.32802   0.32977
 Alpha virt. eigenvalues --    0.36964   0.38923   0.39549   0.39899   0.43193

 Mulliken charges:
               1
     1  C    0.063975
     2  O   -0.351630
     3  H    0.047491
     4  H    0.049333
     5  H    0.076947
     6  H    0.113885
 Sum of Mulliken charges =   0.00000

 Dipole moment (field-independent basis, Debye):
    X=             -0.9000    Y=             -1.3142    Z=              0.1207  Tot=              1.5975
 Quadrupole moment (field-independent basis, Debye-Ang):
   XX=            -12.9952   YY=            -12.5281   ZZ=            -13.6441
   XY=             -2.1654   XZ=              0.1427   YZ=             -0.0477

 Normal termination of Gaussian 09 at Wed Aug 26 10:02:53 2020.
