 Gaussian 09, Revision D.01,
 Gaussian 09:  ES64L-G09RevD.01 24-Apr-2013

 --------------------
 #p B2PLYPD3/Def2QZVP
 --------------------

 --------
 methanol
 --------
 Symbolic Z-matrix:
 Charge =  0 Multiplicity = 1

                         Standard orientation:
 ---------------------------------------------------------------------
 Center     Atomic      Atomic             Coordinates (Angstroms)
 Number     Number       Type             X           Y           Z
 ---------------------------------------------------------------------
      1          6           0       -0.687758   -0.004724    0.008096
      2          8           0        0.751338    0.085482   -0.007885
      3          1           0       -1.013633   -0.483274    1.002493
      4          1           0       -1.005468   -0.677234   -0.923476
      5          1           0       -1.055782    1.026220   -0.109171
      6          1           0        1.190727   -0.521223    0.044657
 ---------------------------------------------------------------------

 SCF Done:  E(RB2PLYPD3) =  -115.473185396     A.U. after   11 cycles
 E2(B2PLYPD3) =    -0.1446742778D+00 E(B2PLYPD3) =    -0.11561785967331D+03

 The electronic state is 1-A.
 Alpha  occ. eigenvalues --  -19.69631 -10.68409  -1.20624  -0.80990  -0.60138
 Alpha  occ. eigenvalues --   -0.51085  -0.50603  -0.40042  -0.35444
 Alpha virt. eigenvalues --    0.05373   0.08965   0.11687   0.12215   0.14182
 Alpha virt. eigenvalues --    0.16754   0.17619   0.28982   0.31491   0.32744
 Alpha virt. eigenvalues --    0.36820   0.38623   0.39188   0.40544   0.42211

 Mulliken charges:
               1
     1  C    0.064044
     2  O   -0.320996
     3  H    0.055238
     4  H    0.046114
     5  H    0.092243
     6  H    0.063356
 Sum of Mulliken charges =   0.00000

 Dipole moment (field-independent basis, Debye):
    X=             -0.8705    Y=             -1.1614    Z=              0.1402  Tot=              1.4582
 Quadrupole moment (field-independent basis, Debye-Ang):
   XX=            -12.8122   YY=            -12.5973   ZZ=            -13.5662
   XY=             -2.1285   XZ=              0.1266   YZ=             -0.1295

 Normal termination of Gaussian 09 at Wed Aug 26 13:08:58 2020.
