 Gaussian 09, Revision D.01,
 Gaussian 09:  ES64L-G09RevD.01 24-Apr-2013

 --------------------
 #p B2PLYPD3/Def2QZVP
 --------------------

 --------
 methanol
 --------
 Symbolic Z-matrix:
 Charge =  0 Multiplicity = 1

                         Standard orientation:
 ---------------------------------------------------------------------
 Center     Atomic      Atomic             Coordinates (Angstroms)
 Number     Number       Type             X           Y           Z
 ---------------------------------------------------------------------
      1          6           0        0.661935    0.031571    0.002409
      2          8           0       -0.734449   -0.170440   -0.006100
      3          1           0        1.087054    0.431758    0.833698
      4          1           0        0.991075    0.640881   -0.782238
      5          1           0        1.130072   -0.862266   -0.081644
      6          1           0       -1.304219    0.963725    0.064533
 ---------------------------------------------------------------------

 SCF Done:  E(RB2PLYPD3) =  -115.486843041     A.U. after   11 cycles
 E2(B2PLYPD3) =    -0.1525855943D+00 E(B2PLYPD3) =    -0.11563942863500D+03

 The electronic state is 1-A.
 Alpha  occ. eigenvalues --  -19.74649 -10.62963  -1.12444  -0.79221  -0.55347
 Alpha  occ. eigenvalues --   -0.52034  -0.49802  -0.39815  -0.34948
 Alpha virt. eigenvalues --    0.01101   0.07448   0.12801   0.13006   0.14961
 Alpha virt. eigenvalues --    0.17518   0.18513   0.24512   0.29557   0.33452
 Alpha virt. eigenvalues --    0.34745   0.39106   0.39876   0.42418   0.43909

 Mulliken charges:
               1
     1  C    0.090193
     2  O   -0.493619
     3  H    0.043868
     4  H    0.040274
     5  H    0.063183
     6  H    0.256100
 Sum of Mulliken charges =   0.00000

 Dipole moment (field-independent basis, Debye):
    X=              0.7965    Y=              1.6828    Z=              0.1273  Tot=              1.8661
 Quadrupole moment (field-independent basis, Debye-Ang):
   XX=            -12.3599   YY=            -11.9361   ZZ=            -14.0599
   XY=             -2.6688   XZ=             -0.0527   YZ=              0.0739

 Normal termination of Gaussian 09 at Wed Aug 26 10:53:03 2020.
