 Gaussian 09, Revision D.01,
 Gaussian 09:  ES64L-G09RevD.01 24-Apr-2013

 --------------------
 #p B2PLYPD3/Def2QZVP
 --------------------

 --------
 methanol
 --------
 Symbolic Z-matrix:
 Charge =  0 Multiplicity = 1

                         Standard orientation:
 ---------------------------------------------------------------------
 Center     Atomic      Atomic             Coordinates (Angstroms)
 Number     Number       Type             X           Y           Z
 ---------------------------------------------------------------------
      1          6           0        0.670541    0.020359   -0.003916
      2          8           0       -0.743497   -0.145402    0.001554
      3          1           0        1.011068    0.514449    0.871616
      4          1           0        0.963593    0.539379   -0.863284
      5          1           0        1.087570   -0.899372   -0.009574
      6          1           0       -1.137499    0.886604    0.012306
 ---------------------------------------------------------------------

 SCF Done:  E(RB2PLYPD3) =  -115.529294172     A.U. after   11 cycles
 E2(B2PLYPD3) =    -0.1495264526D+00 E(B2PLYPD3) =    -0.11567882062433D+03

 The electronic state is 1-A.
 Alpha  occ. eigenvalues --  -19.73428 -10.63654  -1.13680  -0.78990  -0.56748
 Alpha  occ. eigenvalues --   -0.52596  -0.49905  -0.41022  -0.35109
 Alpha virt. eigenvalues --    0.03729   0.07980   0.12479   0.12777   0.14703
 Alpha virt. eigenvalues --    0.17540   0.18131   0.28834   0.30135   0.33277
 Alpha virt. eigenvalues --    0.33833   0.39315   0.41041   0.42079   0.43704

 Mulliken charges:
               1
     1  C    0.084525
     2  O   -0.491284
     3  H    0.043888
     4  H    0.045786
     5  H    0.067996
     6  H    0.249089
 Sum of Mulliken charges =   0.00000

 Dipole moment (field-independent basis, Debye):
    X=              0.9875    Y=              1.6043    Z=              0.0036  Tot=              1.8839
 Quadrupole moment (field-independent basis, Debye-Ang):
   XX=            -13.1371   YY=            -11.9156   ZZ=            -13.7471
   XY=             -2.4231   XZ=              0.0036   YZ=             -0.0058

 Normal termination of Gaussian 09 at Thu Aug 27 00:15:08 2020.
