 Gaussian 09, Revision D.01,
 Gaussian 09:  ES64L-G09RevD.01 24-Apr-2013

 --------------------
 #p B2PLYPD3/Def2QZVP
 --------------------

 --------
 methanol
 --------
 Symbolic Z-matrix:
 Charge =  0 Multiplicity = 1

                         Standard orientation:
 ---------------------------------------------------------------------
 Center     Atomic      Atomic             Coordinates (Angstroms)
 Number     Number       Type             X           Y           Z
 ---------------------------------------------------------------------
      1          6           0       -0.687456   -0.030325   -0.028566
      2          8           0        0.763867    0.002230    0.062088
      3          1           0       -0.885074   -0.625316   -0.938865
      4          1           0       -1.173666    1.197414    0.016210
      5          1           0       -0.957069   -0.570437    0.968559
      6          1           0        1.029614    0.162444   -0.371212
 ---------------------------------------------------------------------

 SCF Done:  E(RB2PLYPD3) =  -114.943448130     A.U. after   11 cycles
 E2(B2PLYPD3) =    -0.1437009273D+00 E(B2PLYPD3) =    -0.11508714905750D+03

 The electronic state is 1-A.
 Alpha  occ. eigenvalues --  -19.68124 -10.70205  -1.31696  -0.83362  -0.61771
 Alpha  occ. eigenvalues --   -0.51489  -0.49573  -0.41486  -0.36357
 Alpha virt. eigenvalues --    0.04883   0.09290   0.10911   0.11584   0.13876
 Alpha virt. eigenvalues --    0.16386   0.17711   0.27905   0.30340   0.30951
 Alpha virt. eigenvalues --    0.33987   0.36814   0.39623   0.41356   0.42880

 Mulliken charges:
               1
     1  C    0.045793
     2  O   -0.086630
     3  H    0.072916
     4  H    0.043891
     5  H    0.090968
     6  H   -0.166938
 Sum of Mulliken charges =   0.00000

 Dipole moment (field-independent basis, Debye):
    X=             -1.1129    Y=              0.1362    Z=             -1.0481  Tot=              1.5348
 Quadrupole moment (field-independent basis, Debye-Ang):
   XX=            -13.5260   YY=            -13.1458   ZZ=            -12.4788
   XY=              0.6023   XZ=             -1.6192   YZ=             -0.1620

 Normal termination of Gaussian 09 at Wed Aug 26 20:58:17 2020.
