 Gaussian 09, Revision D.01,
 Gaussian 09:  ES64L-G09RevD.01 24-Apr-2013

 --------------------
 #p B2PLYPD3/Def2QZVP
 --------------------

 --------
 methanol
 --------
 Symbolic Z-matrix:
 Charge =  0 Multiplicity = 1

                         Standard orientation:
 ---------------------------------------------------------------------
 Center     Atomic      Atomic             Coordinates (Angstroms)
 Number     Number       Type             X           Y           Z
 ---------------------------------------------------------------------
      1          6           0       -0.658049   -0.022744    0.006316
      2          8           0        0.744076    0.098312   -0.017646
      3          1           0       -0.988046   -0.430053    0.965691
      4          1           0       -1.032727   -0.669491   -0.863019
      5          1           0       -1.073673    1.054324   -0.088830
      6          1           0        1.090134   -0.604814    0.089431
 ---------------------------------------------------------------------

 SCF Done:  E(RB2PLYPD3) =  -115.510013668     A.U. after   10 cycles
 E2(B2PLYPD3) =    -0.1447413280D+00 E(B2PLYPD3) =    -0.11565475499570D+03

 The electronic state is 1-A.
 Alpha  occ. eigenvalues --  -19.70832 -10.67171  -1.21128  -0.79877  -0.61025
 Alpha  occ. eigenvalues --   -0.52076  -0.49905  -0.40912  -0.35815
 Alpha virt. eigenvalues --    0.05371   0.08972   0.11995   0.12124   0.14709
 Alpha virt. eigenvalues --    0.17071   0.17870   0.28877   0.33043   0.33530
 Alpha virt. eigenvalues --    0.37088   0.38428   0.40092   0.40573   0.43025

 Mulliken charges:
               1
     1  C    0.059497
     2  O   -0.339226
     3  H    0.052954
     4  H    0.047342
     5  H    0.069440
     6  H    0.109993
 Sum of Mulliken charges =   0.00000

 Dipole moment (field-independent basis, Debye):
    X=             -0.8540    Y=             -1.3405    Z=              0.2610  Tot=              1.6107
 Quadrupole moment (field-independent basis, Debye-Ang):
   XX=            -13.2001   YY=            -12.4418   ZZ=            -13.5981
   XY=             -1.9930   XZ=              0.2556   YZ=             -0.1346

 Normal termination of Gaussian 09 at Wed Aug 26 23:49:52 2020.
