 Gaussian 09, Revision D.01,
 Gaussian 09:  ES64L-G09RevD.01 24-Apr-2013

 --------------------
 #p B2PLYPD3/Def2QZVP
 --------------------

 --------
 methanol
 --------
 Symbolic Z-matrix:
 Charge =  0 Multiplicity = 1

                         Standard orientation:
 ---------------------------------------------------------------------
 Center     Atomic      Atomic             Coordinates (Angstroms)
 Number     Number       Type             X           Y           Z
 ---------------------------------------------------------------------
      1          6           0        0.647101   -0.023592   -0.022218
      2          8           0       -0.737407    0.089051    0.000699
      3          1           0        0.849862   -0.875841   -0.739500
      4          1           0        1.141894   -0.220250    1.116290
      5          1           0        1.154983    0.965547   -0.366420
      6          1           0       -1.130092   -0.440307    0.117348
 ---------------------------------------------------------------------

 SCF Done:  E(RB2PLYPD3) =  -115.362980559     A.U. after   11 cycles
 E2(B2PLYPD3) =    -0.1437654050D+00 E(B2PLYPD3) =    -0.11550674596386D+03

 The electronic state is 1-A.
 Alpha  occ. eigenvalues --  -19.69534 -10.69245  -1.25999  -0.82634  -0.61941
 Alpha  occ. eigenvalues --   -0.52497  -0.50423  -0.39722  -0.35480
 Alpha virt. eigenvalues --    0.05247   0.09078   0.11639   0.12117   0.14102
 Alpha virt. eigenvalues --    0.17097   0.17767   0.28375   0.31783   0.33348
 Alpha virt. eigenvalues --    0.35734   0.36625   0.39328   0.40975   0.43234

 Mulliken charges:
               1
     1  C    0.049904
     2  O   -0.207251
     3  H    0.052141
     4  H    0.031429
     5  H    0.082894
     6  H   -0.009117
 Sum of Mulliken charges =   0.00000

 Dipole moment (field-independent basis, Debye):
    X=              0.6902    Y=             -1.0953    Z=              0.0703  Tot=              1.2966
 Quadrupole moment (field-independent basis, Debye-Ang):
   XX=            -12.8914   YY=            -12.8221   ZZ=            -13.6323
   XY=              2.0785   XZ=             -0.4178   YZ=             -0.0479

 Normal termination of Gaussian 09 at Wed Aug 26 23:50:23 2020.
