 Gaussian 09, Revision D.01,
 Gaussian 09:  ES64L-G09RevD.01 24-Apr-2013

 --------------------
 #p B2PLYPD3/Def2QZVP
 --------------------

 --------
 methanol
 --------
 Symbolic Z-matrix:
 Charge =  0 Multiplicity = 1

                         Standard orientation:
 ---------------------------------------------------------------------
 Center     Atomic      Atomic             Coordinates (Angstroms)
 Number     Number       Type             X           Y           Z
 ---------------------------------------------------------------------
      1          6           0        0.654587   -0.023677   -0.003627
      2          8           0       -0.741694    0.132794    0.000497
      3          1           0        1.006555   -0.543942   -0.877586
      4          1           0        1.053633   -0.503259    0.890987
      5          1           0        1.084272    0.946222   -0.014960
      6          1           0       -1.138428   -0.819315    0.019341
 ---------------------------------------------------------------------

 SCF Done:  E(RB2PLYPD3) =  -115.546431818     A.U. after   10 cycles
 E2(B2PLYPD3) =    -0.1482958104D+00 E(B2PLYPD3) =    -0.11569472762811D+03

 The electronic state is 1-A.
 Alpha  occ. eigenvalues --  -19.73270 -10.64842  -1.15457  -0.78435  -0.57965
 Alpha  occ. eigenvalues --   -0.52083  -0.50059  -0.40820  -0.35277
 Alpha virt. eigenvalues --    0.04440   0.08028   0.12442   0.12655   0.14878
 Alpha virt. eigenvalues --    0.17421   0.18352   0.29014   0.32197   0.33402
 Alpha virt. eigenvalues --    0.34608   0.38881   0.40243   0.41403   0.43880

 Mulliken charges:
               1
     1  C    0.068945
     2  O   -0.468150
     3  H    0.046334
     4  H    0.044161
     5  H    0.066061
     6  H    0.242649
 Sum of Mulliken charges =   0.00000

 Dipole moment (field-independent basis, Debye):
    X=              0.8439    Y=             -1.5474    Z=              0.0177  Tot=              1.7627
 Quadrupole moment (field-independent basis, Debye-Ang):
   XX=            -13.0446   YY=            -12.1661   ZZ=            -13.8082
   XY=              2.3397   XZ=             -0.0182   YZ=             -0.0006

 Normal termination of Gaussian 09 at Thu Aug 27 00:06:27 2020.
