 Gaussian 09, Revision D.01,
 Gaussian 09:  ES64L-G09RevD.01 24-Apr-2013

 --------------------
 #p B2PLYPD3/Def2QZVP
 --------------------

 --------
 methanol
 --------
 Symbolic Z-matrix:
 Charge =  0 Multiplicity = 1

                         Standard orientation:
 ---------------------------------------------------------------------
 Center     Atomic      Atomic             Coordinates (Angstroms)
 Number     Number       Type             X           Y           Z
 ---------------------------------------------------------------------
      1          6           0       -0.664615   -0.022245   -0.004213
      2          8           0        0.747678    0.132933    0.002945
      3          1           0       -1.035878   -0.542474    0.865244
      4          1           0       -0.968275   -0.577518   -0.853869
      5          1           0       -1.147502    0.965104   -0.020072
      6          1           0        1.157921   -0.775108    0.010417
 ---------------------------------------------------------------------

 SCF Done:  E(RB2PLYPD3) =  -115.549825248     A.U. after   10 cycles
 E2(B2PLYPD3) =    -0.1477397579D+00 E(B2PLYPD3) =    -0.11569756500555D+03

 The electronic state is 1-A.
 Alpha  occ. eigenvalues --  -19.72802 -10.65185  -1.15370  -0.78678  -0.58310
 Alpha  occ. eigenvalues --   -0.51965  -0.49803  -0.40956  -0.35251
 Alpha virt. eigenvalues --    0.04718   0.08068   0.12462   0.12548   0.14845
 Alpha virt. eigenvalues --    0.17615   0.17940   0.29280   0.33054   0.33378
 Alpha virt. eigenvalues --    0.33904   0.39033   0.39915   0.41280   0.44412

 Mulliken charges:
               1
     1  C    0.077996
     2  O   -0.472559
     3  H    0.044536
     4  H    0.046686
     5  H    0.068499
     6  H    0.234842
 Sum of Mulliken charges =   0.00000

 Dipole moment (field-independent basis, Debye):
    X=             -0.8820    Y=             -1.5737    Z=             -0.0051  Tot=              1.8040
 Quadrupole moment (field-independent basis, Debye-Ang):
   XX=            -12.9070   YY=            -12.1683   ZZ=            -13.8672
   XY=             -2.3485   XZ=             -0.0172   YZ=              0.0125

 Normal termination of Gaussian 09 at Wed Aug 26 22:19:49 2020.
