 Gaussian 09, Revision D.01,
 Gaussian 09:  ES64L-G09RevD.01 24-Apr-2013

 --------------------
 #p B2PLYPD3/Def2QZVP
 --------------------

 --------
 methanol
 --------
 Symbolic Z-matrix:
 Charge =  0 Multiplicity = 1

                         Standard orientation:
 ---------------------------------------------------------------------
 Center     Atomic      Atomic             Coordinates (Angstroms)
 Number     Number       Type             X           Y           Z
 ---------------------------------------------------------------------
      1          6           0       -0.671577    0.010348   -0.002748
      2          8           0        0.754217   -0.139221    0.002950
      3          1           0       -1.059534    0.511312   -0.854204
      4          1           0       -1.030346    0.563016    0.856176
      5          1           0       -1.065602   -0.915570    0.018639
      6          1           0        1.151209    0.892925   -0.027722
 ---------------------------------------------------------------------

 SCF Done:  E(RB2PLYPD3) =  -115.529460540     A.U. after   11 cycles
 E2(B2PLYPD3) =    -0.1499294681D+00 E(B2PLYPD3) =    -0.11567939000793D+03

 The electronic state is 1-A.
 Alpha  occ. eigenvalues --  -19.73762 -10.64159  -1.13405  -0.78970  -0.56889
 Alpha  occ. eigenvalues --   -0.51338  -0.49828  -0.41442  -0.35122
 Alpha virt. eigenvalues --    0.03693   0.07799   0.12583   0.12662   0.14915
 Alpha virt. eigenvalues --    0.17408   0.18209   0.28728   0.30194   0.33324
 Alpha virt. eigenvalues --    0.33721   0.38823   0.40483   0.41166   0.43775

 Mulliken charges:
               1
     1  C    0.081201
     2  O   -0.489983
     3  H    0.044230
     4  H    0.042241
     5  H    0.071789
     6  H    0.250523
 Sum of Mulliken charges =   0.00000

 Dipole moment (field-independent basis, Debye):
    X=             -0.9836    Y=              1.5961    Z=             -0.0662  Tot=              1.8760
 Quadrupole moment (field-independent basis, Debye-Ang):
   XX=            -13.0346   YY=            -11.8727   ZZ=            -13.9312
   XY=              2.3786   XZ=             -0.0165   YZ=             -0.0521

 Normal termination of Gaussian 09 at Thu Aug 27 00:11:24 2020.
