 Gaussian 09, Revision D.01,
 Gaussian 09:  ES64L-G09RevD.01 24-Apr-2013

 --------------------
 #p B2PLYPD3/Def2QZVP
 --------------------

 --------
 methanol
 --------
 Symbolic Z-matrix:
 Charge =  0 Multiplicity = 1

                         Standard orientation:
 ---------------------------------------------------------------------
 Center     Atomic      Atomic             Coordinates (Angstroms)
 Number     Number       Type             X           Y           Z
 ---------------------------------------------------------------------
      1          6           0       -0.671543   -0.029009   -0.000606
      2          8           0        0.766088    0.093736   -0.019621
      3          1           0       -1.030111   -0.302543    0.986445
      4          1           0       -1.083465   -0.831540   -0.716945
      5          1           0       -1.155307    1.099820   -0.208417
      6          1           0        1.169436   -0.541570    0.099520
 ---------------------------------------------------------------------

 SCF Done:  E(RB2PLYPD3) =  -115.476717129     A.U. after   11 cycles
 E2(B2PLYPD3) =    -0.1452478235D+00 E(B2PLYPD3) =    -0.11562196495242D+03

 The electronic state is 1-A.
 Alpha  occ. eigenvalues --  -19.70615 -10.68583  -1.20927  -0.80185  -0.61431
 Alpha  occ. eigenvalues --   -0.51125  -0.48622  -0.40403  -0.36101
 Alpha virt. eigenvalues --    0.05219   0.08655   0.11350   0.12280   0.14757
 Alpha virt. eigenvalues --    0.16865   0.18040   0.29004   0.31869   0.33048
 Alpha virt. eigenvalues --    0.34304   0.38109   0.39608   0.40683   0.41894

 Mulliken charges:
               1
     1  C    0.059933
     2  O   -0.321280
     3  H    0.061684
     4  H    0.052742
     5  H    0.067427
     6  H    0.079492
 Sum of Mulliken charges =   0.00000

 Dipole moment (field-independent basis, Debye):
    X=             -0.8978    Y=             -1.3441    Z=              0.3328  Tot=              1.6503
 Quadrupole moment (field-independent basis, Debye-Ang):
   XX=            -12.7157   YY=            -12.5334   ZZ=            -13.8509
   XY=             -1.9217   XZ=              0.2875   YZ=             -0.0937

 Normal termination of Gaussian 09 at Wed Aug 26 23:53:47 2020.
