 Gaussian 09, Revision D.01,
 Gaussian 09:  ES64L-G09RevD.01 24-Apr-2013

 --------------------
 #p B2PLYPD3/Def2QZVP
 --------------------

 --------
 methanol
 --------
 Symbolic Z-matrix:
 Charge =  0 Multiplicity = 1

                         Standard orientation:
 ---------------------------------------------------------------------
 Center     Atomic      Atomic             Coordinates (Angstroms)
 Number     Number       Type             X           Y           Z
 ---------------------------------------------------------------------
      1          6           0        0.658463   -0.019652    0.000051
      2          8           0       -0.741293    0.112863   -0.009204
      3          1           0        0.977681   -0.683982   -0.839513
      4          1           0        1.057937   -0.375019    0.961240
      5          1           0        1.046707    0.983769   -0.141578
      6          1           0       -1.102762   -0.709763    0.093175
 ---------------------------------------------------------------------

 SCF Done:  E(RB2PLYPD3) =  -115.549739669     A.U. after   10 cycles
 E2(B2PLYPD3) =    -0.1462363747D+00 E(B2PLYPD3) =    -0.11569597604418D+03

 The electronic state is 1-A.
 Alpha  occ. eigenvalues --  -19.72019 -10.65874  -1.17913  -0.78950  -0.59540
 Alpha  occ. eigenvalues --   -0.52130  -0.50116  -0.41116  -0.35435
 Alpha virt. eigenvalues --    0.05178   0.08558   0.12198   0.12461   0.14785
 Alpha virt. eigenvalues --    0.17148   0.18136   0.29001   0.33073   0.33992
 Alpha virt. eigenvalues --    0.36630   0.38747   0.40070   0.40951   0.43735

 Mulliken charges:
               1
     1  C    0.064037
     2  O   -0.428178
     3  H    0.045059
     4  H    0.048456
     5  H    0.070875
     6  H    0.199751
 Sum of Mulliken charges =   0.00000

 Dipole moment (field-independent basis, Debye):
    X=              0.8512    Y=             -1.4198    Z=              0.1894  Tot=              1.6662
 Quadrupole moment (field-independent basis, Debye-Ang):
   XX=            -13.1967   YY=            -12.2914   ZZ=            -13.6733
   XY=              2.1724   XZ=             -0.1735   YZ=             -0.1172

 Normal termination of Gaussian 09 at Wed Aug 26 11:24:41 2020.
