 Gaussian 09, Revision D.01,
 Gaussian 09:  ES64L-G09RevD.01 24-Apr-2013

 --------------------
 #p B2PLYPD3/Def2QZVP
 --------------------

 --------
 methanol
 --------
 Symbolic Z-matrix:
 Charge =  0 Multiplicity = 1

                         Standard orientation:
 ---------------------------------------------------------------------
 Center     Atomic      Atomic             Coordinates (Angstroms)
 Number     Number       Type             X           Y           Z
 ---------------------------------------------------------------------
      1          6           0       -0.682641    0.024106    0.012168
      2          8           0        0.743834   -0.154740   -0.012262
      3          1           0       -1.003770    0.592021   -0.849483
      4          1           0       -1.037290    0.420943    0.853171
      5          1           0       -1.021117   -0.876592   -0.058009
      6          1           0        1.207354    0.956909    0.079407
 ---------------------------------------------------------------------

 SCF Done:  E(RB2PLYPD3) =  -115.494631404     A.U. after   11 cycles
 E2(B2PLYPD3) =    -0.1517141771D+00 E(B2PLYPD3) =    -0.11564634558112D+03

 The electronic state is 1-A.
 Alpha  occ. eigenvalues --  -19.74054 -10.62799  -1.12092  -0.79614  -0.56145
 Alpha  occ. eigenvalues --   -0.52462  -0.49092  -0.40752  -0.35132
 Alpha virt. eigenvalues --    0.02412   0.07729   0.12584   0.12820   0.14781
 Alpha virt. eigenvalues --    0.17072   0.18456   0.26423   0.29442   0.33199
 Alpha virt. eigenvalues --    0.33935   0.38547   0.40626   0.42166   0.44492

 Mulliken charges:
               1
     1  C    0.084997
     2  O   -0.501050
     3  H    0.045589
     4  H    0.049177
     5  H    0.071745
     6  H    0.249542
 Sum of Mulliken charges =   0.00000

 Dipole moment (field-independent basis, Debye):
    X=             -1.0054    Y=              1.6122    Z=              0.1970  Tot=              1.9102
 Quadrupole moment (field-independent basis, Debye-Ang):
   XX=            -12.9397   YY=            -11.8042   ZZ=            -13.7645
   XY=              2.4780   XZ=              0.0725   YZ=              0.1487

 Normal termination of Gaussian 09 at Wed Aug 26 14:45:20 2020.
