 Gaussian 09, Revision D.01,
 Gaussian 09:  ES64L-G09RevD.01 24-Apr-2013

 --------------------
 #p B2PLYPD3/Def2QZVP
 --------------------

 --------
 methanol
 --------
 Symbolic Z-matrix:
 Charge =  0 Multiplicity = 1

                         Standard orientation:
 ---------------------------------------------------------------------
 Center     Atomic      Atomic             Coordinates (Angstroms)
 Number     Number       Type             X           Y           Z
 ---------------------------------------------------------------------
      1          6           0        0.664737    0.061088   -0.021471
      2          8           0       -0.748462   -0.214207    0.005626
      3          1           0        1.040801    0.476349    0.778765
      4          1           0        1.042491    0.509592   -0.672195
      5          1           0        1.223974   -0.821829   -0.007985
      6          1           0       -1.307991    1.183023   -0.014767
 ---------------------------------------------------------------------

 SCF Done:  E(RB2PLYPD3) =  -115.379087443     A.U. after   12 cycles
 E2(B2PLYPD3) =    -0.1583897081D+00 E(B2PLYPD3) =    -0.11553747715126D+03

 The electronic state is 1-A.
 Alpha  occ. eigenvalues --  -19.76353 -10.61179  -1.10866  -0.82470  -0.54528
 Alpha  occ. eigenvalues --   -0.52218  -0.48982  -0.38607  -0.35867
 Alpha virt. eigenvalues --   -0.03550   0.07077   0.12614   0.13307   0.14522
 Alpha virt. eigenvalues --    0.18058   0.18815   0.20896   0.29434   0.33297
 Alpha virt. eigenvalues --    0.34454   0.37769   0.39773   0.42369   0.45221

 Mulliken charges:
               1
     1  C    0.085070
     2  O   -0.468679
     3  H    0.045180
     4  H    0.072457
     5  H    0.041003
     6  H    0.224970
 Sum of Mulliken charges =   0.00000

 Dipole moment (field-independent basis, Debye):
    X=              1.1147    Y=              1.8490    Z=             -0.0600  Tot=              2.1599
 Quadrupole moment (field-independent basis, Debye-Ang):
   XX=            -12.4771   YY=            -11.5259   ZZ=            -14.1252
   XY=             -2.5266   XZ=             -0.0034   YZ=             -0.1056

 Normal termination of Gaussian 09 at Wed Aug 26 22:54:23 2020.
