 Gaussian 09, Revision D.01,
 Gaussian 09:  ES64L-G09RevD.01 24-Apr-2013

 --------------------
 #p B2PLYPD3/Def2QZVP
 --------------------

 --------
 methanol
 --------
 Symbolic Z-matrix:
 Charge =  0 Multiplicity = 1

                         Standard orientation:
 ---------------------------------------------------------------------
 Center     Atomic      Atomic             Coordinates (Angstroms)
 Number     Number       Type             X           Y           Z
 ---------------------------------------------------------------------
      1          6           0       -0.682962   -0.017309    0.011948
      2          8           0        0.748067    0.098597   -0.002985
      3          1           0       -1.042552   -0.496918    0.916674
      4          1           0       -0.955747   -0.657031   -0.901939
      5          1           0       -1.068845    1.049535   -0.104171
      6          1           0        1.180379   -0.580507    0.041625
 ---------------------------------------------------------------------

 SCF Done:  E(RB2PLYPD3) =  -115.516047580     A.U. after   10 cycles
 E2(B2PLYPD3) =    -0.1451024760D+00 E(B2PLYPD3) =    -0.11566115005646D+03

 The electronic state is 1-A.
 Alpha  occ. eigenvalues --  -19.70383 -10.67313  -1.19067  -0.80162  -0.60302
 Alpha  occ. eigenvalues --   -0.51491  -0.49901  -0.40466  -0.35465
 Alpha virt. eigenvalues --    0.05400   0.08809   0.12020   0.12134   0.14607
 Alpha virt. eigenvalues --    0.16845   0.17655   0.29157   0.32053   0.33259
 Alpha virt. eigenvalues --    0.37534   0.38508   0.39687   0.40574   0.42538

 Mulliken charges:
               1
     1  C    0.068551
     2  O   -0.378435
     3  H    0.058885
     4  H    0.046420
     5  H    0.080257
     6  H    0.124323
 Sum of Mulliken charges =   0.00000

 Dipole moment (field-independent basis, Debye):
    X=             -0.8635    Y=             -1.3250    Z=              0.1360  Tot=              1.5874
 Quadrupole moment (field-independent basis, Debye-Ang):
   XX=            -12.8393   YY=            -12.4397   ZZ=            -13.6556
   XY=             -2.1185   XZ=             -0.0104   YZ=             -0.1384

 Normal termination of Gaussian 09 at Wed Aug 26 12:40:56 2020.
