 Gaussian 09, Revision D.01,
 Gaussian 09:  ES64L-G09RevD.01 24-Apr-2013

 --------------------
 #p B2PLYPD3/Def2QZVP
 --------------------

 --------
 methanol
 --------
 Symbolic Z-matrix:
 Charge =  0 Multiplicity = 1

                         Standard orientation:
 ---------------------------------------------------------------------
 Center     Atomic      Atomic             Coordinates (Angstroms)
 Number     Number       Type             X           Y           Z
 ---------------------------------------------------------------------
      1          6           0       -0.673466   -0.011106    0.015903
      2          8           0        0.754418   -0.073300   -0.037152
      3          1           0       -0.990700    1.023520   -0.609450
      4          1           0       -1.003387    0.056680    1.072149
      5          1           0       -1.071376   -0.898966   -0.485410
      6          1           0        1.070912    0.471799    0.224506
 ---------------------------------------------------------------------

 SCF Done:  E(RB2PLYPD3) =  -115.392885671     A.U. after   11 cycles
 E2(B2PLYPD3) =    -0.1437586550D+00 E(B2PLYPD3) =    -0.11553664432567D+03

 The electronic state is 1-A.
 Alpha  occ. eigenvalues --  -19.69352 -10.68338  -1.24612  -0.81669  -0.61356
 Alpha  occ. eigenvalues --   -0.51683  -0.50798  -0.41334  -0.35669
 Alpha virt. eigenvalues --    0.05295   0.09305   0.11406   0.12218   0.14305
 Alpha virt. eigenvalues --    0.16998   0.17476   0.28576   0.31563   0.32627
 Alpha virt. eigenvalues --    0.35703   0.39102   0.40022   0.40673   0.42936

 Mulliken charges:
               1
     1  C    0.059089
     2  O   -0.245760
     3  H    0.030657
     4  H    0.058662
     5  H    0.092493
     6  H    0.004859
 Sum of Mulliken charges =   0.00000

 Dipole moment (field-independent basis, Debye):
    X=             -0.9984    Y=              0.9565    Z=              0.6131  Tot=              1.5124
 Quadrupole moment (field-independent basis, Debye-Ang):
   XX=            -13.2666   YY=            -12.6870   ZZ=            -13.2777
   XY=              1.9436   XZ=              0.7280   YZ=              0.4651

 Normal termination of Gaussian 09 at Wed Aug 26 15:18:58 2020.
