 Gaussian 09, Revision D.01,
 Gaussian 09:  ES64L-G09RevD.01 24-Apr-2013

 --------------------
 #p B2PLYPD3/Def2QZVP
 --------------------

 --------
 methanol
 --------
 Symbolic Z-matrix:
 Charge =  0 Multiplicity = 1

                         Standard orientation:
 ---------------------------------------------------------------------
 Center     Atomic      Atomic             Coordinates (Angstroms)
 Number     Number       Type             X           Y           Z
 ---------------------------------------------------------------------
      1          6           0       -0.666902   -0.031253   -0.008010
      2          8           0        0.735100    0.103019   -0.007151
      3          1           0       -0.894585   -0.581604    0.957170
      4          1           0       -1.011176   -0.514035   -0.937835
      5          1           0       -1.103345    1.025277    0.080215
      6          1           0        1.129715   -0.566276    0.005716
 ---------------------------------------------------------------------

 SCF Done:  E(RB2PLYPD3) =  -115.499639672     A.U. after   10 cycles
 E2(B2PLYPD3) =    -0.1444029910D+00 E(B2PLYPD3) =    -0.11564404266324D+03

 The electronic state is 1-A.
 Alpha  occ. eigenvalues --  -19.70129 -10.67129  -1.21067  -0.80470  -0.60574
 Alpha  occ. eigenvalues --   -0.52798  -0.50241  -0.40040  -0.35670
 Alpha virt. eigenvalues --    0.05431   0.09075   0.11954   0.12257   0.14214
 Alpha virt. eigenvalues --    0.17052   0.17824   0.28879   0.32697   0.33351
 Alpha virt. eigenvalues --    0.37077   0.38864   0.40248   0.40634   0.43637

 Mulliken charges:
               1
     1  C    0.061378
     2  O   -0.332542
     3  H    0.047886
     4  H    0.057548
     5  H    0.071767
     6  H    0.093963
 Sum of Mulliken charges =   0.00000

 Dipole moment (field-independent basis, Debye):
    X=             -0.8152    Y=             -1.3075    Z=              0.0084  Tot=              1.5408
 Quadrupole moment (field-independent basis, Debye-Ang):
   XX=            -13.0519   YY=            -12.6117   ZZ=            -13.4263
   XY=             -2.1381   XZ=              0.1635   YZ=              0.0615

 Normal termination of Gaussian 09 at Wed Aug 26 16:20:11 2020.
