 Gaussian 09, Revision D.01,
 Gaussian 09:  ES64L-G09RevD.01 24-Apr-2013

 --------------------
 #p B2PLYPD3/Def2QZVP
 --------------------

 --------
 methanol
 --------
 Symbolic Z-matrix:
 Charge =  0 Multiplicity = 1

                         Standard orientation:
 ---------------------------------------------------------------------
 Center     Atomic      Atomic             Coordinates (Angstroms)
 Number     Number       Type             X           Y           Z
 ---------------------------------------------------------------------
      1          6           0       -0.662585   -0.022918    0.001058
      2          8           0        0.731651    0.127223   -0.006953
      3          1           0       -0.888846   -0.505298    0.956128
      4          1           0       -1.020553   -0.598286   -0.856084
      5          1           0       -1.117961    0.949109   -0.035033
      6          1           0        1.149662   -0.725796   -0.015733
 ---------------------------------------------------------------------

 SCF Done:  E(RB2PLYPD3) =  -115.551130890     A.U. after   11 cycles
 E2(B2PLYPD3) =    -0.1466583350D+00 E(B2PLYPD3) =    -0.11569778922446D+03

 The electronic state is 1-A.
 Alpha  occ. eigenvalues --  -19.72032 -10.65337  -1.16712  -0.78758  -0.58720
 Alpha  occ. eigenvalues --   -0.52622  -0.50546  -0.40495  -0.35000
 Alpha virt. eigenvalues --    0.04992   0.08427   0.12220   0.12680   0.14557
 Alpha virt. eigenvalues --    0.17441   0.17881   0.29160   0.32742   0.34177
 Alpha virt. eigenvalues --    0.35077   0.39715   0.40194   0.41173   0.44096

 Mulliken charges:
               1
     1  C    0.070151
     2  O   -0.454958
     3  H    0.047548
     4  H    0.044018
     5  H    0.071688
     6  H    0.221553
 Sum of Mulliken charges =   0.00000

 Dipole moment (field-independent basis, Debye):
    X=             -0.7944    Y=             -1.4712    Z=             -0.0180  Tot=              1.6721
 Quadrupole moment (field-independent basis, Debye-Ang):
   XX=            -13.0191   YY=            -12.3198   ZZ=            -13.6665
   XY=             -2.3925   XZ=              0.1308   YZ=              0.0299

 Normal termination of Gaussian 09 at Wed Aug 26 15:37:23 2020.
