 Gaussian 09, Revision D.01,
 Gaussian 09:  ES64L-G09RevD.01 24-Apr-2013

 --------------------
 #p B2PLYPD3/Def2QZVP
 --------------------

 --------
 methanol
 --------
 Symbolic Z-matrix:
 Charge =  0 Multiplicity = 1

                         Standard orientation:
 ---------------------------------------------------------------------
 Center     Atomic      Atomic             Coordinates (Angstroms)
 Number     Number       Type             X           Y           Z
 ---------------------------------------------------------------------
      1          6           0       -0.661243   -0.007615   -0.007306
      2          8           0        0.752578    0.102667   -0.000999
      3          1           0       -1.028744   -0.575060    0.933553
      4          1           0       -1.015586   -0.564588   -0.928967
      5          1           0       -1.117582    0.995760    0.026236
      6          1           0        1.108749   -0.631761    0.021009
 ---------------------------------------------------------------------

 SCF Done:  E(RB2PLYPD3) =  -115.523845356     A.U. after   10 cycles
 E2(B2PLYPD3) =    -0.1452424732D+00 E(B2PLYPD3) =    -0.11566908782949D+03

 The electronic state is 1-A.
 Alpha  occ. eigenvalues --  -19.71241 -10.67292  -1.19963  -0.79622  -0.60400
 Alpha  occ. eigenvalues --   -0.51330  -0.50601  -0.41089  -0.35525
 Alpha virt. eigenvalues --    0.05349   0.08730   0.11985   0.12361   0.14585
 Alpha virt. eigenvalues --    0.17359   0.17830   0.28934   0.32883   0.33126
 Alpha virt. eigenvalues --    0.36861   0.39095   0.39548   0.39906   0.43128

 Mulliken charges:
               1
     1  C    0.063956
     2  O   -0.370143
     3  H    0.039958
     4  H    0.047933
     5  H    0.079469
     6  H    0.138827
 Sum of Mulliken charges =   0.00000

 Dipole moment (field-independent basis, Debye):
    X=             -0.8883    Y=             -1.3167    Z=              0.0208  Tot=              1.5884
 Quadrupole moment (field-independent basis, Debye-Ang):
   XX=            -13.0650   YY=            -12.4465   ZZ=            -13.7327
   XY=             -2.1929   XZ=              0.0605   YZ=              0.0254

 Normal termination of Gaussian 09 at Wed Aug 26 23:11:43 2020.
