 Gaussian 09, Revision D.01,
 Gaussian 09:  ES64L-G09RevD.01 24-Apr-2013

 --------------------
 #p B2PLYPD3/Def2QZVP
 --------------------

 --------
 methanol
 --------
 Symbolic Z-matrix:
 Charge =  0 Multiplicity = 1

                         Standard orientation:
 ---------------------------------------------------------------------
 Center     Atomic      Atomic             Coordinates (Angstroms)
 Number     Number       Type             X           Y           Z
 ---------------------------------------------------------------------
      1          6           0        0.666311    0.037039   -0.005689
      2          8           0       -0.749824   -0.165525    0.009808
      3          1           0        1.052783    0.556169    0.802002
      4          1           0        1.081602    0.510791   -0.759287
      5          1           0        1.121836   -0.940146   -0.021364
      6          1           0       -1.255500    0.975149   -0.065678
 ---------------------------------------------------------------------

 SCF Done:  E(RB2PLYPD3) =  -115.488571635     A.U. after   11 cycles
 E2(B2PLYPD3) =    -0.1527826145D+00 E(B2PLYPD3) =    -0.11564135424931D+03

 The electronic state is 1-A.
 Alpha  occ. eigenvalues --  -19.74897 -10.63389  -1.12113  -0.79468  -0.55678
 Alpha  occ. eigenvalues --   -0.51766  -0.48700  -0.40356  -0.35314
 Alpha virt. eigenvalues --    0.01544   0.07354   0.12380   0.13107   0.15091
 Alpha virt. eigenvalues --    0.17445   0.18436   0.24989   0.29534   0.33557
 Alpha virt. eigenvalues --    0.34337   0.37969   0.39296   0.42216   0.44594

 Mulliken charges:
               1
     1  C    0.089565
     2  O   -0.490048
     3  H    0.044775
     4  H    0.045900
     5  H    0.057872
     6  H    0.251936
 Sum of Mulliken charges =   0.00000

 Dipole moment (field-independent basis, Debye):
    X=              0.9089    Y=              1.7587    Z=             -0.1663  Tot=              1.9867
 Quadrupole moment (field-independent basis, Debye-Ang):
   XX=            -12.5935   YY=            -11.8023   ZZ=            -14.1468
   XY=             -2.4165   XZ=              0.0556   YZ=             -0.0922

 Normal termination of Gaussian 09 at Wed Aug 26 14:36:03 2020.
