 Gaussian 09, Revision D.01,
 Gaussian 09:  ES64L-G09RevD.01 24-Apr-2013

 --------------------
 #p B2PLYPD3/Def2QZVP
 --------------------

 --------
 methanol
 --------
 Symbolic Z-matrix:
 Charge =  0 Multiplicity = 1

                         Standard orientation:
 ---------------------------------------------------------------------
 Center     Atomic      Atomic             Coordinates (Angstroms)
 Number     Number       Type             X           Y           Z
 ---------------------------------------------------------------------
      1          6           0        0.661645    0.019243    0.002154
      2          8           0       -0.750828   -0.142154   -0.008613
      3          1           0        1.014280    0.457649    0.889252
      4          1           0        1.023606    0.582003   -0.847171
      5          1           0        1.113821   -0.901892   -0.035703
      6          1           0       -1.114952    0.884014    0.049600
 ---------------------------------------------------------------------

 SCF Done:  E(RB2PLYPD3) =  -115.533516000     A.U. after   11 cycles
 E2(B2PLYPD3) =    -0.1494911332D+00 E(B2PLYPD3) =    -0.11568300713288D+03

 The electronic state is 1-A.
 Alpha  occ. eigenvalues --  -19.73706 -10.64140  -1.14118  -0.78863  -0.56824
 Alpha  occ. eigenvalues --   -0.52163  -0.50007  -0.41085  -0.35298
 Alpha virt. eigenvalues --    0.03855   0.07883   0.12446   0.12789   0.14723
 Alpha virt. eigenvalues --    0.17728   0.18325   0.28843   0.30268   0.33414
 Alpha virt. eigenvalues --    0.33937   0.39105   0.40818   0.41604   0.43560

 Mulliken charges:
               1
     1  C    0.079475
     2  O   -0.482677
     3  H    0.045136
     4  H    0.042852
     5  H    0.065117
     6  H    0.250095
 Sum of Mulliken charges =   0.00000

 Dipole moment (field-independent basis, Debye):
    X=              0.9920    Y=              1.5926    Z=              0.1210  Tot=              1.8802
 Quadrupole moment (field-independent basis, Debye-Ang):
   XX=            -13.1454   YY=            -11.9922   ZZ=            -13.8076
   XY=             -2.3811   XZ=             -0.0946   YZ=              0.0706

 Normal termination of Gaussian 09 at Wed Aug 26 09:55:03 2020.
