 Gaussian 09, Revision D.01,
 Gaussian 09:  ES64L-G09RevD.01 24-Apr-2013

 --------------------
 #p B2PLYPD3/Def2QZVP
 --------------------

 --------
 methanol
 --------
 Symbolic Z-matrix:
 Charge =  0 Multiplicity = 1

                         Standard orientation:
 ---------------------------------------------------------------------
 Center     Atomic      Atomic             Coordinates (Angstroms)
 Number     Number       Type             X           Y           Z
 ---------------------------------------------------------------------
      1          6           0        0.674462   -0.010083    0.000070
      2          8           0       -0.746202    0.106866   -0.013549
      3          1           0        1.016555   -0.679728   -0.851495
      4          1           0        1.030473   -0.432930    0.957727
      5          1           0        1.040288    0.991685   -0.090921
      6          1           0       -1.164468   -0.673459    0.092661
 ---------------------------------------------------------------------

 SCF Done:  E(RB2PLYPD3) =  -115.546892927     A.U. after   10 cycles
 E2(B2PLYPD3) =    -0.1461660728D+00 E(B2PLYPD3) =    -0.11569305900007D+03

 The electronic state is 1-A.
 Alpha  occ. eigenvalues --  -19.71594 -10.66279  -1.17197  -0.79332  -0.59324
 Alpha  occ. eigenvalues --   -0.51349  -0.50359  -0.40978  -0.35259
 Alpha virt. eigenvalues --    0.05256   0.08503   0.12182   0.12425   0.14780
 Alpha virt. eigenvalues --    0.16956   0.17919   0.29153   0.32942   0.33331
 Alpha virt. eigenvalues --    0.36970   0.39129   0.39677   0.40347   0.43325

 Mulliken charges:
               1
     1  C    0.070173
     2  O   -0.438173
     3  H    0.045933
     4  H    0.048113
     5  H    0.080117
     6  H    0.193837
 Sum of Mulliken charges =   0.00000

 Dipole moment (field-independent basis, Debye):
    X=              0.8430    Y=             -1.3731    Z=              0.2213  Tot=              1.6264
 Quadrupole moment (field-independent basis, Debye-Ang):
   XX=            -12.9414   YY=            -12.3139   ZZ=            -13.7297
   XY=              2.2202   XZ=             -0.2307   YZ=             -0.1266

 Normal termination of Gaussian 09 at Thu Aug 27 00:06:33 2020.
