 Gaussian 09, Revision D.01,
 Gaussian 09:  ES64L-G09RevD.01 24-Apr-2013

 --------------------
 #p B2PLYPD3/Def2QZVP
 --------------------

 --------
 methanol
 --------
 Symbolic Z-matrix:
 Charge =  0 Multiplicity = 1

                         Standard orientation:
 ---------------------------------------------------------------------
 Center     Atomic      Atomic             Coordinates (Angstroms)
 Number     Number       Type             X           Y           Z
 ---------------------------------------------------------------------
      1          6           0        0.654286    0.019476    0.006611
      2          8           0       -0.740621   -0.141457   -0.003797
      3          1           0        1.028572    0.501172    0.850676
      4          1           0        0.997555    0.585026   -0.846404
      5          1           0        1.109956   -0.932368   -0.042067
      6          1           0       -1.136834    0.860974    0.028506
 ---------------------------------------------------------------------

 SCF Done:  E(RB2PLYPD3) =  -115.537478301     A.U. after   11 cycles
 E2(B2PLYPD3) =    -0.1489717468D+00 E(B2PLYPD3) =    -0.11568645004775D+03

 The electronic state is 1-A.
 Alpha  occ. eigenvalues --  -19.73566 -10.64218  -1.14801  -0.78580  -0.57645
 Alpha  occ. eigenvalues --   -0.52049  -0.50082  -0.40996  -0.35083
 Alpha virt. eigenvalues --    0.03937   0.07950   0.12629   0.12632   0.14973
 Alpha virt. eigenvalues --    0.17646   0.18134   0.29063   0.30628   0.33318
 Alpha virt. eigenvalues --    0.34654   0.39341   0.40009   0.41752   0.44116

 Mulliken charges:
               1
     1  C    0.079788
     2  O   -0.476621
     3  H    0.043620
     4  H    0.038572
     5  H    0.065441
     6  H    0.249199
 Sum of Mulliken charges =   0.00000

 Dipole moment (field-independent basis, Debye):
    X=              0.8786    Y=              1.6153    Z=              0.0827  Tot=              1.8407
 Quadrupole moment (field-independent basis, Debye-Ang):
   XX=            -13.0555   YY=            -11.9804   ZZ=            -13.9009
   XY=             -2.3634   XZ=             -0.0080   YZ=              0.0748

 Normal termination of Gaussian 09 at Wed Aug 26 10:37:19 2020.
