 Gaussian 09, Revision D.01,
 Gaussian 09:  ES64L-G09RevD.01 24-Apr-2013

 --------------------
 #p B2PLYPD3/Def2QZVP
 --------------------

 --------
 methanol
 --------
 Symbolic Z-matrix:
 Charge =  0 Multiplicity = 1

                         Standard orientation:
 ---------------------------------------------------------------------
 Center     Atomic      Atomic             Coordinates (Angstroms)
 Number     Number       Type             X           Y           Z
 ---------------------------------------------------------------------
      1          6           0       -0.668267    0.016195    0.008755
      2          8           0        0.744900   -0.132359   -0.010206
      3          1           0       -1.020237    0.620807   -0.835029
      4          1           0       -0.986618    0.465825    0.883068
      5          1           0       -1.066187   -0.953129   -0.062338
      6          1           0        1.123445    0.828196    0.043423
 ---------------------------------------------------------------------

 SCF Done:  E(RB2PLYPD3) =  -115.544007470     A.U. after   10 cycles
 E2(B2PLYPD3) =    -0.1483368694D+00 E(B2PLYPD3) =    -0.11569234433951D+03

 The electronic state is 1-A.
 Alpha  occ. eigenvalues --  -19.73001 -10.64438  -1.14802  -0.78801  -0.57948
 Alpha  occ. eigenvalues --   -0.52093  -0.49777  -0.41393  -0.35160
 Alpha virt. eigenvalues --    0.04415   0.08154   0.12472   0.12551   0.14927
 Alpha virt. eigenvalues --    0.17346   0.17984   0.29203   0.32177   0.33336
 Alpha virt. eigenvalues --    0.34052   0.39137   0.40171   0.41559   0.44455

 Mulliken charges:
               1
     1  C    0.080055
     2  O   -0.478907
     3  H    0.040442
     4  H    0.048137
     5  H    0.070525
     6  H    0.239749
 Sum of Mulliken charges =   0.00000

 Dipole moment (field-independent basis, Debye):
    X=             -0.9489    Y=              1.5696    Z=              0.1410  Tot=              1.8396
 Quadrupole moment (field-independent basis, Debye-Ang):
   XX=            -13.1748   YY=            -11.9581   ZZ=            -13.8033
   XY=              2.2909   XZ=              0.0846   YZ=              0.1091

 Normal termination of Gaussian 09 at Wed Aug 26 23:57:53 2020.
