 Gaussian 09, Revision D.01,
 Gaussian 09:  ES64L-G09RevD.01 24-Apr-2013

 --------------------
 #p B2PLYPD3/Def2QZVP
 --------------------

 --------
 methanol
 --------
 Symbolic Z-matrix:
 Charge =  0 Multiplicity = 1

                         Standard orientation:
 ---------------------------------------------------------------------
 Center     Atomic      Atomic             Coordinates (Angstroms)
 Number     Number       Type             X           Y           Z
 ---------------------------------------------------------------------
      1          6           0       -0.669675    0.015136    0.010107
      2          8           0        0.743757   -0.141250   -0.014522
      3          1           0       -1.004632    0.625359   -0.850179
      4          1           0       -0.995562    0.468956    0.869085
      5          1           0       -1.092342   -0.914556   -0.042443
      6          1           0        1.160529    0.859422    0.079075
 ---------------------------------------------------------------------

 SCF Done:  E(RB2PLYPD3) =  -115.532774198     A.U. after   11 cycles
 E2(B2PLYPD3) =    -0.1492552043D+00 E(B2PLYPD3) =    -0.11568202940249D+03

 The electronic state is 1-A.
 Alpha  occ. eigenvalues --  -19.73375 -10.64108  -1.13892  -0.78863  -0.57165
 Alpha  occ. eigenvalues --   -0.51854  -0.50120  -0.41079  -0.34981
 Alpha virt. eigenvalues --    0.03888   0.07943   0.12503   0.12698   0.14833
 Alpha virt. eigenvalues --    0.17482   0.18061   0.29057   0.30564   0.33170
 Alpha virt. eigenvalues --    0.33901   0.39090   0.40677   0.41389   0.44188

 Mulliken charges:
               1
     1  C    0.083379
     2  O   -0.489055
     3  H    0.039831
     4  H    0.046000
     5  H    0.070712
     6  H    0.249133
 Sum of Mulliken charges =   0.00000

 Dipole moment (field-independent basis, Debye):
    X=             -0.9226    Y=              1.5804    Z=              0.2251  Tot=              1.8438
 Quadrupole moment (field-independent basis, Debye-Ang):
   XX=            -13.0222   YY=            -11.9668   ZZ=            -13.8341
   XY=              2.4378   XZ=              0.1152   YZ=              0.1581

 Normal termination of Gaussian 09 at Wed Aug 26 09:53:55 2020.
