 Gaussian 09, Revision D.01,
 Gaussian 09:  ES64L-G09RevD.01 24-Apr-2013

 --------------------
 #p B2PLYPD3/Def2QZVP
 --------------------

 --------
 methanol
 --------
 Symbolic Z-matrix:
 Charge =  0 Multiplicity = 1

                         Standard orientation:
 ---------------------------------------------------------------------
 Center     Atomic      Atomic             Coordinates (Angstroms)
 Number     Number       Type             X           Y           Z
 ---------------------------------------------------------------------
      1          6           0        0.654554   -0.009015    0.006725
      2          8           0       -0.743077    0.111850   -0.021182
      3          1           0        1.035184   -0.759395   -0.796408
      4          1           0        1.017310   -0.347857    0.980594
      5          1           0        1.109564    0.951694   -0.172343
      6          1           0       -1.144760   -0.685151    0.117268
 ---------------------------------------------------------------------

 SCF Done:  E(RB2PLYPD3) =  -115.547641747     A.U. after   11 cycles
 E2(B2PLYPD3) =    -0.1462228396D+00 E(B2PLYPD3) =    -0.11569386458615D+03

 The electronic state is 1-A.
 Alpha  occ. eigenvalues --  -19.72137 -10.66301  -1.17913  -0.79054  -0.59717
 Alpha  occ. eigenvalues --   -0.51288  -0.50906  -0.40814  -0.35205
 Alpha virt. eigenvalues --    0.05168   0.08397   0.12176   0.12595   0.14794
 Alpha virt. eigenvalues --    0.17386   0.18037   0.29064   0.32929   0.34036
 Alpha virt. eigenvalues --    0.35955   0.38890   0.39954   0.40492   0.43733

 Mulliken charges:
               1
     1  C    0.067207
     2  O   -0.428886
     3  H    0.034743
     4  H    0.047382
     5  H    0.075918
     6  H    0.203635
 Sum of Mulliken charges =   0.00000

 Dipole moment (field-independent basis, Debye):
    X=              0.7754    Y=             -1.3600    Z=              0.3088  Tot=              1.5957
 Quadrupole moment (field-independent basis, Debye-Ang):
   XX=            -12.9240   YY=            -12.4245   ZZ=            -13.7925
   XY=              2.2936   XZ=             -0.3154   YZ=             -0.2109

 Normal termination of Gaussian 09 at Wed Aug 26 10:23:24 2020.
