 Gaussian 09, Revision D.01,
 Gaussian 09:  ES64L-G09RevD.01 24-Apr-2013

 --------------------
 #p B2PLYPD3/Def2QZVP
 --------------------

 --------
 methanol
 --------
 Symbolic Z-matrix:
 Charge =  0 Multiplicity = 1

                         Standard orientation:
 ---------------------------------------------------------------------
 Center     Atomic      Atomic             Coordinates (Angstroms)
 Number     Number       Type             X           Y           Z
 ---------------------------------------------------------------------
      1          6           0       -0.675593   -0.057708   -0.012411
      2          8           0        0.729810    0.140823    0.020003
      3          1           0       -1.026604   -0.517510    0.876703
      4          1           0       -1.057409   -0.495335   -0.785777
      5          1           0       -0.999406    1.050121   -0.057100
      6          1           0        1.298497   -0.817612   -0.119383
 ---------------------------------------------------------------------

 SCF Done:  E(RB2PLYPD3) =  -115.513930615     A.U. after   11 cycles
 E2(B2PLYPD3) =    -0.1501727922D+00 E(B2PLYPD3) =    -0.11566410340669D+03

 The electronic state is 1-A.
 Alpha  occ. eigenvalues --  -19.73514 -10.64356  -1.13303  -0.78697  -0.57532
 Alpha  occ. eigenvalues --   -0.52965  -0.47805  -0.39556  -0.35346
 Alpha virt. eigenvalues --    0.03664   0.07640   0.11903   0.12817   0.15323
 Alpha virt. eigenvalues --    0.16643   0.18530   0.28698   0.29938   0.33421
 Alpha virt. eigenvalues --    0.34625   0.36538   0.39431   0.42436   0.45044

 Mulliken charges:
               1
     1  C    0.065802
     2  O   -0.486678
     3  H    0.058100
     4  H    0.058081
     5  H    0.058218
     6  H    0.246477
 Sum of Mulliken charges =   0.00000

 Dipole moment (field-independent basis, Debye):
    X=             -0.6953    Y=             -1.6572    Z=             -0.3099  Tot=              1.8237
 Quadrupole moment (field-independent basis, Debye-Ang):
   XX=            -12.5401   YY=            -12.2320   ZZ=            -13.8216
   XY=             -2.1871   XZ=             -0.1881   YZ=              0.1739

 Normal termination of Gaussian 09 at Wed Aug 26 19:20:27 2020.
