 Gaussian 09, Revision D.01,
 Gaussian 09:  ES64L-G09RevD.01 24-Apr-2013

 --------------------
 #p B2PLYPD3/Def2QZVP
 --------------------

 --------
 methanol
 --------
 Symbolic Z-matrix:
 Charge =  0 Multiplicity = 1

                         Standard orientation:
 ---------------------------------------------------------------------
 Center     Atomic      Atomic             Coordinates (Angstroms)
 Number     Number       Type             X           Y           Z
 ---------------------------------------------------------------------
      1          6           0        0.673980   -0.019296   -0.009916
      2          8           0       -0.754516    0.109296    0.004366
      3          1           0        1.000247   -0.550736   -0.898553
      4          1           0        1.069624   -0.545536    0.909851
      5          1           0        1.070037    1.018937    0.003274
      6          1           0       -1.147656   -0.681256    0.009998
 ---------------------------------------------------------------------

 SCF Done:  E(RB2PLYPD3) =  -115.545786566     A.U. after   10 cycles
 E2(B2PLYPD3) =    -0.1462634074D+00 E(B2PLYPD3) =    -0.11569204997368D+03

 The electronic state is 1-A.
 Alpha  occ. eigenvalues --  -19.71716 -10.66517  -1.17362  -0.79167  -0.59470
 Alpha  occ. eigenvalues --   -0.51582  -0.49586  -0.41086  -0.35590
 Alpha virt. eigenvalues --    0.05283   0.08450   0.12239   0.12246   0.14767
 Alpha virt. eigenvalues --    0.17075   0.18007   0.29073   0.32736   0.33332
 Alpha virt. eigenvalues --    0.37109   0.38571   0.39547   0.40464   0.43133

 Mulliken charges:
               1
     1  C    0.067847
     2  O   -0.431838
     3  H    0.054950
     4  H    0.047148
     5  H    0.074343
     6  H    0.187550
 Sum of Mulliken charges =   0.00000

 Dipole moment (field-independent basis, Debye):
    X=              0.9044    Y=             -1.4271    Z=             -0.0302  Tot=              1.6898
 Quadrupole moment (field-independent basis, Debye-Ang):
   XX=            -12.9696   YY=            -12.3358   ZZ=            -13.7352
   XY=              2.1721   XZ=             -0.0002   YZ=              0.0472

 Normal termination of Gaussian 09 at Wed Aug 26 12:54:54 2020.
