 Gaussian 09, Revision D.01,
 Gaussian 09:  ES64L-G09RevD.01 24-Apr-2013

 --------------------
 #p B2PLYPD3/Def2QZVP
 --------------------

 --------
 methanol
 --------
 Symbolic Z-matrix:
 Charge =  0 Multiplicity = 1

                         Standard orientation:
 ---------------------------------------------------------------------
 Center     Atomic      Atomic             Coordinates (Angstroms)
 Number     Number       Type             X           Y           Z
 ---------------------------------------------------------------------
      1          6           0        0.672776    0.022272   -0.001436
      2          8           0       -0.750291   -0.134306   -0.007710
      3          1           0        1.019333    0.432630    0.933745
      4          1           0        1.041526    0.619148   -0.829427
      5          1           0        1.091355   -0.927861   -0.074093
      6          1           0       -1.186543    0.816895    0.040069
 ---------------------------------------------------------------------

 SCF Done:  E(RB2PLYPD3) =  -115.543440496     A.U. after   11 cycles
 E2(B2PLYPD3) =    -0.1487757326D+00 E(B2PLYPD3) =    -0.11569221622872D+03

 The electronic state is 1-A.
 Alpha  occ. eigenvalues --  -19.73173 -10.64824  -1.14089  -0.78742  -0.57144
 Alpha  occ. eigenvalues --   -0.51756  -0.49930  -0.40839  -0.35258
 Alpha virt. eigenvalues --    0.04376   0.07889   0.12401   0.12734   0.14741
 Alpha virt. eigenvalues --    0.17317   0.18323   0.29062   0.31906   0.33307
 Alpha virt. eigenvalues --    0.33579   0.38995   0.40417   0.41204   0.43705

 Mulliken charges:
               1
     1  C    0.074602
     2  O   -0.486947
     3  H    0.049313
     4  H    0.047275
     5  H    0.070659
     6  H    0.245097
 Sum of Mulliken charges =   0.00000

 Dipole moment (field-independent basis, Debye):
    X=              0.8973    Y=              1.5418    Z=              0.0821  Tot=              1.7858
 Quadrupole moment (field-independent basis, Debye-Ang):
   XX=            -12.8437   YY=            -12.1774   ZZ=            -13.8013
   XY=             -2.4274   XZ=             -0.1386   YZ=              0.0368

 Normal termination of Gaussian 09 at Thu Aug 27 00:02:02 2020.
