 Gaussian 09, Revision D.01,
 Gaussian 09:  ES64L-G09RevD.01 24-Apr-2013

 --------------------
 #p B2PLYPD3/Def2QZVP
 --------------------

 --------
 methanol
 --------
 Symbolic Z-matrix:
 Charge =  0 Multiplicity = 1

                         Standard orientation:
 ---------------------------------------------------------------------
 Center     Atomic      Atomic             Coordinates (Angstroms)
 Number     Number       Type             X           Y           Z
 ---------------------------------------------------------------------
      1          6           0        0.648846    0.002739   -0.004510
      2          8           0       -0.718257   -0.163321   -0.013826
      3          1           0        0.987451    0.483432    0.885174
      4          1           0        0.971341    0.660329   -0.823503
      5          1           0        1.160910   -0.775437   -0.016389
      6          1           0       -1.266721    0.921808    0.092386
 ---------------------------------------------------------------------

 SCF Done:  E(RB2PLYPD3) =  -115.485123933     A.U. after   11 cycles
 E2(B2PLYPD3) =    -0.1509676156D+00 E(B2PLYPD3) =    -0.11563609154853D+03

 The electronic state is 1-A.
 Alpha  occ. eigenvalues --  -19.74091 -10.62975  -1.13965  -0.79219  -0.55875
 Alpha  occ. eigenvalues --   -0.52740  -0.51246  -0.39605  -0.34146
 Alpha virt. eigenvalues --    0.01678   0.07688   0.12649   0.13251   0.14806
 Alpha virt. eigenvalues --    0.17921   0.18514   0.25525   0.29670   0.32859
 Alpha virt. eigenvalues --    0.35238   0.38954   0.40885   0.42488   0.43964

 Mulliken charges:
               1
     1  C    0.079030
     2  O   -0.484908
     3  H    0.030689
     4  H    0.032128
     5  H    0.075705
     6  H    0.267356
 Sum of Mulliken charges =   0.00000

 Dipole moment (field-independent basis, Debye):
    X=              0.6429    Y=              1.5890    Z=              0.2071  Tot=              1.7266
 Quadrupole moment (field-independent basis, Debye-Ang):
   XX=            -12.4717   YY=            -12.0192   ZZ=            -14.0114
   XY=             -2.8660   XZ=             -0.1662   YZ=              0.1028

 Normal termination of Gaussian 09 at Wed Aug 26 22:15:26 2020.
