 Gaussian 09, Revision D.01,
 Gaussian 09:  ES64L-G09RevD.01 24-Apr-2013

 --------------------
 #p B2PLYPD3/Def2QZVP
 --------------------

 --------
 methanol
 --------
 Symbolic Z-matrix:
 Charge =  0 Multiplicity = 1

                         Standard orientation:
 ---------------------------------------------------------------------
 Center     Atomic      Atomic             Coordinates (Angstroms)
 Number     Number       Type             X           Y           Z
 ---------------------------------------------------------------------
      1          6           0        0.679313   -0.006851    0.012915
      2          8           0       -0.763459   -0.150132   -0.003563
      3          1           0        1.139325    0.418012    0.908325
      4          1           0        1.047954    0.674981   -0.827793
      5          1           0        1.106830   -0.795365   -0.171069
      6          1           0       -1.262315    0.944532    0.041548
 ---------------------------------------------------------------------

 SCF Done:  E(RB2PLYPD3) =  -115.482701175     A.U. after   11 cycles
 E2(B2PLYPD3) =    -0.1522791749D+00 E(B2PLYPD3) =    -0.11563498034987D+03

 The electronic state is 1-A.
 Alpha  occ. eigenvalues --  -19.74602 -10.64306  -1.11777  -0.79758  -0.55046
 Alpha  occ. eigenvalues --   -0.51225  -0.49706  -0.40533  -0.34863
 Alpha virt. eigenvalues --    0.02183   0.07274   0.12432   0.13034   0.14633
 Alpha virt. eigenvalues --    0.17725   0.18514   0.26082   0.29368   0.32627
 Alpha virt. eigenvalues --    0.33567   0.37073   0.40081   0.41672   0.42384

 Mulliken charges:
               1
     1  C    0.067941
     2  O   -0.499584
     3  H    0.049763
     4  H    0.028896
     5  H    0.088890
     6  H    0.264094
 Sum of Mulliken charges =   0.00000

 Dipole moment (field-independent basis, Debye):
    X=              0.8768    Y=              1.5606    Z=              0.0723  Tot=              1.7915
 Quadrupole moment (field-independent basis, Debye-Ang):
   XX=            -12.5010   YY=            -12.0252   ZZ=            -14.0881
   XY=             -2.7500   XZ=             -0.0538   YZ=              0.1906

 Normal termination of Gaussian 09 at Wed Aug 26 21:44:49 2020.
