 Gaussian 09, Revision D.01,
 Gaussian 09:  ES64L-G09RevD.01 24-Apr-2013

 --------------------
 #p B2PLYPD3/Def2QZVP
 --------------------

 --------
 methanol
 --------
 Symbolic Z-matrix:
 Charge =  0 Multiplicity = 1

                         Standard orientation:
 ---------------------------------------------------------------------
 Center     Atomic      Atomic             Coordinates (Angstroms)
 Number     Number       Type             X           Y           Z
 ---------------------------------------------------------------------
      1          6           0       -0.703745    0.002268   -0.011174
      2          8           0        0.762289   -0.185432   -0.018213
      3          1           0       -1.138225    0.554149   -0.768782
      4          1           0       -0.992376    0.439138    0.833882
      5          1           0       -0.960819   -0.747857    0.074947
      6          1           0        1.215581    1.224418    0.072700
 ---------------------------------------------------------------------

 SCF Done:  E(RB2PLYPD3) =  -115.336508799     A.U. after   12 cycles
 E2(B2PLYPD3) =    -0.1587477974D+00 E(B2PLYPD3) =    -0.11549525659659D+03

 The electronic state is 1-A.
 Alpha  occ. eigenvalues --  -19.75743 -10.60813  -1.09920  -0.82749  -0.57186
 Alpha  occ. eigenvalues --   -0.51799  -0.47555  -0.39774  -0.35383
 Alpha virt. eigenvalues --   -0.02754   0.07279   0.12563   0.12988   0.14312
 Alpha virt. eigenvalues --    0.17055   0.18644   0.21587   0.28956   0.32102
 Alpha virt. eigenvalues --    0.33926   0.37391   0.41489   0.41553   0.44210

 Mulliken charges:
               1
     1  C   -0.036404
     2  O   -0.490063
     3  H    0.059389
     4  H    0.046067
     5  H    0.198398
     6  H    0.222613
 Sum of Mulliken charges =   0.00000

 Dipole moment (field-independent basis, Debye):
    X=             -1.3481    Y=              1.6820    Z=              0.1941  Tot=              2.1643
 Quadrupole moment (field-independent basis, Debye-Ang):
   XX=            -13.0817   YY=            -11.1002   ZZ=            -13.9263
   XY=              2.3717   XZ=              0.1405   YZ=             -0.0023

 Normal termination of Gaussian 09 at Wed Aug 26 21:23:14 2020.
