 Gaussian 09, Revision D.01,
 Gaussian 09:  ES64L-G09RevD.01 24-Apr-2013

 --------------------
 #p B2PLYPD3/Def2QZVP
 --------------------

 --------
 methanol
 --------
 Symbolic Z-matrix:
 Charge =  0 Multiplicity = 1

                         Standard orientation:
 ---------------------------------------------------------------------
 Center     Atomic      Atomic             Coordinates (Angstroms)
 Number     Number       Type             X           Y           Z
 ---------------------------------------------------------------------
      1          6           0        0.648053   -0.018827    0.002952
      2          8           0       -0.741740    0.092930   -0.004087
      3          1           0        1.048255   -0.614700   -0.897638
      4          1           0        0.986149   -0.570474    0.933107
      5          1           0        1.147442    1.078017   -0.016745
      6          1           0       -1.136244   -0.523319   -0.003744
 ---------------------------------------------------------------------

 SCF Done:  E(RB2PLYPD3) =  -115.456362793     A.U. after   10 cycles
 E2(B2PLYPD3) =    -0.1441373642D+00 E(B2PLYPD3) =    -0.11560050015747D+03

 The electronic state is 1-A.
 Alpha  occ. eigenvalues --  -19.70289 -10.68351  -1.23371  -0.81073  -0.62087
 Alpha  occ. eigenvalues --   -0.51597  -0.50210  -0.40142  -0.35703
 Alpha virt. eigenvalues --    0.05326   0.09025   0.11815   0.12145   0.14715
 Alpha virt. eigenvalues --    0.17172   0.17623   0.28847   0.32752   0.33968
 Alpha virt. eigenvalues --    0.35535   0.38632   0.39342   0.40282   0.42424

 Mulliken charges:
               1
     1  C    0.055943
     2  O   -0.269883
     3  H    0.044125
     4  H    0.048035
     5  H    0.072244
     6  H    0.049536
 Sum of Mulliken charges =   0.00000

 Dipole moment (field-independent basis, Debye):
    X=              0.7299    Y=             -1.2743    Z=              0.0197  Tot=              1.4686
 Quadrupole moment (field-independent basis, Debye-Ang):
   XX=            -12.8592   YY=            -12.6083   ZZ=            -13.7629
   XY=              2.0008   XZ=             -0.0389   YZ=             -0.0155

 Normal termination of Gaussian 09 at Wed Aug 26 14:48:20 2020.
