 Gaussian 09, Revision D.01,
 Gaussian 09:  ES64L-G09RevD.01 24-Apr-2013

 --------------------
 #p B2PLYPD3/Def2QZVP
 --------------------

 --------
 methanol
 --------
 Symbolic Z-matrix:
 Charge =  0 Multiplicity = 1

                         Standard orientation:
 ---------------------------------------------------------------------
 Center     Atomic      Atomic             Coordinates (Angstroms)
 Number     Number       Type             X           Y           Z
 ---------------------------------------------------------------------
      1          6           0       -0.671654   -0.020257   -0.004715
      2          8           0        0.741343    0.135408    0.003614
      3          1           0       -1.058557   -0.521501    0.865510
      4          1           0       -1.003650   -0.569237   -0.838795
      5          1           0       -1.043484    0.962262   -0.029727
      6          1           0        1.204871   -0.833246    0.002389
 ---------------------------------------------------------------------

 SCF Done:  E(RB2PLYPD3) =  -115.538999503     A.U. after   11 cycles
 E2(B2PLYPD3) =    -0.1490382659D+00 E(B2PLYPD3) =    -0.11568803776924D+03

 The electronic state is 1-A.
 Alpha  occ. eigenvalues --  -19.73239 -10.64416  -1.13968  -0.78637  -0.57596
 Alpha  occ. eigenvalues --   -0.51694  -0.49597  -0.40937  -0.35039
 Alpha virt. eigenvalues --    0.04104   0.07910   0.12481   0.12685   0.15071
 Alpha virt. eigenvalues --    0.17086   0.18123   0.29143   0.31224   0.33431
 Alpha virt. eigenvalues --    0.34011   0.39106   0.39638   0.41526   0.44133

 Mulliken charges:
               1
     1  C    0.077507
     2  O   -0.488611
     3  H    0.045438
     4  H    0.046572
     5  H    0.072216
     6  H    0.246878
 Sum of Mulliken charges =   0.00000

 Dipole moment (field-independent basis, Debye):
    X=             -0.8404    Y=             -1.5885    Z=             -0.0269  Tot=              1.7973
 Quadrupole moment (field-independent basis, Debye-Ang):
   XX=            -12.8317   YY=            -12.0026   ZZ=            -13.9095
   XY=             -2.3627   XZ=             -0.0149   YZ=              0.0202

 Normal termination of Gaussian 09 at Thu Aug 27 00:10:43 2020.
