 Gaussian 09, Revision D.01,
 Gaussian 09:  ES64L-G09RevD.01 24-Apr-2013

 --------------------
 #p B2PLYPD3/Def2QZVP
 --------------------

 --------
 methanol
 --------
 Symbolic Z-matrix:
 Charge =  0 Multiplicity = 1

                         Standard orientation:
 ---------------------------------------------------------------------
 Center     Atomic      Atomic             Coordinates (Angstroms)
 Number     Number       Type             X           Y           Z
 ---------------------------------------------------------------------
      1          6           0        0.662262   -0.024035   -0.006461
      2          8           0       -0.753329    0.115163    0.004670
      3          1           0        0.988439   -0.558724   -0.882562
      4          1           0        1.053977   -0.532146    0.899658
      5          1           0        1.109082    1.018040   -0.017793
      6          1           0       -1.098441   -0.704268    0.002101
 ---------------------------------------------------------------------

 SCF Done:  E(RB2PLYPD3) =  -115.546787231     A.U. after   10 cycles
 E2(B2PLYPD3) =    -0.1462822517D+00 E(B2PLYPD3) =    -0.11569306948306D+03

 The electronic state is 1-A.
 Alpha  occ. eigenvalues --  -19.72020 -10.66274  -1.17904  -0.78932  -0.59714
 Alpha  occ. eigenvalues --   -0.52005  -0.49552  -0.41243  -0.35703
 Alpha virt. eigenvalues --    0.05214   0.08498   0.12208   0.12299   0.14789
 Alpha virt. eigenvalues --    0.17385   0.17996   0.29047   0.33038   0.33375
 Alpha virt. eigenvalues --    0.36898   0.38019   0.39902   0.40790   0.43692

 Mulliken charges:
               1
     1  C    0.067668
     2  O   -0.425110
     3  H    0.052017
     4  H    0.047866
     5  H    0.066790
     6  H    0.190769
 Sum of Mulliken charges =   0.00000

 Dipole moment (field-independent basis, Debye):
    X=              0.9322    Y=             -1.4814    Z=             -0.0353  Tot=              1.7506
 Quadrupole moment (field-independent basis, Debye-Ang):
   XX=            -13.1481   YY=            -12.2919   ZZ=            -13.7398
   XY=              2.1295   XZ=              0.0250   YZ=              0.0369

 Normal termination of Gaussian 09 at Thu Aug 27 00:12:57 2020.
