 Gaussian 09, Revision D.01,
 Gaussian 09:  ES64L-G09RevD.01 24-Apr-2013

 --------------------
 #p B2PLYPD3/Def2QZVP
 --------------------

 --------
 methanol
 --------
 Symbolic Z-matrix:
 Charge =  0 Multiplicity = 1

                         Standard orientation:
 ---------------------------------------------------------------------
 Center     Atomic      Atomic             Coordinates (Angstroms)
 Number     Number       Type             X           Y           Z
 ---------------------------------------------------------------------
      1          6           0       -0.681843   -0.038982    0.008820
      2          8           0        0.740160    0.136062   -0.014184
      3          1           0       -0.969470   -0.395473    0.881379
      4          1           0       -1.020629   -0.666220   -0.777282
      5          1           0       -1.052517    1.006476   -0.103324
      6          1           0        1.212396   -0.799386    0.059776
 ---------------------------------------------------------------------

 SCF Done:  E(RB2PLYPD3) =  -115.535079787     A.U. after   11 cycles
 E2(B2PLYPD3) =    -0.1486654644D+00 E(B2PLYPD3) =    -0.11568374525171D+03

 The electronic state is 1-A.
 Alpha  occ. eigenvalues --  -19.72785 -10.64279  -1.13819  -0.79036  -0.57654
 Alpha  occ. eigenvalues --   -0.53085  -0.48504  -0.40571  -0.35352
 Alpha virt. eigenvalues --    0.04399   0.08018   0.12156   0.12723   0.15042
 Alpha virt. eigenvalues --    0.16940   0.18066   0.29177   0.32162   0.33451
 Alpha virt. eigenvalues --    0.33626   0.37924   0.39681   0.42418   0.45022

 Mulliken charges:
               1
     1  C    0.081346
     2  O   -0.493605
     3  H    0.056413
     4  H    0.049414
     5  H    0.066257
     6  H    0.240175
 Sum of Mulliken charges =   0.00000

 Dipole moment (field-independent basis, Debye):
    X=             -0.8745    Y=             -1.6240    Z=              0.1890  Tot=              1.8541
 Quadrupole moment (field-independent basis, Debye-Ang):
   XX=            -12.8421   YY=            -12.0518   ZZ=            -13.7648
   XY=             -2.2642   XZ=              0.1383   YZ=             -0.0883

 Normal termination of Gaussian 09 at Wed Aug 26 13:30:55 2020.
