 Gaussian 09, Revision D.01,
 Gaussian 09:  ES64L-G09RevD.01 24-Apr-2013

 --------------------
 #p B2PLYPD3/Def2QZVP
 --------------------

 --------
 methanol
 --------
 Symbolic Z-matrix:
 Charge =  0 Multiplicity = 1

                         Standard orientation:
 ---------------------------------------------------------------------
 Center     Atomic      Atomic             Coordinates (Angstroms)
 Number     Number       Type             X           Y           Z
 ---------------------------------------------------------------------
      1          6           0        0.656200   -0.006687   -0.001296
      2          8           0       -0.753112    0.087445    0.000061
      3          1           0        1.130837   -0.553250   -0.887579
      4          1           0        1.017471   -0.585100    0.922587
      5          1           0        1.030909    1.082189    0.018948
      6          1           0       -1.091521   -0.603278   -0.046667
 ---------------------------------------------------------------------

 SCF Done:  E(RB2PLYPD3) =  -115.494379921     A.U. after   10 cycles
 E2(B2PLYPD3) =    -0.1448223390D+00 E(B2PLYPD3) =    -0.11563920225975D+03

 The electronic state is 1-A.
 Alpha  occ. eigenvalues --  -19.70951 -10.67811  -1.21832  -0.80036  -0.61500
 Alpha  occ. eigenvalues --   -0.51008  -0.49896  -0.41479  -0.35665
 Alpha virt. eigenvalues --    0.05352   0.08837   0.11849   0.12160   0.15040
 Alpha virt. eigenvalues --    0.16925   0.17823   0.28950   0.32552   0.33763
 Alpha virt. eigenvalues --    0.37138   0.38529   0.38928   0.40226   0.42007

 Mulliken charges:
               1
     1  C    0.053735
     2  O   -0.312066
     3  H    0.046207
     4  H    0.045501
     5  H    0.075888
     6  H    0.090735
 Sum of Mulliken charges =   0.00000

 Dipole moment (field-independent basis, Debye):
    X=              0.8544    Y=             -1.3123    Z=             -0.0971  Tot=              1.5689
 Quadrupole moment (field-independent basis, Debye-Ang):
   XX=            -13.1271   YY=            -12.3399   ZZ=            -13.8423
   XY=              1.9076   XZ=              0.0138   YZ=              0.0678

 Normal termination of Gaussian 09 at Wed Aug 26 15:36:45 2020.
