 Gaussian 09, Revision D.01,
 Gaussian 09:  ES64L-G09RevD.01 24-Apr-2013

 --------------------
 #p B2PLYPD3/Def2QZVP
 --------------------

 --------
 methanol
 --------
 Symbolic Z-matrix:
 Charge =  0 Multiplicity = 1

                         Standard orientation:
 ---------------------------------------------------------------------
 Center     Atomic      Atomic             Coordinates (Angstroms)
 Number     Number       Type             X           Y           Z
 ---------------------------------------------------------------------
      1          6           0       -0.630540    0.041126   -0.005143
      2          8           0        0.720546   -0.198420   -0.001171
      3          1           0       -1.117687    0.435873   -0.746631
      4          1           0       -0.862957    0.610203    0.770448
      5          1           0       -1.195166   -0.820652    0.084503
      6          1           0        1.194681    1.115182   -0.068093
 ---------------------------------------------------------------------

 SCF Done:  E(RB2PLYPD3) =  -115.436375497     A.U. after   11 cycles
 E2(B2PLYPD3) =    -0.1549582328D+00 E(B2PLYPD3) =    -0.11559133372989D+03

 The electronic state is 1-A.
 Alpha  occ. eigenvalues --  -19.75586 -10.61656  -1.13730  -0.79949  -0.54864
 Alpha  occ. eigenvalues --   -0.53863  -0.50004  -0.38755  -0.35003
 Alpha virt. eigenvalues --   -0.01717   0.07407   0.12802   0.13040   0.14754
 Alpha virt. eigenvalues --    0.18160   0.18693   0.22100   0.29554   0.32869
 Alpha virt. eigenvalues --    0.35719   0.38830   0.40278   0.42860   0.45053

 Mulliken charges:
               1
     1  C    0.105106
     2  O   -0.460606
     3  H    0.033670
     4  H    0.034967
     5  H    0.045482
     6  H    0.241381
 Sum of Mulliken charges =   0.00000

 Dipole moment (field-independent basis, Debye):
    X=             -0.9324    Y=              1.8096    Z=             -0.1013  Tot=              2.0382
 Quadrupole moment (field-independent basis, Debye-Ang):
   XX=            -12.9330   YY=            -11.5715   ZZ=            -14.0852
   XY=              2.5083   XZ=              0.0875   YZ=             -0.0473

 Normal termination of Gaussian 09 at Wed Aug 26 23:38:45 2020.
