 Gaussian 09, Revision D.01,
 Gaussian 09:  ES64L-G09RevD.01 24-Apr-2013

 --------------------
 #p B2PLYPD3/Def2QZVP
 --------------------

 --------
 methanol
 --------
 Symbolic Z-matrix:
 Charge =  0 Multiplicity = 1

                         Standard orientation:
 ---------------------------------------------------------------------
 Center     Atomic      Atomic             Coordinates (Angstroms)
 Number     Number       Type             X           Y           Z
 ---------------------------------------------------------------------
      1          6           0       -0.664251    0.002505   -0.037427
      2          8           0        0.748574   -0.002445    0.074596
      3          1           0       -0.835977   -0.748881   -0.876167
      4          1           0       -1.079535    1.191511   -0.082561
      5          1           0       -1.085025   -0.538705    0.961597
      6          1           0        0.997450    0.100602   -0.375076
 ---------------------------------------------------------------------

 SCF Done:  E(RB2PLYPD3) =  -114.903249524     A.U. after   11 cycles
 E2(B2PLYPD3) =    -0.1433289596D+00 E(B2PLYPD3) =    -0.11504657848385D+03

 The electronic state is 1-A.
 Alpha  occ. eigenvalues --  -19.68409 -10.70067  -1.33262  -0.83547  -0.61930
 Alpha  occ. eigenvalues --   -0.52485  -0.50327  -0.40307  -0.36769
 Alpha virt. eigenvalues --    0.04916   0.09712   0.10961   0.11557   0.13413
 Alpha virt. eigenvalues --    0.16799   0.17932   0.27455   0.31835   0.32203
 Alpha virt. eigenvalues --    0.34176   0.35464   0.39358   0.41259   0.44350

 Mulliken charges:
               1
     1  C    0.048696
     2  O   -0.061740
     3  H    0.060082
     4  H    0.056384
     5  H    0.070948
     6  H   -0.174370
 Sum of Mulliken charges =   0.00000

 Dipole moment (field-independent basis, Debye):
    X=             -1.0337    Y=              0.1120    Z=             -1.0670  Tot=              1.4898
 Quadrupole moment (field-independent basis, Debye-Ang):
   XX=            -13.5542   YY=            -12.8993   ZZ=            -12.8172
   XY=              0.3775   XZ=             -1.7822   YZ=             -0.0627

 Normal termination of Gaussian 09 at Wed Aug 26 23:26:57 2020.
