 Gaussian 09, Revision D.01,
 Gaussian 09:  ES64L-G09RevD.01 24-Apr-2013

 --------------------
 #p B2PLYPD3/Def2QZVP
 --------------------

 --------
 methanol
 --------
 Symbolic Z-matrix:
 Charge =  0 Multiplicity = 1

                         Standard orientation:
 ---------------------------------------------------------------------
 Center     Atomic      Atomic             Coordinates (Angstroms)
 Number     Number       Type             X           Y           Z
 ---------------------------------------------------------------------
      1          6           0        0.670916   -0.007708    0.008987
      2          8           0       -0.752646    0.108400   -0.007802
      3          1           0        1.024144   -0.623914   -0.888432
      4          1           0        1.022552   -0.482268    0.926464
      5          1           0        1.047473    0.992173   -0.071331
      6          1           0       -1.098493   -0.706939    0.041796
 ---------------------------------------------------------------------

 SCF Done:  E(RB2PLYPD3) =  -115.546469436     A.U. after   10 cycles
 E2(B2PLYPD3) =    -0.1462284144D+00 E(B2PLYPD3) =    -0.11569269785091D+03

 The electronic state is 1-A.
 Alpha  occ. eigenvalues --  -19.71794 -10.66197  -1.17630  -0.79172  -0.59420
 Alpha  occ. eigenvalues --   -0.51393  -0.50228  -0.41640  -0.35410
 Alpha virt. eigenvalues --    0.05216   0.08571   0.12140   0.12378   0.14773
 Alpha virt. eigenvalues --    0.17150   0.17885   0.29088   0.32895   0.33173
 Alpha virt. eigenvalues --    0.36872   0.38882   0.40041   0.40448   0.43614

 Mulliken charges:
               1
     1  C    0.069025
     2  O   -0.428760
     3  H    0.041499
     4  H    0.051101
     5  H    0.077682
     6  H    0.189453
 Sum of Mulliken charges =   0.00000

 Dipole moment (field-independent basis, Debye):
    X=              0.9516    Y=             -1.4056    Z=              0.1340  Tot=              1.7027
 Quadrupole moment (field-independent basis, Debye-Ang):
   XX=            -13.2271   YY=            -12.2046   ZZ=            -13.7199
   XY=              2.1646   XZ=             -0.0683   YZ=             -0.1207

 Normal termination of Gaussian 09 at Wed Aug 26 10:31:57 2020.
