 Gaussian 09, Revision D.01,
 Gaussian 09:  ES64L-G09RevD.01 24-Apr-2013

 --------------------
 #p B2PLYPD3/Def2QZVP
 --------------------

 --------
 methanol
 --------
 Symbolic Z-matrix:
 Charge =  0 Multiplicity = 1

                         Standard orientation:
 ---------------------------------------------------------------------
 Center     Atomic      Atomic             Coordinates (Angstroms)
 Number     Number       Type             X           Y           Z
 ---------------------------------------------------------------------
      1          6           0       -0.660580    0.018488    0.009217
      2          8           0        0.740588   -0.076016   -0.027933
      3          1           0       -0.913526    0.996083   -0.619234
      4          1           0       -1.083356    0.007412    1.070494
      5          1           0       -1.040076   -0.938773   -0.520183
      6          1           0        1.075735    0.432476    0.237081
 ---------------------------------------------------------------------

 SCF Done:  E(RB2PLYPD3) =  -115.363750804     A.U. after   11 cycles
 E2(B2PLYPD3) =    -0.1434488093D+00 E(B2PLYPD3) =    -0.11550719961301D+03

 The electronic state is 1-A.
 Alpha  occ. eigenvalues --  -19.69174 -10.68486  -1.25995  -0.82074  -0.61623
 Alpha  occ. eigenvalues --   -0.52214  -0.50385  -0.40490  -0.36012
 Alpha virt. eigenvalues --    0.05329   0.09393   0.11659   0.12001   0.14214
 Alpha virt. eigenvalues --    0.16773   0.17840   0.28512   0.32169   0.33593
 Alpha virt. eigenvalues --    0.36290   0.38105   0.39171   0.41029   0.42928

 Mulliken charges:
               1
     1  C    0.047528
     2  O   -0.212724
     3  H    0.045940
     4  H    0.055092
     5  H    0.078776
     6  H   -0.014612
 Sum of Mulliken charges =   0.00000

 Dipole moment (field-independent basis, Debye):
    X=             -0.8549    Y=              1.0085    Z=              0.5710  Tot=              1.4401
 Quadrupole moment (field-independent basis, Debye-Ang):
   XX=            -13.2302   YY=            -12.7379   ZZ=            -13.2634
   XY=              1.8112   XZ=              0.6791   YZ=              0.2999

 Normal termination of Gaussian 09 at Wed Aug 26 14:41:25 2020.
