 Gaussian 09, Revision D.01,
 Gaussian 09:  ES64L-G09RevD.01 24-Apr-2013

 --------------------
 #p B2PLYPD3/Def2QZVP
 --------------------

 --------
 methanol
 --------
 Symbolic Z-matrix:
 Charge =  0 Multiplicity = 1

                         Standard orientation:
 ---------------------------------------------------------------------
 Center     Atomic      Atomic             Coordinates (Angstroms)
 Number     Number       Type             X           Y           Z
 ---------------------------------------------------------------------
      1          6           0        0.662716    0.019806   -0.004158
      2          8           0       -0.744839   -0.143161    0.005971
      3          1           0        1.105715    0.515394    0.841577
      4          1           0        1.001539    0.554548   -0.834973
      5          1           0        1.059942   -0.939367   -0.034316
      6          1           0       -1.184781    0.895873    0.004896
 ---------------------------------------------------------------------

 SCF Done:  E(RB2PLYPD3) =  -115.526731629     A.U. after   11 cycles
 E2(B2PLYPD3) =    -0.1501603187D+00 E(B2PLYPD3) =    -0.11567689194728D+03

 The electronic state is 1-A.
 Alpha  occ. eigenvalues --  -19.73956 -10.64075  -1.13676  -0.78648  -0.57072
 Alpha  occ. eigenvalues --   -0.51568  -0.49572  -0.41004  -0.35088
 Alpha virt. eigenvalues --    0.03411   0.07728   0.12550   0.12764   0.15109
 Alpha virt. eigenvalues --    0.17277   0.18311   0.28332   0.29839   0.33412
 Alpha virt. eigenvalues --    0.34412   0.38945   0.39645   0.41549   0.44074

 Mulliken charges:
               1
     1  C    0.078321
     2  O   -0.485023
     3  H    0.042558
     4  H    0.043975
     5  H    0.067952
     6  H    0.252217
 Sum of Mulliken charges =   0.00000

 Dipole moment (field-independent basis, Debye):
    X=              0.8750    Y=              1.6295    Z=             -0.0374  Tot=              1.8499
 Quadrupole moment (field-independent basis, Debye-Ang):
   XX=            -12.8955   YY=            -11.9054   ZZ=            -13.9964
   XY=             -2.3761   XZ=              0.0378   YZ=             -0.0196

 Normal termination of Gaussian 09 at Wed Aug 26 15:39:55 2020.
