 Gaussian 09, Revision D.01,
 Gaussian 09:  ES64L-G09RevD.01 24-Apr-2013

 --------------------
 #p B2PLYPD3/Def2QZVP
 --------------------

 --------
 methanol
 --------
 Symbolic Z-matrix:
 Charge =  0 Multiplicity = 1

                         Standard orientation:
 ---------------------------------------------------------------------
 Center     Atomic      Atomic             Coordinates (Angstroms)
 Number     Number       Type             X           Y           Z
 ---------------------------------------------------------------------
      1          6           0        0.684243   -0.021495   -0.005279
      2          8           0       -0.761588    0.085410    0.006863
      3          1           0        1.029141   -0.556371   -0.915544
      4          1           0        1.068061   -0.503498    0.957185
      5          1           0        0.981573    1.095366   -0.042176
      6          1           0       -1.091531   -0.589807   -0.022696
 ---------------------------------------------------------------------

 SCF Done:  E(RB2PLYPD3) =  -115.479957388     A.U. after   10 cycles
 E2(B2PLYPD3) =    -0.1448260298D+00 E(B2PLYPD3) =    -0.11562478341773D+03

 The electronic state is 1-A.
 Alpha  occ. eigenvalues --  -19.70149 -10.67730  -1.21257  -0.80198  -0.60649
 Alpha  occ. eigenvalues --   -0.51651  -0.48920  -0.41399  -0.36192
 Alpha virt. eigenvalues --    0.05392   0.08935   0.11818   0.11966   0.14601
 Alpha virt. eigenvalues --    0.16645   0.17951   0.28854   0.31620   0.33366
 Alpha virt. eigenvalues --    0.36865   0.38484   0.39859   0.40718   0.42153

 Mulliken charges:
               1
     1  C    0.053230
     2  O   -0.312493
     3  H    0.060052
     4  H    0.057920
     5  H    0.076456
     6  H    0.064835
 Sum of Mulliken charges =   0.00000

 Dipole moment (field-independent basis, Debye):
    X=              1.0201    Y=             -1.3225    Z=             -0.0915  Tot=              1.6727
 Quadrupole moment (field-independent basis, Debye-Ang):
   XX=            -13.2501   YY=            -12.3711   ZZ=            -13.5097
   XY=              1.8424   XZ=              0.0695   YZ=              0.0569

 Normal termination of Gaussian 09 at Wed Aug 26 12:47:39 2020.
