 Gaussian 09, Revision D.01,
 Gaussian 09:  ES64L-G09RevD.01 24-Apr-2013

 --------------------
 #p B2PLYPD3/Def2QZVP
 --------------------

 --------
 methanol
 --------
 Symbolic Z-matrix:
 Charge =  0 Multiplicity = 1

                         Standard orientation:
 ---------------------------------------------------------------------
 Center     Atomic      Atomic             Coordinates (Angstroms)
 Number     Number       Type             X           Y           Z
 ---------------------------------------------------------------------
      1          6           0        0.659557   -0.002903    0.008990
      2          8           0       -0.758626    0.117966   -0.009639
      3          1           0        1.098488   -0.605386   -0.869482
      4          1           0        1.021426   -0.460474    0.940956
      5          1           0        1.073426    0.934402   -0.070680
      6          1           0       -1.081672   -0.794846    0.022381
 ---------------------------------------------------------------------

 SCF Done:  E(RB2PLYPD3) =  -115.547344520     A.U. after   10 cycles
 E2(B2PLYPD3) =    -0.1477347429D+00 E(B2PLYPD3) =    -0.11569507926308D+03

 The electronic state is 1-A.
 Alpha  occ. eigenvalues --  -19.73039 -10.65701  -1.16244  -0.78762  -0.58387
 Alpha  occ. eigenvalues --   -0.51284  -0.50326  -0.41690  -0.35344
 Alpha virt. eigenvalues --    0.04840   0.08119   0.12170   0.12656   0.14794
 Alpha virt. eigenvalues --    0.17519   0.18232   0.28995   0.32703   0.33480
 Alpha virt. eigenvalues --    0.34743   0.37929   0.40104   0.40985   0.44257

 Mulliken charges:
               1
     1  C    0.066728
     2  O   -0.452543
     3  H    0.035904
     4  H    0.047133
     5  H    0.074812
     6  H    0.227967
 Sum of Mulliken charges =   0.00000

 Dipole moment (field-independent basis, Debye):
    X=              0.9635    Y=             -1.4445    Z=              0.0986  Tot=              1.7392
 Quadrupole moment (field-independent basis, Debye-Ang):
   XX=            -13.2407   YY=            -12.1606   ZZ=            -13.8406
   XY=              2.2668   XZ=             -0.0914   YZ=             -0.1008

 Normal termination of Gaussian 09 at Wed Aug 26 13:26:18 2020.
