 Gaussian 09, Revision D.01,
 Gaussian 09:  ES64L-G09RevD.01 24-Apr-2013

 --------------------
 #p B2PLYPD3/Def2QZVP
 --------------------

 --------
 methanol
 --------
 Symbolic Z-matrix:
 Charge =  0 Multiplicity = 1

                         Standard orientation:
 ---------------------------------------------------------------------
 Center     Atomic      Atomic             Coordinates (Angstroms)
 Number     Number       Type             X           Y           Z
 ---------------------------------------------------------------------
      1          6           0        0.664004    0.033867    0.003093
      2          8           0       -0.734832   -0.147314   -0.004922
      3          1           0        0.971478    0.484193    0.868834
      4          1           0        0.998579    0.596687   -0.814355
      5          1           0        1.116702   -0.949837   -0.048614
      6          1           0       -1.192127    0.844264    0.014955
 ---------------------------------------------------------------------

 SCF Done:  E(RB2PLYPD3) =  -115.533848041     A.U. after   11 cycles
 E2(B2PLYPD3) =    -0.1490827262D+00 E(B2PLYPD3) =    -0.11568293076739D+03

 The electronic state is 1-A.
 Alpha  occ. eigenvalues --  -19.73307 -10.63969  -1.14144  -0.78636  -0.57251
 Alpha  occ. eigenvalues --   -0.52842  -0.49501  -0.40487  -0.35141
 Alpha virt. eigenvalues --    0.03882   0.07917   0.12531   0.12708   0.14928
 Alpha virt. eigenvalues --    0.17453   0.18080   0.29038   0.30423   0.33399
 Alpha virt. eigenvalues --    0.34357   0.39083   0.39925   0.42598   0.44231

 Mulliken charges:
               1
     1  C    0.083389
     2  O   -0.488563
     3  H    0.048258
     4  H    0.044338
     5  H    0.063693
     6  H    0.248885
 Sum of Mulliken charges =   0.00000

 Dipole moment (field-independent basis, Debye):
    X=              0.8410    Y=              1.6508    Z=              0.0525  Tot=              1.8534
 Quadrupole moment (field-independent basis, Debye-Ang):
   XX=            -12.8739   YY=            -12.0417   ZZ=            -13.8225
   XY=             -2.4070   XZ=             -0.0514   YZ=              0.0282

 Normal termination of Gaussian 09 at Wed Aug 26 12:42:29 2020.
