 Gaussian 09, Revision D.01,
 Gaussian 09:  ES64L-G09RevD.01 24-Apr-2013

 --------------------
 #p B2PLYPD3/Def2QZVP
 --------------------

 --------
 methanol
 --------
 Symbolic Z-matrix:
 Charge =  0 Multiplicity = 1

                         Standard orientation:
 ---------------------------------------------------------------------
 Center     Atomic      Atomic             Coordinates (Angstroms)
 Number     Number       Type             X           Y           Z
 ---------------------------------------------------------------------
      1          6           0       -0.668275    0.027892    0.017577
      2          8           0        0.746632   -0.173292   -0.037533
      3          1           0       -1.196706    0.717739   -0.711709
      4          1           0       -0.963792    0.349174    0.811510
      5          1           0       -1.133933   -0.868156   -0.040017
      6          1           0        1.331022    1.020225    0.135017
 ---------------------------------------------------------------------

 SCF Done:  E(RB2PLYPD3) =  -115.441032790     A.U. after   11 cycles
 E2(B2PLYPD3) =    -0.1546808974D+00 E(B2PLYPD3) =    -0.11559571368726D+03

 The electronic state is 1-A.
 Alpha  occ. eigenvalues --  -19.75341 -10.62801  -1.11601  -0.80386  -0.55085
 Alpha  occ. eigenvalues --   -0.50878  -0.49515  -0.39798  -0.35155
 Alpha virt. eigenvalues --   -0.00225   0.07152   0.12496   0.13175   0.14968
 Alpha virt. eigenvalues --    0.17439   0.18689   0.23031   0.29514   0.32960
 Alpha virt. eigenvalues --    0.34318   0.38287   0.39266   0.40762   0.44559

 Mulliken charges:
               1
     1  C    0.073068
     2  O   -0.490520
     3  H    0.035263
     4  H    0.068636
     5  H    0.061521
     6  H    0.252032
 Sum of Mulliken charges =   0.00000

 Dipole moment (field-independent basis, Debye):
    X=             -0.8469    Y=              1.6645    Z=              0.4693  Tot=              1.9256
 Quadrupole moment (field-independent basis, Debye-Ang):
   XX=            -12.2926   YY=            -11.8263   ZZ=            -14.1685
   XY=              2.6689   XZ=              0.2083   YZ=              0.2563

 Normal termination of Gaussian 09 at Wed Aug 26 23:02:01 2020.
