 Gaussian 09, Revision D.01,
 Gaussian 09:  ES64L-G09RevD.01 24-Apr-2013

 --------------------
 #p B2PLYPD3/Def2QZVP
 --------------------

 --------
 methanol
 --------
 Symbolic Z-matrix:
 Charge =  0 Multiplicity = 1

                         Standard orientation:
 ---------------------------------------------------------------------
 Center     Atomic      Atomic             Coordinates (Angstroms)
 Number     Number       Type             X           Y           Z
 ---------------------------------------------------------------------
      1          6           0        0.663402    0.014590   -0.003022
      2          8           0       -0.740123   -0.139651   -0.000087
      3          1           0        1.027639    0.496205    0.877657
      4          1           0        0.964479    0.581299   -0.849144
      5          1           0        1.073303   -0.914093   -0.037447
      6          1           0       -1.124855    0.866258    0.027759
 ---------------------------------------------------------------------

 SCF Done:  E(RB2PLYPD3) =  -115.535902807     A.U. after   11 cycles
 E2(B2PLYPD3) =    -0.1489258499D+00 E(B2PLYPD3) =    -0.11568482865666D+03

 The electronic state is 1-A.
 Alpha  occ. eigenvalues --  -19.73315 -10.63914  -1.14480  -0.78810  -0.57446
 Alpha  occ. eigenvalues --   -0.52240  -0.50178  -0.41216  -0.35003
 Alpha virt. eigenvalues --    0.03977   0.08071   0.12512   0.12719   0.14869
 Alpha virt. eigenvalues --    0.17493   0.18059   0.29089   0.30814   0.33197
 Alpha virt. eigenvalues --    0.34312   0.39278   0.40829   0.41774   0.43914

 Mulliken charges:
               1
     1  C    0.081344
     2  O   -0.482082
     3  H    0.041631
     4  H    0.042096
     5  H    0.069817
     6  H    0.247195
 Sum of Mulliken charges =   0.00000

 Dipole moment (field-independent basis, Debye):
    X=              0.9367    Y=              1.5851    Z=              0.0363  Tot=              1.8416
 Quadrupole moment (field-independent basis, Debye-Ang):
   XX=            -13.1716   YY=            -11.9070   ZZ=            -13.8097
   XY=             -2.3761   XZ=             -0.0173   YZ=              0.0227

 Normal termination of Gaussian 09 at Wed Aug 26 21:18:02 2020.
