 Gaussian 09, Revision D.01,
 Gaussian 09:  ES64L-G09RevD.01 24-Apr-2013

 --------------------
 #p B2PLYPD3/Def2QZVP
 --------------------

 --------
 methanol
 --------
 Symbolic Z-matrix:
 Charge =  0 Multiplicity = 1

                         Standard orientation:
 ---------------------------------------------------------------------
 Center     Atomic      Atomic             Coordinates (Angstroms)
 Number     Number       Type             X           Y           Z
 ---------------------------------------------------------------------
      1          6           0        0.669114   -0.010398   -0.000133
      2          8           0       -0.772445    0.074384    0.005483
      3          1           0        1.119816   -0.594272   -0.906186
      4          1           0        1.088000   -0.548630    0.952718
      5          1           0        1.053011    1.131973   -0.039820
      6          1           0       -1.095949   -0.521748   -0.049778
 ---------------------------------------------------------------------

 SCF Done:  E(RB2PLYPD3) =  -115.386214608     A.U. after   11 cycles
 E2(B2PLYPD3) =    -0.1445187072D+00 E(B2PLYPD3) =    -0.11553073331488D+03

 The electronic state is 1-A.
 Alpha  occ. eigenvalues --  -19.69939 -10.69419  -1.24693  -0.80791  -0.61851
 Alpha  occ. eigenvalues --   -0.50418  -0.49276  -0.41300  -0.36287
 Alpha virt. eigenvalues --    0.05206   0.08934   0.11449   0.11858   0.14779
 Alpha virt. eigenvalues --    0.16825   0.17772   0.28722   0.31478   0.33090
 Alpha virt. eigenvalues --    0.35624   0.37284   0.38067   0.40541   0.41667

 Mulliken charges:
               1
     1  C    0.047514
     2  O   -0.236835
     3  H    0.051797
     4  H    0.055149
     5  H    0.077920
     6  H    0.004455
 Sum of Mulliken charges =   0.00000

 Dipole moment (field-independent basis, Debye):
    X=              0.9941    Y=             -1.2319    Z=             -0.1264  Tot=              1.5880
 Quadrupole moment (field-independent basis, Debye-Ang):
   XX=            -13.0429   YY=            -12.4712   ZZ=            -13.7576
   XY=              1.7726   XZ=              0.1089   YZ=              0.0565

 Normal termination of Gaussian 09 at Wed Aug 26 11:29:22 2020.
