 Gaussian 09, Revision D.01,
 Gaussian 09:  ES64L-G09RevD.01 24-Apr-2013

 --------------------
 #p B2PLYPD3/Def2QZVP
 --------------------

 --------
 methanol
 --------
 Symbolic Z-matrix:
 Charge =  0 Multiplicity = 1

                         Standard orientation:
 ---------------------------------------------------------------------
 Center     Atomic      Atomic             Coordinates (Angstroms)
 Number     Number       Type             X           Y           Z
 ---------------------------------------------------------------------
      1          6           0       -0.643595    0.013789    0.001365
      2          8           0        0.740668   -0.152323   -0.008696
      3          1           0       -1.089366    0.556603   -0.796534
      4          1           0       -0.989965    0.532087    0.816297
      5          1           0       -1.097487   -0.921233    0.022227
      6          1           0        1.113048    0.968392    0.019391
 ---------------------------------------------------------------------

 SCF Done:  E(RB2PLYPD3) =  -115.510870540     A.U. after   11 cycles
 E2(B2PLYPD3) =    -0.1509992169D+00 E(B2PLYPD3) =    -0.11566186975727D+03

 The electronic state is 1-A.
 Alpha  occ. eigenvalues --  -19.74540 -10.63499  -1.14231  -0.78700  -0.57074
 Alpha  occ. eigenvalues --   -0.51660  -0.50015  -0.41005  -0.34909
 Alpha virt. eigenvalues --    0.02465   0.07702   0.12544   0.12912   0.15149
 Alpha virt. eigenvalues --    0.17776   0.18194   0.26621   0.29686   0.33370
 Alpha virt. eigenvalues --    0.35230   0.39021   0.39800   0.41737   0.44132

 Mulliken charges:
               1
     1  C    0.088243
     2  O   -0.474333
     3  H    0.034232
     4  H    0.035802
     5  H    0.061456
     6  H    0.254599
 Sum of Mulliken charges =   0.00000

 Dipole moment (field-independent basis, Debye):
    X=             -0.9229    Y=              1.7006    Z=              0.0890  Tot=              1.9369
 Quadrupole moment (field-independent basis, Debye-Ang):
   XX=            -13.1983   YY=            -11.6598   ZZ=            -14.1038
   XY=              2.2995   XZ=              0.0636   YZ=              0.0452

 Normal termination of Gaussian 09 at Wed Aug 26 13:42:37 2020.
