 Gaussian 09, Revision D.01,
 Gaussian 09:  ES64L-G09RevD.01 24-Apr-2013

 --------------------
 #p B2PLYPD3/Def2QZVP
 --------------------

 --------
 methanol
 --------
 Symbolic Z-matrix:
 Charge =  0 Multiplicity = 1

                         Standard orientation:
 ---------------------------------------------------------------------
 Center     Atomic      Atomic             Coordinates (Angstroms)
 Number     Number       Type             X           Y           Z
 ---------------------------------------------------------------------
      1          6           0        0.673283   -0.015184   -0.011209
      2          8           0       -0.764081    0.104238    0.003817
      3          1           0        1.071705   -0.536073   -0.875506
      4          1           0        1.034906   -0.576021    0.910591
      5          1           0        1.076033    1.042652    0.030350
      6          1           0       -1.109692   -0.673360   -0.028715
 ---------------------------------------------------------------------

 SCF Done:  E(RB2PLYPD3) =  -115.536829372     A.U. after   10 cycles
 E2(B2PLYPD3) =    -0.1460643197D+00 E(B2PLYPD3) =    -0.11568289369121D+03

 The electronic state is 1-A.
 Alpha  occ. eigenvalues --  -19.71649 -10.66934  -1.18283  -0.79231  -0.60022
 Alpha  occ. eigenvalues --   -0.51115  -0.49390  -0.41664  -0.35749
 Alpha virt. eigenvalues --    0.05296   0.08520   0.12046   0.12232   0.14858
 Alpha virt. eigenvalues --    0.17135   0.17940   0.29041   0.32196   0.33437
 Alpha virt. eigenvalues --    0.37377   0.38242   0.39404   0.40376   0.42620

 Mulliken charges:
               1
     1  C    0.065813
     2  O   -0.406385
     3  H    0.055676
     4  H    0.046425
     5  H    0.073152
     6  H    0.165319
 Sum of Mulliken charges =   0.00000

 Dipole moment (field-independent basis, Debye):
    X=              0.9856    Y=             -1.4253    Z=             -0.1050  Tot=              1.7360
 Quadrupole moment (field-independent basis, Debye-Ang):
   XX=            -13.0880   YY=            -12.2755   ZZ=            -13.7949
   XY=              2.0598   XZ=             -0.0101   YZ=              0.1050

 Normal termination of Gaussian 09 at Wed Aug 26 14:28:40 2020.
