 Gaussian 09, Revision D.01,
 Gaussian 09:  ES64L-G09RevD.01 24-Apr-2013

 --------------------
 #p B2PLYPD3/Def2QZVP
 --------------------

 --------
 methanol
 --------
 Symbolic Z-matrix:
 Charge =  0 Multiplicity = 1

                         Standard orientation:
 ---------------------------------------------------------------------
 Center     Atomic      Atomic             Coordinates (Angstroms)
 Number     Number       Type             X           Y           Z
 ---------------------------------------------------------------------
      1          6           0        0.669866    0.027930   -0.004065
      2          8           0       -0.731914   -0.159470    0.005878
      3          1           0        1.007208    0.489404    0.895467
      4          1           0        1.051811    0.540794   -0.807701
      5          1           0        1.039053   -0.873242   -0.061247
      6          1           0       -1.261959    0.951220   -0.049147
 ---------------------------------------------------------------------

 SCF Done:  E(RB2PLYPD3) =  -115.494716629     A.U. after   11 cycles
 E2(B2PLYPD3) =    -0.1518218795D+00 E(B2PLYPD3) =    -0.11564653850834D+03

 The electronic state is 1-A.
 Alpha  occ. eigenvalues --  -19.74213 -10.62907  -1.12622  -0.79110  -0.55932
 Alpha  occ. eigenvalues --   -0.52341  -0.49606  -0.40197  -0.34951
 Alpha virt. eigenvalues --    0.01946   0.07658   0.12688   0.12896   0.14945
 Alpha virt. eigenvalues --    0.17098   0.18499   0.25714   0.29453   0.33383
 Alpha virt. eigenvalues --    0.34778   0.38781   0.40315   0.42240   0.44179

 Mulliken charges:
               1
     1  C    0.080584
     2  O   -0.494741
     3  H    0.047552
     4  H    0.044083
     5  H    0.069915
     6  H    0.252607
 Sum of Mulliken charges =   0.00000

 Dipole moment (field-independent basis, Debye):
    X=              0.8473    Y=              1.6221    Z=             -0.1311  Tot=              1.8348
 Quadrupole moment (field-independent basis, Debye-Ang):
   XX=            -12.6807   YY=            -11.9064   ZZ=            -13.8596
   XY=             -2.5668   XZ=              0.0017   YZ=             -0.0644

 Normal termination of Gaussian 09 at Wed Aug 26 11:15:21 2020.
