 Gaussian 09, Revision D.01,
 Gaussian 09:  ES64L-G09RevD.01 24-Apr-2013

 --------------------
 #p B2PLYPD3/Def2QZVP
 --------------------

 --------
 methanol
 --------
 Symbolic Z-matrix:
 Charge =  0 Multiplicity = 1

                         Standard orientation:
 ---------------------------------------------------------------------
 Center     Atomic      Atomic             Coordinates (Angstroms)
 Number     Number       Type             X           Y           Z
 ---------------------------------------------------------------------
      1          6           0       -0.682528    0.016983    0.002335
      2          8           0        0.752116   -0.137110   -0.002867
      3          1           0       -1.016582    0.498109   -0.836918
      4          1           0       -0.795193    0.631821    0.850340
      5          1           0       -1.118534   -0.958785    0.067352
      6          1           0        1.008547    0.823842   -0.071850
 ---------------------------------------------------------------------

 SCF Done:  E(RB2PLYPD3) =  -115.538999004     A.U. after   11 cycles
 E2(B2PLYPD3) =    -0.1481683667D+00 E(B2PLYPD3) =    -0.11568716737033D+03

 The electronic state is 1-A.
 Alpha  occ. eigenvalues --  -19.72401 -10.64354  -1.15121  -0.78995  -0.58037
 Alpha  occ. eigenvalues --   -0.53469  -0.48942  -0.42115  -0.35031
 Alpha virt. eigenvalues --    0.04585   0.08447   0.12225   0.12357   0.14566
 Alpha virt. eigenvalues --    0.17318   0.17722   0.29326   0.31167   0.33140
 Alpha virt. eigenvalues --    0.34403   0.39656   0.40277   0.41713   0.44814

 Mulliken charges:
               1
     1  C    0.080989
     2  O   -0.472942
     3  H    0.043899
     4  H    0.050981
     5  H    0.070547
     6  H    0.226526
 Sum of Mulliken charges =   0.00000

 Dipole moment (field-independent basis, Debye):
    X=             -1.1989    Y=              1.5931    Z=             -0.1316  Tot=              1.9982
 Quadrupole moment (field-independent basis, Debye-Ang):
   XX=            -13.7054   YY=            -11.7598   ZZ=            -13.7015
   XY=              2.2013   XZ=              0.1061   YZ=             -0.1101

 Normal termination of Gaussian 09 at Wed Aug 26 23:33:20 2020.
