 Gaussian 09, Revision D.01,
 Gaussian 09:  ES64L-G09RevD.01 24-Apr-2013

 --------------------
 #p B2PLYPD3/Def2QZVP
 --------------------

 --------
 methanol
 --------
 Symbolic Z-matrix:
 Charge =  0 Multiplicity = 1

                         Standard orientation:
 ---------------------------------------------------------------------
 Center     Atomic      Atomic             Coordinates (Angstroms)
 Number     Number       Type             X           Y           Z
 ---------------------------------------------------------------------
      1          6           0        0.669136   -0.032165   -0.003115
      2          8           0       -0.743549    0.100149    0.005669
      3          1           0        0.988728   -0.552670   -0.897925
      4          1           0        1.051476   -0.484354    0.929706
      5          1           0        0.991081    1.077804   -0.051552
      6          1           0       -1.097711   -0.648983   -0.006889
 ---------------------------------------------------------------------

 SCF Done:  E(RB2PLYPD3) =  -115.528293343     A.U. after   10 cycles
 E2(B2PLYPD3) =    -0.1453468119D+00 E(B2PLYPD3) =    -0.11567364015500D+03

 The electronic state is 1-A.
 Alpha  occ. eigenvalues --  -19.71040 -10.66534  -1.19477  -0.79569  -0.60422
 Alpha  occ. eigenvalues --   -0.52632  -0.49015  -0.40893  -0.35939
 Alpha virt. eigenvalues --    0.05356   0.08880   0.11924   0.12204   0.14778
 Alpha virt. eigenvalues --    0.16796   0.18082   0.28999   0.33113   0.33425
 Alpha virt. eigenvalues --    0.36971   0.38795   0.40503   0.41031   0.42995

 Mulliken charges:
               1
     1  C    0.057816
     2  O   -0.380129
     3  H    0.056558
     4  H    0.056445
     5  H    0.066204
     6  H    0.143106
 Sum of Mulliken charges =   0.00000

 Dipole moment (field-independent basis, Debye):
    X=              0.8807    Y=             -1.4273    Z=             -0.0458  Tot=              1.6777
 Quadrupole moment (field-independent basis, Debye-Ang):
   XX=            -13.2626   YY=            -12.3423   ZZ=            -13.5380
   XY=              1.9215   XZ=              0.0606   YZ=              0.0288

 Normal termination of Gaussian 09 at Wed Aug 26 13:59:40 2020.
