 Gaussian 09, Revision D.01,
 Gaussian 09:  ES64L-G09RevD.01 24-Apr-2013

 --------------------
 #p B2PLYPD3/Def2QZVP
 --------------------

 --------
 methanol
 --------
 Symbolic Z-matrix:
 Charge =  0 Multiplicity = 1

                         Standard orientation:
 ---------------------------------------------------------------------
 Center     Atomic      Atomic             Coordinates (Angstroms)
 Number     Number       Type             X           Y           Z
 ---------------------------------------------------------------------
      1          6           0       -0.670478   -0.019542    0.010909
      2          8           0        0.747316    0.101792   -0.011168
      3          1           0       -1.026827   -0.480599    0.917256
      4          1           0       -1.027182   -0.628746   -0.889271
      5          1           0       -1.046759    1.048694   -0.065591
      6          1           0        1.145105   -0.636432    0.061491
 ---------------------------------------------------------------------

 SCF Done:  E(RB2PLYPD3) =  -115.533787017     A.U. after   10 cycles
 E2(B2PLYPD3) =    -0.1455155964D+00 E(B2PLYPD3) =    -0.11567930261305D+03

 The electronic state is 1-A.
 Alpha  occ. eigenvalues --  -19.71192 -10.66807  -1.18739  -0.79576  -0.60309
 Alpha  occ. eigenvalues --   -0.51598  -0.49667  -0.40934  -0.35588
 Alpha virt. eigenvalues --    0.05351   0.08699   0.12074   0.12225   0.14844
 Alpha virt. eigenvalues --    0.16922   0.17892   0.29087   0.32922   0.33393
 Alpha virt. eigenvalues --    0.37538   0.38455   0.39597   0.40713   0.42728

 Mulliken charges:
               1
     1  C    0.064826
     2  O   -0.398606
     3  H    0.055838
     4  H    0.046307
     5  H    0.073975
     6  H    0.157660
 Sum of Mulliken charges =   0.00000

 Dipole moment (field-independent basis, Debye):
    X=             -0.8461    Y=             -1.3825    Z=              0.1992  Tot=              1.6330
 Quadrupole moment (field-independent basis, Debye-Ang):
   XX=            -12.9947   YY=            -12.3742   ZZ=            -13.6915
   XY=             -2.0749   XZ=              0.1119   YZ=             -0.1395

 Normal termination of Gaussian 09 at Thu Aug 27 00:09:19 2020.
