 Gaussian 09, Revision D.01,
 Gaussian 09:  ES64L-G09RevD.01 24-Apr-2013

 --------------------
 #p B2PLYPD3/Def2QZVP
 --------------------

 --------
 methanol
 --------
 Symbolic Z-matrix:
 Charge =  0 Multiplicity = 1

                         Standard orientation:
 ---------------------------------------------------------------------
 Center     Atomic      Atomic             Coordinates (Angstroms)
 Number     Number       Type             X           Y           Z
 ---------------------------------------------------------------------
      1          6           0        0.680962    0.047108    0.033934
      2          8           0       -0.714528   -0.208027   -0.020336
      3          1           0        0.922685    0.313932    0.805412
      4          1           0        1.040792    0.710099   -0.697370
      5          1           0        1.077611   -0.765990   -0.193846
      6          1           0       -1.410636    1.123528    0.044892
 ---------------------------------------------------------------------

 SCF Done:  E(RB2PLYPD3) =  -115.365716442     A.U. after   12 cycles
 E2(B2PLYPD3) =    -0.1573372209D+00 E(B2PLYPD3) =    -0.11552305366311D+03

 The electronic state is 1-A.
 Alpha  occ. eigenvalues --  -19.75268 -10.60292  -1.11381  -0.81558  -0.57210
 Alpha  occ. eigenvalues --   -0.52825  -0.48771  -0.38201  -0.35335
 Alpha virt. eigenvalues --   -0.03172   0.07458   0.12823   0.13070   0.14727
 Alpha virt. eigenvalues --    0.17240   0.18420   0.21238   0.29480   0.33271
 Alpha virt. eigenvalues --    0.34583   0.38328   0.40004   0.43162   0.46643

 Mulliken charges:
               1
     1  C    0.044542
     2  O   -0.483802
     3  H    0.104222
     4  H    0.043570
     5  H    0.070502
     6  H    0.220966
 Sum of Mulliken charges =   0.00000

 Dipole moment (field-independent basis, Debye):
    X=              0.9944    Y=              1.6639    Z=              0.1563  Tot=              1.9446
 Quadrupole moment (field-independent basis, Debye-Ang):
   XX=            -12.2940   YY=            -11.6445   ZZ=            -13.8235
   XY=             -2.7345   XZ=             -0.1287   YZ=              0.1585

 Normal termination of Gaussian 09 at Wed Aug 26 21:53:00 2020.
