 Gaussian 09, Revision D.01,
 Gaussian 09:  ES64L-G09RevD.01 24-Apr-2013

 --------------------
 #p B2PLYPD3/Def2QZVP
 --------------------

 --------
 methanol
 --------
 Symbolic Z-matrix:
 Charge =  0 Multiplicity = 1

                         Standard orientation:
 ---------------------------------------------------------------------
 Center     Atomic      Atomic             Coordinates (Angstroms)
 Number     Number       Type             X           Y           Z
 ---------------------------------------------------------------------
      1          6           0        0.656472    0.031025    0.013229
      2          8           0       -0.737120   -0.152358   -0.022966
      3          1           0        0.975637    0.384735    0.884079
      4          1           0        1.067600    0.615841   -0.822796
      5          1           0        1.091765   -0.888487   -0.053325
      6          1           0       -1.176875    0.920625    0.096393
 ---------------------------------------------------------------------

 SCF Done:  E(RB2PLYPD3) =  -115.511573137     A.U. after   11 cycles
 E2(B2PLYPD3) =    -0.1506050206D+00 E(B2PLYPD3) =    -0.11566217815720D+03

 The electronic state is 1-A.
 Alpha  occ. eigenvalues --  -19.74104 -10.63342  -1.13687  -0.79005  -0.56325
 Alpha  occ. eigenvalues --   -0.52611  -0.49932  -0.40314  -0.35248
 Alpha virt. eigenvalues --    0.02909   0.07732   0.12539   0.12892   0.14855
 Alpha virt. eigenvalues --    0.17484   0.18605   0.27246   0.29446   0.33495
 Alpha virt. eigenvalues --    0.34713   0.38913   0.40500   0.41956   0.44154

 Mulliken charges:
               1
     1  C    0.080653
     2  O   -0.484872
     3  H    0.048017
     4  H    0.041664
     5  H    0.060300
     6  H    0.254239
 Sum of Mulliken charges =   0.00000

 Dipole moment (field-independent basis, Debye):
    X=              0.8857    Y=              1.6053    Z=              0.2791  Tot=              1.8546
 Quadrupole moment (field-independent basis, Debye-Ang):
   XX=            -12.9447   YY=            -12.0098   ZZ=            -13.7793
   XY=             -2.4721   XZ=             -0.2042   YZ=              0.1623

 Normal termination of Gaussian 09 at Wed Aug 26 13:20:53 2020.
