 Gaussian 09, Revision D.01,
 Gaussian 09:  ES64L-G09RevD.01 24-Apr-2013

 --------------------
 #p B2PLYPD3/Def2QZVP
 --------------------

 --------
 methanol
 --------
 Symbolic Z-matrix:
 Charge =  0 Multiplicity = 1

                         Standard orientation:
 ---------------------------------------------------------------------
 Center     Atomic      Atomic             Coordinates (Angstroms)
 Number     Number       Type             X           Y           Z
 ---------------------------------------------------------------------
      1          6           0       -0.650338   -0.019543    0.000723
      2          8           0        0.747885    0.083776   -0.024869
      3          1           0       -1.063839   -0.260176    1.054049
      4          1           0       -0.994465   -0.851228   -0.766402
      5          1           0       -1.146068    1.025880   -0.271129
      6          1           0        1.123323   -0.467427    0.178096
 ---------------------------------------------------------------------

 SCF Done:  E(RB2PLYPD3) =  -115.413070018     A.U. after   11 cycles
 E2(B2PLYPD3) =    -0.1440187921D+00 E(B2PLYPD3) =    -0.11555708881016D+03

 The electronic state is 1-A.
 Alpha  occ. eigenvalues --  -19.69981 -10.68933  -1.24648  -0.81481  -0.61956
 Alpha  occ. eigenvalues --   -0.51615  -0.50239  -0.40023  -0.35950
 Alpha virt. eigenvalues --    0.05300   0.09107   0.11794   0.11951   0.14409
 Alpha virt. eigenvalues --    0.17110   0.17866   0.28621   0.32508   0.33676
 Alpha virt. eigenvalues --    0.35698   0.37677   0.38673   0.40586   0.42578

 Mulliken charges:
               1
     1  C    0.051164
     2  O   -0.238551
     3  H    0.047490
     4  H    0.047145
     5  H    0.075756
     6  H    0.016995
 Sum of Mulliken charges =   0.00000

 Dipole moment (field-independent basis, Debye):
    X=             -0.7857    Y=             -1.1096    Z=              0.4460  Tot=              1.4309
 Quadrupole moment (field-independent basis, Debye-Ang):
   XX=            -12.8922   YY=            -12.7988   ZZ=            -13.5878
   XY=             -1.9311   XZ=              0.5538   YZ=             -0.1967

 Normal termination of Gaussian 09 at Wed Aug 26 12:53:29 2020.
