 Gaussian 09, Revision D.01,
 Gaussian 09:  ES64L-G09RevD.01 24-Apr-2013

 --------------------
 #p B2PLYPD3/Def2QZVP
 --------------------

 --------
 methanol
 --------
 Symbolic Z-matrix:
 Charge =  0 Multiplicity = 1

                         Standard orientation:
 ---------------------------------------------------------------------
 Center     Atomic      Atomic             Coordinates (Angstroms)
 Number     Number       Type             X           Y           Z
 ---------------------------------------------------------------------
      1          6           0        0.659673    0.001170    0.029192
      2          8           0       -0.738721   -0.154153   -0.040610
      3          1           0        1.110525    0.226749    0.873143
      4          1           0        1.042122    0.785046   -0.803126
      5          1           0        1.022929   -0.766947   -0.173881
      6          1           0       -1.223846    0.981358    0.253591
 ---------------------------------------------------------------------

 SCF Done:  E(RB2PLYPD3) =  -115.436390337     A.U. after   12 cycles
 E2(B2PLYPD3) =    -0.1530613610D+00 E(B2PLYPD3) =    -0.11558945169823D+03

 The electronic state is 1-A.
 Alpha  occ. eigenvalues --  -19.75004 -10.62748  -1.12941  -0.80830  -0.56153
 Alpha  occ. eigenvalues --   -0.51482  -0.50090  -0.40498  -0.34683
 Alpha virt. eigenvalues --    0.01046   0.07428   0.12285   0.13167   0.14957
 Alpha virt. eigenvalues --    0.17300   0.18936   0.24457   0.29313   0.32507
 Alpha virt. eigenvalues --    0.35070   0.36266   0.40683   0.41359   0.44829

 Mulliken charges:
               1
     1  C    0.043643
     2  O   -0.477672
     3  H    0.047673
     4  H    0.023766
     5  H    0.104211
     6  H    0.258379
 Sum of Mulliken charges =   0.00000

 Dipole moment (field-independent basis, Debye):
    X=              0.8269    Y=              1.4337    Z=              0.5993  Tot=              1.7602
 Quadrupole moment (field-independent basis, Debye-Ang):
   XX=            -12.7996   YY=            -11.9552   ZZ=            -13.8476
   XY=             -2.7251   XZ=             -0.3132   YZ=              0.4865

 Normal termination of Gaussian 09 at Wed Aug 26 22:53:02 2020.
