 Gaussian 09, Revision D.01,
 Gaussian 09:  ES64L-G09RevD.01 24-Apr-2013

 --------------------
 #p B2PLYPD3/Def2QZVP
 --------------------

 --------
 methanol
 --------
 Symbolic Z-matrix:
 Charge =  0 Multiplicity = 1

                         Standard orientation:
 ---------------------------------------------------------------------
 Center     Atomic      Atomic             Coordinates (Angstroms)
 Number     Number       Type             X           Y           Z
 ---------------------------------------------------------------------
      1          6           0        0.636872   -0.027911    0.001394
      2          8           0       -0.746685    0.090959    0.001177
      3          1           0        1.012660   -0.681286   -0.855948
      4          1           0        1.102172   -0.432500    0.953304
      5          1           0        1.098023    1.113545   -0.140982
      6          1           0       -1.060604   -0.559966    0.025849
 ---------------------------------------------------------------------

 SCF Done:  E(RB2PLYPD3) =  -115.444855619     A.U. after   10 cycles
 E2(B2PLYPD3) =    -0.1442839340D+00 E(B2PLYPD3) =    -0.11558913955301D+03

 The electronic state is 1-A.
 Alpha  occ. eigenvalues --  -19.70771 -10.68387  -1.24730  -0.80488  -0.62569
 Alpha  occ. eigenvalues --   -0.51957  -0.49926  -0.40451  -0.36132
 Alpha virt. eigenvalues --    0.05239   0.09035   0.11473   0.12169   0.14917
 Alpha virt. eigenvalues --    0.17115   0.17950   0.28588   0.32934   0.33699
 Alpha virt. eigenvalues --    0.35340   0.38568   0.39426   0.40543   0.42307

 Mulliken charges:
               1
     1  C    0.043987
     2  O   -0.248174
     3  H    0.047381
     4  H    0.052805
     5  H    0.058831
     6  H    0.045169
 Sum of Mulliken charges =   0.00000

 Dipole moment (field-independent basis, Debye):
    X=              0.7786    Y=             -1.3498    Z=              0.0594  Tot=              1.5594
 Quadrupole moment (field-independent basis, Debye-Ang):
   XX=            -13.1877   YY=            -12.5552   ZZ=            -13.7512
   XY=              1.8022   XZ=              0.0094   YZ=             -0.0207

 Normal termination of Gaussian 09 at Wed Aug 26 11:45:57 2020.
