 Gaussian 09, Revision D.01,
 Gaussian 09:  ES64L-G09RevD.01 24-Apr-2013

 --------------------
 #p B2PLYPD3/Def2QZVP
 --------------------

 --------
 methanol
 --------
 Symbolic Z-matrix:
 Charge =  0 Multiplicity = 1

                         Standard orientation:
 ---------------------------------------------------------------------
 Center     Atomic      Atomic             Coordinates (Angstroms)
 Number     Number       Type             X           Y           Z
 ---------------------------------------------------------------------
      1          6           0       -0.648542   -0.010697    0.018163
      2          8           0        0.747118    0.100568   -0.022073
      3          1           0       -1.003659   -0.387494    0.976256
      4          1           0       -1.058716   -0.707063   -0.862048
      5          1           0       -1.094100    0.997499   -0.147660
      6          1           0        1.070785   -0.643306    0.101061
 ---------------------------------------------------------------------

 SCF Done:  E(RB2PLYPD3) =  -115.523791224     A.U. after   10 cycles
 E2(B2PLYPD3) =    -0.1452255328D+00 E(B2PLYPD3) =    -0.11566901675684D+03

 The electronic state is 1-A.
 Alpha  occ. eigenvalues --  -19.71546 -10.67075  -1.20695  -0.79468  -0.60847
 Alpha  occ. eigenvalues --   -0.51612  -0.50622  -0.41208  -0.35570
 Alpha virt. eigenvalues --    0.05323   0.08765   0.11961   0.12330   0.14694
 Alpha virt. eigenvalues --    0.17376   0.18006   0.28765   0.32781   0.33842
 Alpha virt. eigenvalues --    0.36529   0.39064   0.39426   0.40702   0.43365

 Mulliken charges:
               1
     1  C    0.058818
     2  O   -0.360267
     3  H    0.052950
     4  H    0.033431
     5  H    0.072741
     6  H    0.142327
 Sum of Mulliken charges =   0.00000

 Dipole moment (field-independent basis, Debye):
    X=             -0.8477    Y=             -1.2968    Z=              0.3291  Tot=              1.5838
 Quadrupole moment (field-independent basis, Debye-Ang):
   XX=            -13.2372   YY=            -12.4869   ZZ=            -13.6629
   XY=             -2.1061   XZ=              0.2468   YZ=             -0.2494

 Normal termination of Gaussian 09 at Wed Aug 26 16:32:22 2020.
