 Gaussian 09, Revision D.01,
 Gaussian 09:  ES64L-G09RevD.01 24-Apr-2013

 --------------------
 #p B2PLYPD3/Def2QZVP
 --------------------

 --------
 methanol
 --------
 Symbolic Z-matrix:
 Charge =  0 Multiplicity = 1

                         Standard orientation:
 ---------------------------------------------------------------------
 Center     Atomic      Atomic             Coordinates (Angstroms)
 Number     Number       Type             X           Y           Z
 ---------------------------------------------------------------------
      1          6           0       -0.667040   -0.021902    0.011929
      2          8           0        0.746569    0.116409   -0.010818
      3          1           0       -0.997012   -0.460685    0.943369
      4          1           0       -1.064865   -0.610967   -0.881387
      5          1           0       -1.091065    0.973855   -0.074745
      6          1           0        1.182631   -0.702064    0.027732
 ---------------------------------------------------------------------

 SCF Done:  E(RB2PLYPD3) =  -115.550655467     A.U. after   10 cycles
 E2(B2PLYPD3) =    -0.1467540056D+00 E(B2PLYPD3) =    -0.11569740947244D+03

 The electronic state is 1-A.
 Alpha  occ. eigenvalues --  -19.72154 -10.66110  -1.16577  -0.78948  -0.58932
 Alpha  occ. eigenvalues --   -0.51750  -0.50052  -0.40511  -0.35417
 Alpha virt. eigenvalues --    0.05161   0.08244   0.12234   0.12547   0.14684
 Alpha virt. eigenvalues --    0.17189   0.18228   0.29047   0.33162   0.33515
 Alpha virt. eigenvalues --    0.35819   0.38658   0.39866   0.40757   0.43656

 Mulliken charges:
               1
     1  C    0.067195
     2  O   -0.451976
     3  H    0.054509
     4  H    0.043510
     5  H    0.073128
     6  H    0.213635
 Sum of Mulliken charges =   0.00000

 Dipole moment (field-independent basis, Debye):
    X=             -0.8028    Y=             -1.4216    Z=              0.1205  Tot=              1.6370
 Quadrupole moment (field-independent basis, Debye-Ang):
   XX=            -12.7959   YY=            -12.4591   ZZ=            -13.7170
   XY=             -2.3208   XZ=              0.1081   YZ=             -0.1003

 Normal termination of Gaussian 09 at Thu Aug 27 00:11:34 2020.
