 Gaussian 09, Revision D.01,
 Gaussian 09:  ES64L-G09RevD.01 24-Apr-2013

 --------------------
 #p B2PLYPD3/Def2QZVP
 --------------------

 --------
 methanol
 --------
 Symbolic Z-matrix:
 Charge =  0 Multiplicity = 1

                         Standard orientation:
 ---------------------------------------------------------------------
 Center     Atomic      Atomic             Coordinates (Angstroms)
 Number     Number       Type             X           Y           Z
 ---------------------------------------------------------------------
      1          6           0       -0.653177   -0.008557    0.024722
      2          8           0        0.751785    0.073225   -0.028394
      3          1           0       -1.002706   -0.381862    1.020101
      4          1           0       -1.125145   -0.730236   -0.880957
      5          1           0       -1.060794    1.072338   -0.169560
      6          1           0        1.093423   -0.494702    0.109239
 ---------------------------------------------------------------------

 SCF Done:  E(RB2PLYPD3) =  -115.380857648     A.U. after   11 cycles
 E2(B2PLYPD3) =    -0.1439694622D+00 E(B2PLYPD3) =    -0.11552482711048D+03

 The electronic state is 1-A.
 Alpha  occ. eigenvalues --  -19.69881 -10.69062  -1.25616  -0.81692  -0.62068
 Alpha  occ. eigenvalues --   -0.51242  -0.50260  -0.40819  -0.35884
 Alpha virt. eigenvalues --    0.05265   0.09117   0.11606   0.11870   0.14577
 Alpha virt. eigenvalues --    0.16873   0.17905   0.28508   0.32305   0.33181
 Alpha virt. eigenvalues --    0.35504   0.37243   0.39678   0.40641   0.42291

 Mulliken charges:
               1
     1  C    0.046213
     2  O   -0.219590
     3  H    0.058611
     4  H    0.034874
     5  H    0.079627
     6  H    0.000265
 Sum of Mulliken charges =   0.00000

 Dipole moment (field-independent basis, Debye):
    X=             -0.8202    Y=             -1.0923    Z=              0.4262  Tot=              1.4309
 Quadrupole moment (field-independent basis, Debye-Ang):
   XX=            -13.0973   YY=            -12.7113   ZZ=            -13.5471
   XY=             -1.8781   XZ=              0.3537   YZ=             -0.3019

 Normal termination of Gaussian 09 at Wed Aug 26 12:24:48 2020.
