 Gaussian 09, Revision D.01,
 Gaussian 09:  ES64L-G09RevD.01 24-Apr-2013

 --------------------
 #p B2PLYPD3/Def2QZVP
 --------------------

 --------
 methanol
 --------
 Symbolic Z-matrix:
 Charge =  0 Multiplicity = 1

                         Standard orientation:
 ---------------------------------------------------------------------
 Center     Atomic      Atomic             Coordinates (Angstroms)
 Number     Number       Type             X           Y           Z
 ---------------------------------------------------------------------
      1          6           0       -0.678826    0.000189   -0.004751
      2          8           0        0.778655   -0.068172   -0.030686
      3          1           0       -1.076853    1.009973   -0.516300
      4          1           0       -1.171148   -0.141039    1.077938
      5          1           0       -0.951963   -0.845203   -0.590517
      6          1           0        1.043679    0.520508    0.302866
 ---------------------------------------------------------------------

 SCF Done:  E(RB2PLYPD3) =  -115.447464220     A.U. after   11 cycles
 E2(B2PLYPD3) =    -0.1450868091D+00 E(B2PLYPD3) =    -0.11559255102922D+03

 The electronic state is 1-A.
 Alpha  occ. eigenvalues --  -19.70497 -10.68362  -1.22667  -0.80357  -0.60443
 Alpha  occ. eigenvalues --   -0.50386  -0.49890  -0.42439  -0.36191
 Alpha virt. eigenvalues --    0.05338   0.08586   0.11475   0.12313   0.14512
 Alpha virt. eigenvalues --    0.16717   0.18257   0.28409   0.30988   0.33006
 Alpha virt. eigenvalues --    0.34806   0.37677   0.40096   0.41167   0.42894

 Mulliken charges:
               1
     1  C    0.043760
     2  O   -0.280457
     3  H    0.048329
     4  H    0.052278
     5  H    0.090144
     6  H    0.045946
 Sum of Mulliken charges =   0.00000

 Dipole moment (field-independent basis, Debye):
    X=             -1.1091    Y=              1.0371    Z=              0.5609  Tot=              1.6187
 Quadrupole moment (field-independent basis, Debye-Ang):
   XX=            -13.3521   YY=            -12.6470   ZZ=            -13.3469
   XY=              1.6618   XZ=              0.8715   YZ=              0.4804

 Normal termination of Gaussian 09 at Wed Aug 26 23:39:35 2020.
