 Gaussian 09, Revision D.01,
 Gaussian 09:  ES64L-G09RevD.01 24-Apr-2013

 --------------------
 #p B2PLYPD3/Def2QZVP
 --------------------

 --------
 methanol
 --------
 Symbolic Z-matrix:
 Charge =  0 Multiplicity = 1

                         Standard orientation:
 ---------------------------------------------------------------------
 Center     Atomic      Atomic             Coordinates (Angstroms)
 Number     Number       Type             X           Y           Z
 ---------------------------------------------------------------------
      1          6           0        0.661990    0.020291   -0.005650
      2          8           0       -0.739176   -0.157369    0.012742
      3          1           0        1.126057    0.554316    0.804614
      4          1           0        1.000200    0.560548   -0.794120
      5          1           0        1.087071   -0.918901   -0.048263
      6          1           0       -1.271854    0.941242   -0.030266
 ---------------------------------------------------------------------

 SCF Done:  E(RB2PLYPD3) =  -115.500928469     A.U. after   11 cycles
 E2(B2PLYPD3) =    -0.1518375758D+00 E(B2PLYPD3) =    -0.11565276604439D+03

 The electronic state is 1-A.
 Alpha  occ. eigenvalues --  -19.74499 -10.63566  -1.12823  -0.78848  -0.56468
 Alpha  occ. eigenvalues --   -0.50995  -0.49709  -0.40505  -0.34782
 Alpha virt. eigenvalues --    0.01965   0.07467   0.12531   0.13082   0.15174
 Alpha virt. eigenvalues --    0.17376   0.18271   0.25763   0.29663   0.33434
 Alpha virt. eigenvalues --    0.34652   0.38930   0.39282   0.41392   0.44384

 Mulliken charges:
               1
     1  C    0.085785
     2  O   -0.490687
     3  H    0.039024
     4  H    0.041588
     5  H    0.068025
     6  H    0.256265
 Sum of Mulliken charges =   0.00000

 Dipole moment (field-independent basis, Debye):
    X=              0.7881    Y=              1.6859    Z=             -0.1406  Tot=              1.8663
 Quadrupole moment (field-independent basis, Debye-Ang):
   XX=            -12.5214   YY=            -11.8266   ZZ=            -14.1908
   XY=             -2.5157   XZ=              0.0804   YZ=             -0.0726

 Normal termination of Gaussian 09 at Wed Aug 26 16:18:53 2020.
