 Gaussian 09, Revision D.01,
 Gaussian 09:  ES64L-G09RevD.01 24-Apr-2013

 --------------------
 #p B2PLYPD3/Def2QZVP
 --------------------

 --------
 methanol
 --------
 Symbolic Z-matrix:
 Charge =  0 Multiplicity = 1

                         Standard orientation:
 ---------------------------------------------------------------------
 Center     Atomic      Atomic             Coordinates (Angstroms)
 Number     Number       Type             X           Y           Z
 ---------------------------------------------------------------------
      1          6           0       -0.656242   -0.002615    0.023277
      2          8           0        0.747580   -0.146441   -0.019266
      3          1           0       -1.113749    0.643070   -0.754572
      4          1           0       -0.884593    0.455724    0.826859
      5          1           0       -1.062180   -0.911225   -0.075368
      6          1           0        1.017336    0.999646    0.017547
 ---------------------------------------------------------------------

 SCF Done:  E(RB2PLYPD3) =  -115.493933588     A.U. after   11 cycles
 E2(B2PLYPD3) =    -0.1512115225D+00 E(B2PLYPD3) =    -0.11564514511050D+03

 The electronic state is 1-A.
 Alpha  occ. eigenvalues --  -19.74263 -10.62923  -1.13822  -0.79356  -0.57903
 Alpha  occ. eigenvalues --   -0.52177  -0.49182  -0.41763  -0.34833
 Alpha virt. eigenvalues --    0.02517   0.07867   0.12399   0.12786   0.15006
 Alpha virt. eigenvalues --    0.17783   0.17887   0.26740   0.29741   0.32803
 Alpha virt. eigenvalues --    0.34638   0.38099   0.40408   0.41981   0.44883

 Mulliken charges:
               1
     1  C    0.092896
     2  O   -0.480949
     3  H    0.022624
     4  H    0.048124
     5  H    0.067316
     6  H    0.249989
 Sum of Mulliken charges =   0.00000

 Dipole moment (field-independent basis, Debye):
    X=             -1.1327    Y=              1.6637    Z=              0.1824  Tot=              2.0209
 Quadrupole moment (field-independent basis, Debye-Ang):
   XX=            -13.6738   YY=            -11.3788   ZZ=            -14.0032
   XY=              2.1565   XZ=              0.0874   YZ=              0.1923

 Normal termination of Gaussian 09 at Wed Aug 26 22:31:40 2020.
