 Gaussian 09, Revision D.01,
 Gaussian 09:  ES64L-G09RevD.01 24-Apr-2013

 --------------------
 #p B2PLYPD3/Def2QZVP
 --------------------

 --------
 methanol
 --------
 Symbolic Z-matrix:
 Charge =  0 Multiplicity = 1

                         Standard orientation:
 ---------------------------------------------------------------------
 Center     Atomic      Atomic             Coordinates (Angstroms)
 Number     Number       Type             X           Y           Z
 ---------------------------------------------------------------------
      1          6           0       -0.668260   -0.029369    0.002516
      2          8           0        0.756528    0.117404   -0.002761
      3          1           0       -1.037994   -0.503701    0.910564
      4          1           0       -1.051555   -0.571458   -0.878646
      5          1           0       -1.118192    1.014221   -0.033746
      6          1           0        1.165073   -0.702083    0.008823
 ---------------------------------------------------------------------

 SCF Done:  E(RB2PLYPD3) =  -115.549550557     A.U. after   10 cycles
 E2(B2PLYPD3) =    -0.1468585622D+00 E(B2PLYPD3) =    -0.11569640911877D+03

 The electronic state is 1-A.
 Alpha  occ. eigenvalues --  -19.72254 -10.66451  -1.16696  -0.78812  -0.59178
 Alpha  occ. eigenvalues --   -0.51687  -0.49309  -0.40716  -0.35731
 Alpha virt. eigenvalues --    0.05187   0.08206   0.12246   0.12344   0.14750
 Alpha virt. eigenvalues --    0.17275   0.18215   0.29027   0.32945   0.33510
 Alpha virt. eigenvalues --    0.36070   0.38033   0.39700   0.40734   0.43255

 Mulliken charges:
               1
     1  C    0.066052
     2  O   -0.445680
     3  H    0.054725
     4  H    0.051833
     5  H    0.066668
     6  H    0.206402
 Sum of Mulliken charges =   0.00000

 Dipole moment (field-independent basis, Debye):
    X=             -0.8743    Y=             -1.4861    Z=              0.0326  Tot=              1.7245
 Quadrupole moment (field-independent basis, Debye-Ang):
   XX=            -12.8347   YY=            -12.4289   ZZ=            -13.7738
   XY=             -2.2142   XZ=              0.0317   YZ=             -0.0209

 Normal termination of Gaussian 09 at Thu Aug 27 00:12:08 2020.
