 Gaussian 09, Revision D.01,
 Gaussian 09:  ES64L-G09RevD.01 24-Apr-2013

 --------------------
 #p B2PLYPD3/Def2QZVP
 --------------------

 --------
 methanol
 --------
 Symbolic Z-matrix:
 Charge =  0 Multiplicity = 1

                         Standard orientation:
 ---------------------------------------------------------------------
 Center     Atomic      Atomic             Coordinates (Angstroms)
 Number     Number       Type             X           Y           Z
 ---------------------------------------------------------------------
      1          6           0       -0.660367   -0.022335    0.001953
      2          8           0        0.745374    0.131490   -0.003495
      3          1           0       -1.057572   -0.505053    0.860711
      4          1           0       -1.051016   -0.568620   -0.844643
      5          1           0       -1.057261    0.983568   -0.022904
      6          1           0        1.165056   -0.827804    0.023084
 ---------------------------------------------------------------------

 SCF Done:  E(RB2PLYPD3) =  -115.543995880     A.U. after   10 cycles
 E2(B2PLYPD3) =    -0.1487367976D+00 E(B2PLYPD3) =    -0.11569273267764D+03

 The electronic state is 1-A.
 Alpha  occ. eigenvalues --  -19.73420 -10.64881  -1.14846  -0.78434  -0.58075
 Alpha  occ. eigenvalues --   -0.51581  -0.49492  -0.41047  -0.35251
 Alpha virt. eigenvalues --    0.04311   0.07919   0.12382   0.12665   0.15150
 Alpha virt. eigenvalues --    0.17200   0.18252   0.29095   0.31892   0.33574
 Alpha virt. eigenvalues --    0.34344   0.38578   0.39555   0.41390   0.44052

 Mulliken charges:
               1
     1  C    0.071441
     2  O   -0.473656
     3  H    0.046906
     4  H    0.044574
     5  H    0.066871
     6  H    0.243864
 Sum of Mulliken charges =   0.00000

 Dipole moment (field-independent basis, Debye):
    X=             -0.8409    Y=             -1.5908    Z=              0.0619  Tot=              1.8005
 Quadrupole moment (field-independent basis, Debye-Ang):
   XX=            -12.9461   YY=            -12.0539   ZZ=            -13.9447
   XY=             -2.2677   XZ=              0.0309   YZ=             -0.0396

 Normal termination of Gaussian 09 at Wed Aug 26 19:04:18 2020.
