 Gaussian 09, Revision D.01,
 Gaussian 09:  ES64L-G09RevD.01 24-Apr-2013

 --------------------
 #p B2PLYPD3/Def2QZVP
 --------------------

 --------
 methanol
 --------
 Symbolic Z-matrix:
 Charge =  0 Multiplicity = 1

                         Standard orientation:
 ---------------------------------------------------------------------
 Center     Atomic      Atomic             Coordinates (Angstroms)
 Number     Number       Type             X           Y           Z
 ---------------------------------------------------------------------
      1          6           0        0.670502    0.016733    0.005605
      2          8           0       -0.740505   -0.144215   -0.001430
      3          1           0        1.059634    0.472846    0.869936
      4          1           0        0.984622    0.586926   -0.857410
      5          1           0        1.042405   -0.901351   -0.067222
      6          1           0       -1.185630    0.894904    0.032504
 ---------------------------------------------------------------------

 SCF Done:  E(RB2PLYPD3) =  -115.522824582     A.U. after   11 cycles
 E2(B2PLYPD3) =    -0.1500415965D+00 E(B2PLYPD3) =    -0.11567286617850D+03

 The electronic state is 1-A.
 Alpha  occ. eigenvalues --  -19.73660 -10.63712  -1.13420  -0.78890  -0.56773
 Alpha  occ. eigenvalues --   -0.51908  -0.49961  -0.40909  -0.34977
 Alpha virt. eigenvalues --    0.03410   0.07853   0.12568   0.12773   0.14888
 Alpha virt. eigenvalues --    0.17225   0.18281   0.28385   0.29817   0.33278
 Alpha virt. eigenvalues --    0.34213   0.38739   0.40720   0.41787   0.43771

 Mulliken charges:
               1
     1  C    0.079292
     2  O   -0.491367
     3  H    0.046959
     4  H    0.041533
     5  H    0.071795
     6  H    0.251789
 Sum of Mulliken charges =   0.00000

 Dipole moment (field-independent basis, Debye):
    X=              0.9003    Y=              1.5885    Z=              0.0665  Tot=              1.8271
 Quadrupole moment (field-independent basis, Debye-Ang):
   XX=            -12.9563   YY=            -11.9183   ZZ=            -13.8432
   XY=             -2.4573   XZ=              0.0060   YZ=              0.0804

 Normal termination of Gaussian 09 at Wed Aug 26 20:12:01 2020.
