 Gaussian 09, Revision D.01,
 Gaussian 09:  ES64L-G09RevD.01 24-Apr-2013

 --------------------
 #p B2PLYPD3/Def2QZVP
 --------------------

 --------
 methanol
 --------
 Symbolic Z-matrix:
 Charge =  0 Multiplicity = 1

                         Standard orientation:
 ---------------------------------------------------------------------
 Center     Atomic      Atomic             Coordinates (Angstroms)
 Number     Number       Type             X           Y           Z
 ---------------------------------------------------------------------
      1          6           0        0.664001   -0.018463    0.005798
      2          8           0       -0.738770    0.100999   -0.010378
      3          1           0        0.998299   -0.660917   -0.873610
      4          1           0        0.945557   -0.514046    0.946232
      5          1           0        1.123578    1.042704   -0.059546
      6          1           0       -1.141276   -0.564953    0.035154
 ---------------------------------------------------------------------

 SCF Done:  E(RB2PLYPD3) =  -115.501587743     A.U. after   10 cycles
 E2(B2PLYPD3) =    -0.1444352022D+00 E(B2PLYPD3) =    -0.11564602294476D+03

 The electronic state is 1-A.
 Alpha  occ. eigenvalues --  -19.70300 -10.67324  -1.20991  -0.80433  -0.61025
 Alpha  occ. eigenvalues --   -0.51945  -0.50345  -0.40427  -0.35482
 Alpha virt. eigenvalues --    0.05397   0.09006   0.12044   0.12174   0.14629
 Alpha virt. eigenvalues --    0.17120   0.17494   0.29025   0.32822   0.33361
 Alpha virt. eigenvalues --    0.37039   0.38776   0.39865   0.40351   0.43243

 Mulliken charges:
               1
     1  C    0.066833
     2  O   -0.336310
     3  H    0.044416
     4  H    0.050581
     5  H    0.076525
     6  H    0.097957
 Sum of Mulliken charges =   0.00000

 Dipole moment (field-independent basis, Debye):
    X=              0.8033    Y=             -1.3163    Z=              0.1297  Tot=              1.5475
 Quadrupole moment (field-independent basis, Debye-Ang):
   XX=            -12.9564   YY=            -12.4643   ZZ=            -13.6587
   XY=              2.1229   XZ=             -0.1416   YZ=             -0.0769

 Normal termination of Gaussian 09 at Wed Aug 26 10:49:57 2020.
