 Gaussian 09, Revision D.01,
 Gaussian 09:  ES64L-G09RevD.01 24-Apr-2013

 --------------------
 #p B2PLYPD3/Def2QZVP
 --------------------

 --------
 methanol
 --------
 Symbolic Z-matrix:
 Charge =  0 Multiplicity = 1

                         Standard orientation:
 ---------------------------------------------------------------------
 Center     Atomic      Atomic             Coordinates (Angstroms)
 Number     Number       Type             X           Y           Z
 ---------------------------------------------------------------------
      1          6           0        0.670376   -0.016936   -0.004147
      2          8           0       -0.748737    0.089527   -0.005014
      3          1           0        1.098578   -0.524518   -0.910780
      4          1           0        1.003786   -0.553415    0.940132
      5          1           0        0.973205    1.080881    0.039883
      6          1           0       -1.107930   -0.617542   -0.004247
 ---------------------------------------------------------------------

 SCF Done:  E(RB2PLYPD3) =  -115.510539331     A.U. after   10 cycles
 E2(B2PLYPD3) =    -0.1450453410D+00 E(B2PLYPD3) =    -0.11565558467154D+03

 The electronic state is 1-A.
 Alpha  occ. eigenvalues --  -19.70750 -10.67317  -1.20444  -0.79915  -0.60714
 Alpha  occ. eigenvalues --   -0.51544  -0.49477  -0.41144  -0.35816
 Alpha virt. eigenvalues --    0.05385   0.08868   0.11941   0.12098   0.14828
 Alpha virt. eigenvalues --    0.16665   0.17993   0.28974   0.32693   0.33462
 Alpha virt. eigenvalues --    0.37273   0.38705   0.39697   0.40395   0.42460

 Mulliken charges:
               1
     1  C    0.053270
     2  O   -0.344406
     3  H    0.055563
     4  H    0.049919
     5  H    0.075348
     6  H    0.110306
 Sum of Mulliken charges =   0.00000

 Dipole moment (field-independent basis, Debye):
    X=              0.8714    Y=             -1.3394    Z=             -0.0043  Tot=              1.5979
 Quadrupole moment (field-independent basis, Debye-Ang):
   XX=            -13.1849   YY=            -12.3546   ZZ=            -13.6386
   XY=              1.9069   XZ=             -0.1004   YZ=              0.0406

 Normal termination of Gaussian 09 at Wed Aug 26 13:55:13 2020.
