 Gaussian 09, Revision D.01,
 Gaussian 09:  ES64L-G09RevD.01 24-Apr-2013

 --------------------
 #p B2PLYPD3/Def2QZVP
 --------------------

 --------
 methanol
 --------
 Symbolic Z-matrix:
 Charge =  0 Multiplicity = 1

                         Standard orientation:
 ---------------------------------------------------------------------
 Center     Atomic      Atomic             Coordinates (Angstroms)
 Number     Number       Type             X           Y           Z
 ---------------------------------------------------------------------
      1          6           0        0.671749    0.044567    0.006050
      2          8           0       -0.730741   -0.166372   -0.013212
      3          1           0        1.005234    0.330864    0.861741
      4          1           0        0.990093    0.676883   -0.738107
      5          1           0        1.059679   -0.907162   -0.132353
      6          1           0       -1.239575    0.962989    0.078116
 ---------------------------------------------------------------------

 SCF Done:  E(RB2PLYPD3) =  -115.487808008     A.U. after   11 cycles
 E2(B2PLYPD3) =    -0.1519989731D+00 E(B2PLYPD3) =    -0.11563980698122D+03

 The electronic state is 1-A.
 Alpha  occ. eigenvalues --  -19.74203 -10.62424  -1.12448  -0.79427  -0.55802
 Alpha  occ. eigenvalues --   -0.53712  -0.48768  -0.40021  -0.35247
 Alpha virt. eigenvalues --    0.01828   0.07709   0.12518   0.12937   0.14994
 Alpha virt. eigenvalues --    0.17096   0.18434   0.25455   0.29436   0.33614
 Alpha virt. eigenvalues --    0.34431   0.39069   0.39518   0.43635   0.44805

 Mulliken charges:
               1
     1  C    0.093622
     2  O   -0.495397
     3  H    0.050552
     4  H    0.044089
     5  H    0.060414
     6  H    0.246720
 Sum of Mulliken charges =   0.00000

 Dipole moment (field-independent basis, Debye):
    X=              0.9314    Y=              1.6907    Z=              0.1836  Tot=              1.9390
 Quadrupole moment (field-independent basis, Debye-Ang):
   XX=            -12.8210   YY=            -11.7890   ZZ=            -13.8213
   XY=             -2.4480   XZ=             -0.1111   YZ=              0.0746

 Normal termination of Gaussian 09 at Wed Aug 26 16:13:30 2020.
