 Gaussian 09, Revision D.01,
 Gaussian 09:  ES64L-G09RevD.01 24-Apr-2013

 --------------------
 #p B2PLYPD3/Def2QZVP
 --------------------

 --------
 methanol
 --------
 Symbolic Z-matrix:
 Charge =  0 Multiplicity = 1

                         Standard orientation:
 ---------------------------------------------------------------------
 Center     Atomic      Atomic             Coordinates (Angstroms)
 Number     Number       Type             X           Y           Z
 ---------------------------------------------------------------------
      1          6           0        0.662085    0.063666    0.001540
      2          8           0       -0.706341   -0.178415   -0.017898
      3          1           0        0.887041    0.313767    0.883712
      4          1           0        0.947723    0.664212   -0.711980
      5          1           0        1.100524   -0.884056   -0.111928
      6          1           0       -1.257071    0.951399    0.074145
 ---------------------------------------------------------------------

 SCF Done:  E(RB2PLYPD3) =  -115.470562224     A.U. after   11 cycles
 E2(B2PLYPD3) =    -0.1516537100D+00 E(B2PLYPD3) =    -0.11562221593374D+03

 The electronic state is 1-A.
 Alpha  occ. eigenvalues --  -19.73839 -10.61429  -1.13314  -0.79365  -0.56280
 Alpha  occ. eigenvalues --   -0.55178  -0.49161  -0.39211  -0.35019
 Alpha virt. eigenvalues --    0.01520   0.07830   0.12564   0.12991   0.14843
 Alpha virt. eigenvalues --    0.17288   0.18363   0.25044   0.29364   0.33392
 Alpha virt. eigenvalues --    0.35255   0.39261   0.40332   0.44261   0.45357

 Mulliken charges:
               1
     1  C    0.094949
     2  O   -0.490482
     3  H    0.053585
     4  H    0.045321
     5  H    0.052429
     6  H    0.244198
 Sum of Mulliken charges =   0.00000

 Dipole moment (field-independent basis, Debye):
    X=              0.8473    Y=              1.7134    Z=              0.1720  Tot=              1.9191
 Quadrupole moment (field-independent basis, Debye-Ang):
   XX=            -12.7903   YY=            -11.8668   ZZ=            -13.6444
   XY=             -2.5101   XZ=             -0.2172   YZ=             -0.0049

 Normal termination of Gaussian 09 at Wed Aug 26 18:30:26 2020.
