 Gaussian 09, Revision D.01,
 Gaussian 09:  ES64L-G09RevD.01 24-Apr-2013

 --------------------
 #p B2PLYPD3/Def2QZVP
 --------------------

 --------
 methanol
 --------
 Symbolic Z-matrix:
 Charge =  0 Multiplicity = 1

                         Standard orientation:
 ---------------------------------------------------------------------
 Center     Atomic      Atomic             Coordinates (Angstroms)
 Number     Number       Type             X           Y           Z
 ---------------------------------------------------------------------
      1          6           0        0.645752   -0.002764   -0.009427
      2          8           0       -0.749588    0.088970   -0.009128
      3          1           0        1.038095   -0.759864   -0.803735
      4          1           0        1.087072   -0.353175    1.021851
      5          1           0        1.059298    1.018514   -0.183224
      6          1           0       -1.062279   -0.600657    0.094697
 ---------------------------------------------------------------------

 SCF Done:  E(RB2PLYPD3) =  -115.489709360     A.U. after   10 cycles
 E2(B2PLYPD3) =    -0.1446193371D+00 E(B2PLYPD3) =    -0.11563432869676D+03

 The electronic state is 1-A.
 Alpha  occ. eigenvalues --  -19.71073 -10.67831  -1.22707  -0.80119  -0.61469
 Alpha  occ. eigenvalues --   -0.51356  -0.50606  -0.41529  -0.35516
 Alpha virt. eigenvalues --    0.05351   0.08904   0.11903   0.12185   0.14867
 Alpha virt. eigenvalues --    0.17099   0.17919   0.28712   0.32710   0.33871
 Alpha virt. eigenvalues --    0.36624   0.38560   0.39413   0.40219   0.42611

 Mulliken charges:
               1
     1  C    0.053964
     2  O   -0.299031
     3  H    0.040494
     4  H    0.038071
     5  H    0.079462
     6  H    0.087041
 Sum of Mulliken charges =   0.00000

 Dipole moment (field-independent basis, Debye):
    X=              0.8367    Y=             -1.2413    Z=              0.1671  Tot=              1.5063
 Quadrupole moment (field-independent basis, Debye-Ang):
   XX=            -13.2367   YY=            -12.4056   ZZ=            -13.8073
   XY=              1.9915   XZ=             -0.2809   YZ=             -0.1187

 Normal termination of Gaussian 09 at Wed Aug 26 14:53:16 2020.
