 Gaussian 09, Revision D.01,
 Gaussian 09:  ES64L-G09RevD.01 24-Apr-2013

 --------------------
 #p B2PLYPD3/Def2QZVP
 --------------------

 --------
 methanol
 --------
 Symbolic Z-matrix:
 Charge =  0 Multiplicity = 1

                         Standard orientation:
 ---------------------------------------------------------------------
 Center     Atomic      Atomic             Coordinates (Angstroms)
 Number     Number       Type             X           Y           Z
 ---------------------------------------------------------------------
      1          6           0        0.665139    0.018911   -0.022833
      2          8           0       -0.749786   -0.159797    0.014304
      3          1           0        1.092469    0.545754    0.819776
      4          1           0        0.957103    0.509520   -0.783135
      5          1           0        1.079201   -0.906573    0.006864
      6          1           0       -1.121314    1.016206   -0.020935
 ---------------------------------------------------------------------

 SCF Done:  E(RB2PLYPD3) =  -115.485882239     A.U. after   11 cycles
 E2(B2PLYPD3) =    -0.1523589031D+00 E(B2PLYPD3) =    -0.11563824114188D+03

 The electronic state is 1-A.
 Alpha  occ. eigenvalues --  -19.74646 -10.62801  -1.12587  -0.79619  -0.56685
 Alpha  occ. eigenvalues --   -0.51986  -0.48987  -0.41112  -0.35142
 Alpha virt. eigenvalues --    0.01778   0.07640   0.12513   0.12856   0.14936
 Alpha virt. eigenvalues --    0.17621   0.18208   0.25391   0.29594   0.33232
 Alpha virt. eigenvalues --    0.34097   0.38760   0.40002   0.41793   0.44858

 Mulliken charges:
               1
     1  C    0.096091
     2  O   -0.489441
     3  H    0.035045
     4  H    0.046351
     5  H    0.062955
     6  H    0.248999
 Sum of Mulliken charges =   0.00000

 Dipole moment (field-independent basis, Debye):
    X=              1.0834    Y=              1.7097    Z=             -0.1510  Tot=              2.0297
 Quadrupole moment (field-independent basis, Debye-Ang):
   XX=            -13.2620   YY=            -11.5206   ZZ=            -13.9934
   XY=             -2.3081   XZ=              0.0419   YZ=             -0.1542

 Normal termination of Gaussian 09 at Wed Aug 26 15:58:03 2020.
