 Gaussian 09, Revision D.01,
 Gaussian 09:  ES64L-G09RevD.01 24-Apr-2013

 --------------------
 #p B2PLYPD3/Def2QZVP
 --------------------

 --------
 methanol
 --------
 Symbolic Z-matrix:
 Charge =  0 Multiplicity = 1

                         Standard orientation:
 ---------------------------------------------------------------------
 Center     Atomic      Atomic             Coordinates (Angstroms)
 Number     Number       Type             X           Y           Z
 ---------------------------------------------------------------------
      1          6           0       -0.677149    0.024382   -0.012106
      2          8           0        0.753729   -0.165380    0.001211
      3          1           0       -1.079011    0.466092   -0.826102
      4          1           0       -0.987923    0.571164    0.839091
      5          1           0       -1.128016   -0.845562    0.076507
      6          1           0        1.228008    0.985054   -0.026551
 ---------------------------------------------------------------------

 SCF Done:  E(RB2PLYPD3) =  -115.489139353     A.U. after   11 cycles
 E2(B2PLYPD3) =    -0.1525741563D+00 E(B2PLYPD3) =    -0.11564171350901D+03

 The electronic state is 1-A.
 Alpha  occ. eigenvalues --  -19.74576 -10.62983  -1.11632  -0.79778  -0.55049
 Alpha  occ. eigenvalues --   -0.52031  -0.49554  -0.40433  -0.35222
 Alpha virt. eigenvalues --    0.01680   0.07490   0.12705   0.12887   0.14646
 Alpha virt. eigenvalues --    0.17671   0.18496   0.25227   0.29461   0.32914
 Alpha virt. eigenvalues --    0.33941   0.38929   0.40686   0.42120   0.43577

 Mulliken charges:
               1
     1  C    0.093376
     2  O   -0.500806
     3  H    0.047714
     4  H    0.041657
     5  H    0.063645
     6  H    0.254414
 Sum of Mulliken charges =   0.00000

 Dipole moment (field-independent basis, Debye):
    X=             -1.0113    Y=              1.6721    Z=             -0.0580  Tot=              1.9550
 Quadrupole moment (field-independent basis, Debye-Ang):
   XX=            -12.7063   YY=            -11.8471   ZZ=            -13.9202
   XY=              2.5979   XZ=              0.0320   YZ=             -0.0898

 Normal termination of Gaussian 09 at Wed Aug 26 15:38:55 2020.
