 Gaussian 09, Revision D.01,
 Gaussian 09:  ES64L-G09RevD.01 24-Apr-2013

 --------------------
 #p B2PLYPD3/Def2QZVP
 --------------------

 --------
 methanol
 --------
 Symbolic Z-matrix:
 Charge =  0 Multiplicity = 1

                         Standard orientation:
 ---------------------------------------------------------------------
 Center     Atomic      Atomic             Coordinates (Angstroms)
 Number     Number       Type             X           Y           Z
 ---------------------------------------------------------------------
      1          6           0        0.654058    0.030761    0.002441
      2          8           0       -0.722399   -0.202324   -0.014057
      3          1           0        0.987889    0.365424    0.859177
      4          1           0        1.160431    0.642274   -0.689188
      5          1           0        1.058343   -0.755124   -0.098501
      6          1           0       -1.351824    1.181454    0.026323
 ---------------------------------------------------------------------

 SCF Done:  E(RB2PLYPD3) =  -115.386324357     A.U. after   12 cycles
 E2(B2PLYPD3) =    -0.1580379568D+00 E(B2PLYPD3) =    -0.11554436231343D+03

 The electronic state is 1-A.
 Alpha  occ. eigenvalues --  -19.76019 -10.61049  -1.12400  -0.81129  -0.55160
 Alpha  occ. eigenvalues --   -0.52085  -0.50015  -0.38517  -0.35079
 Alpha virt. eigenvalues --   -0.03863   0.07300   0.12783   0.13277   0.14862
 Alpha virt. eigenvalues --    0.17384   0.18766   0.20891   0.29618   0.33398
 Alpha virt. eigenvalues --    0.35829   0.37827   0.39811   0.42960   0.44479

 Mulliken charges:
               1
     1  C    0.068521
     2  O   -0.461611
     3  H    0.045131
     4  H    0.035597
     5  H    0.086364
     6  H    0.225999
 Sum of Mulliken charges =   0.00000

 Dipole moment (field-independent basis, Debye):
    X=              0.9396    Y=              1.6588    Z=              0.1005  Tot=              1.9090
 Quadrupole moment (field-independent basis, Debye-Ang):
   XX=            -12.4341   YY=            -11.5043   ZZ=            -14.1235
   XY=             -2.7057   XZ=             -0.1211   YZ=              0.0768

 Normal termination of Gaussian 09 at Wed Aug 26 18:43:32 2020.
