 Gaussian 09, Revision D.01,
 Gaussian 09:  ES64L-G09RevD.01 24-Apr-2013

 --------------------
 #p B2PLYPD3/Def2QZVP
 --------------------

 --------
 methanol
 --------
 Symbolic Z-matrix:
 Charge =  0 Multiplicity = 1

                         Standard orientation:
 ---------------------------------------------------------------------
 Center     Atomic      Atomic             Coordinates (Angstroms)
 Number     Number       Type             X           Y           Z
 ---------------------------------------------------------------------
      1          6           0        0.663141    0.008111   -0.000333
      2          8           0       -0.769181    0.072434   -0.001551
      3          1           0        1.110862   -0.635238   -0.921718
      4          1           0        1.063306   -0.502998    1.018817
      5          1           0        1.046849    1.045124   -0.073649
      6          1           0       -1.046417   -0.535027   -0.009045
 ---------------------------------------------------------------------

 SCF Done:  E(RB2PLYPD3) =  -115.367571326     A.U. after   11 cycles
 E2(B2PLYPD3) =    -0.1441317737D+00 E(B2PLYPD3) =    -0.11551170309982D+03

 The electronic state is 1-A.
 Alpha  occ. eigenvalues --  -19.69903 -10.69118  -1.25806  -0.81177  -0.61562
 Alpha  occ. eigenvalues --   -0.51012  -0.50182  -0.41928  -0.35997
 Alpha virt. eigenvalues --    0.05266   0.09049   0.11446   0.12049   0.14545
 Alpha virt. eigenvalues --    0.17000   0.17758   0.28438   0.31893   0.32678
 Alpha virt. eigenvalues --    0.35174   0.37352   0.39357   0.40619   0.42565

 Mulliken charges:
               1
     1  C    0.049124
     2  O   -0.225941
     3  H    0.042162
     4  H    0.044663
     5  H    0.091375
     6  H   -0.001384
 Sum of Mulliken charges =   0.00000

 Dipole moment (field-independent basis, Debye):
    X=              1.0277    Y=             -1.1179    Z=             -0.0280  Tot=              1.5187
 Quadrupole moment (field-independent basis, Debye-Ang):
   XX=            -13.2701   YY=            -12.4505   ZZ=            -13.6749
   XY=              1.9112   XZ=             -0.0513   YZ=             -0.0124

 Normal termination of Gaussian 09 at Wed Aug 26 15:25:30 2020.
