 Gaussian 09, Revision D.01,
 Gaussian 09:  ES64L-G09RevD.01 24-Apr-2013

 --------------------
 #p B2PLYPD3/Def2QZVP
 --------------------

 --------
 methanol
 --------
 Symbolic Z-matrix:
 Charge =  0 Multiplicity = 1

                         Standard orientation:
 ---------------------------------------------------------------------
 Center     Atomic      Atomic             Coordinates (Angstroms)
 Number     Number       Type             X           Y           Z
 ---------------------------------------------------------------------
      1          6           0        0.668514   -0.024350    0.002902
      2          8           0       -0.744720    0.109156   -0.010353
      3          1           0        1.023925   -0.651705   -0.856957
      4          1           0        1.056573   -0.424905    0.941150
      5          1           0        1.046367    1.022506   -0.095405
      6          1           0       -1.180186   -0.673046    0.076619
 ---------------------------------------------------------------------

 SCF Done:  E(RB2PLYPD3) =  -115.548206499     A.U. after   10 cycles
 E2(B2PLYPD3) =    -0.1463421085D+00 E(B2PLYPD3) =    -0.11569454860709D+03

 The electronic state is 1-A.
 Alpha  occ. eigenvalues --  -19.71826 -10.66391  -1.17228  -0.79065  -0.59555
 Alpha  occ. eigenvalues --   -0.51678  -0.49624  -0.40583  -0.35502
 Alpha virt. eigenvalues --    0.05255   0.08400   0.12224   0.12341   0.14870
 Alpha virt. eigenvalues --    0.16918   0.18156   0.29074   0.33184   0.33681
 Alpha virt. eigenvalues --    0.36931   0.38446   0.39445   0.40768   0.42879

 Mulliken charges:
               1
     1  C    0.064181
     2  O   -0.436920
     3  H    0.049231
     4  H    0.053398
     5  H    0.072021
     6  H    0.198089
 Sum of Mulliken charges =   0.00000

 Dipole moment (field-independent basis, Debye):
    X=              0.7854    Y=             -1.4173    Z=              0.1878  Tot=              1.6312
 Quadrupole moment (field-independent basis, Debye-Ang):
   XX=            -12.8385   YY=            -12.4160   ZZ=            -13.7308
   XY=              2.1705   XZ=             -0.1628   YZ=             -0.0998

 Normal termination of Gaussian 09 at Wed Aug 26 23:39:38 2020.
