 Gaussian 09, Revision D.01,
 Gaussian 09:  ES64L-G09RevD.01 24-Apr-2013

 --------------------
 #p B2PLYPD3/Def2QZVP
 --------------------

 --------
 methanol
 --------
 Symbolic Z-matrix:
 Charge =  0 Multiplicity = 1

                         Standard orientation:
 ---------------------------------------------------------------------
 Center     Atomic      Atomic             Coordinates (Angstroms)
 Number     Number       Type             X           Y           Z
 ---------------------------------------------------------------------
      1          6           0        0.656613    0.045529    0.010976
      2          8           0       -0.734635   -0.159971   -0.011175
      3          1           0        0.965859    0.419515    0.835001
      4          1           0        0.991713    0.579003   -0.804598
      5          1           0        1.110161   -0.932745   -0.055897
      6          1           0       -1.130329    0.940816    0.049034
 ---------------------------------------------------------------------

 SCF Done:  E(RB2PLYPD3) =  -115.504024102     A.U. after   11 cycles
 E2(B2PLYPD3) =    -0.1506288009D+00 E(B2PLYPD3) =    -0.11565465290262D+03

 The electronic state is 1-A.
 Alpha  occ. eigenvalues --  -19.74030 -10.62819  -1.13728  -0.79230  -0.56427
 Alpha  occ. eigenvalues --   -0.54169  -0.49041  -0.40260  -0.35479
 Alpha virt. eigenvalues --    0.02829   0.07854   0.12559   0.12701   0.14864
 Alpha virt. eigenvalues --    0.17643   0.18365   0.27062   0.29419   0.33572
 Alpha virt. eigenvalues --    0.34779   0.38541   0.40205   0.43380   0.44723

 Mulliken charges:
               1
     1  C    0.091171
     2  O   -0.484989
     3  H    0.048897
     4  H    0.044147
     5  H    0.052046
     6  H    0.248728
 Sum of Mulliken charges =   0.00000

 Dipole moment (field-independent basis, Debye):
    X=              0.9778    Y=              1.7234    Z=              0.1457  Tot=              1.9868
 Quadrupole moment (field-independent basis, Debye-Ang):
   XX=            -13.2009   YY=            -11.8398   ZZ=            -13.7309
   XY=             -2.2935   XZ=             -0.0721   YZ=              0.0872

 Normal termination of Gaussian 09 at Wed Aug 26 11:47:56 2020.
