 Gaussian 09, Revision D.01,
 Gaussian 09:  ES64L-G09RevD.01 24-Apr-2013

 --------------------
 #p B2PLYPD3/Def2QZVP
 --------------------

 --------
 methanol
 --------
 Symbolic Z-matrix:
 Charge =  0 Multiplicity = 1

                         Standard orientation:
 ---------------------------------------------------------------------
 Center     Atomic      Atomic             Coordinates (Angstroms)
 Number     Number       Type             X           Y           Z
 ---------------------------------------------------------------------
      1          6           0        0.665956   -0.014562   -0.000755
      2          8           0       -0.750068    0.093607   -0.011270
      3          1           0        1.035150   -0.693712   -0.819939
      4          1           0        0.988306   -0.428137    0.963282
      5          1           0        1.032781    1.077218   -0.105086
      6          1           0       -1.051427   -0.616851    0.056433
 ---------------------------------------------------------------------

 SCF Done:  E(RB2PLYPD3) =  -115.499735852     A.U. after   10 cycles
 E2(B2PLYPD3) =    -0.1446365826D+00 E(B2PLYPD3) =    -0.11564437243434D+03

 The electronic state is 1-A.
 Alpha  occ. eigenvalues --  -19.70566 -10.67083  -1.21481  -0.79942  -0.61155
 Alpha  occ. eigenvalues --   -0.51888  -0.49575  -0.41763  -0.35821
 Alpha virt. eigenvalues --    0.05349   0.09087   0.11794   0.12183   0.14900
 Alpha virt. eigenvalues --    0.16880   0.17669   0.28964   0.32810   0.33130
 Alpha virt. eigenvalues --    0.37310   0.38738   0.39979   0.40653   0.42836

 Mulliken charges:
               1
     1  C    0.063009
     2  O   -0.326768
     3  H    0.047943
     4  H    0.051670
     5  H    0.073023
     6  H    0.091124
 Sum of Mulliken charges =   0.00000

 Dipole moment (field-independent basis, Debye):
    X=              0.9688    Y=             -1.3645    Z=              0.1611  Tot=              1.6812
 Quadrupole moment (field-independent basis, Debye-Ang):
   XX=            -13.3998   YY=            -12.1906   ZZ=            -13.6607
   XY=              1.8807   XZ=             -0.1810   YZ=             -0.0750

 Normal termination of Gaussian 09 at Wed Aug 26 14:04:33 2020.
