 Gaussian 09, Revision D.01,
 Gaussian 09:  ES64L-G09RevD.01 24-Apr-2013

 --------------------
 #p B2PLYPD3/Def2QZVP
 --------------------

 --------
 methanol
 --------
 Symbolic Z-matrix:
 Charge =  0 Multiplicity = 1

                         Standard orientation:
 ---------------------------------------------------------------------
 Center     Atomic      Atomic             Coordinates (Angstroms)
 Number     Number       Type             X           Y           Z
 ---------------------------------------------------------------------
      1          6           0       -0.668660    0.035840    0.006347
      2          8           0        0.760171   -0.160495   -0.017857
      3          1           0       -1.096402    0.675224   -0.732224
      4          1           0       -1.075344    0.410566    0.794530
      5          1           0       -1.158789   -0.959915   -0.054583
      6          1           0        1.261123    0.943044    0.097049
 ---------------------------------------------------------------------

 SCF Done:  E(RB2PLYPD3) =  -115.491038991     A.U. after   11 cycles
 E2(B2PLYPD3) =    -0.1525307335D+00 E(B2PLYPD3) =    -0.11564356972464D+03

 The electronic state is 1-A.
 Alpha  occ. eigenvalues --  -19.74911 -10.64030  -1.12017  -0.79560  -0.55761
 Alpha  occ. eigenvalues --   -0.51223  -0.48448  -0.40514  -0.35399
 Alpha virt. eigenvalues --    0.02069   0.07197   0.12209   0.13164   0.15072
 Alpha virt. eigenvalues --    0.17477   0.18532   0.25709   0.29474   0.33321
 Alpha virt. eigenvalues --    0.34029   0.37264   0.39110   0.41575   0.43968

 Mulliken charges:
               1
     1  C    0.084648
     2  O   -0.491126
     3  H    0.041967
     4  H    0.053150
     5  H    0.056205
     6  H    0.255156
 Sum of Mulliken charges =   0.00000

 Dipole moment (field-independent basis, Debye):
    X=             -0.8977    Y=              1.7584    Z=              0.2904  Tot=              1.9955
 Quadrupole moment (field-independent basis, Debye-Ang):
   XX=            -12.4796   YY=            -11.8869   ZZ=            -14.2414
   XY=              2.4085   XZ=              0.0983   YZ=              0.1411

 Normal termination of Gaussian 09 at Wed Aug 26 21:48:39 2020.
