 Gaussian 09, Revision D.01,
 Gaussian 09:  ES64L-G09RevD.01 24-Apr-2013

 --------------------
 #p B2PLYPD3/Def2QZVP
 --------------------

 --------
 methanol
 --------
 Symbolic Z-matrix:
 Charge =  0 Multiplicity = 1

                         Standard orientation:
 ---------------------------------------------------------------------
 Center     Atomic      Atomic             Coordinates (Angstroms)
 Number     Number       Type             X           Y           Z
 ---------------------------------------------------------------------
      1          6           0        0.675560    0.006493    0.005843
      2          8           0       -0.757252    0.097395   -0.024035
      3          1           0        1.037466   -0.777418   -0.805457
      4          1           0        0.997580   -0.346680    0.995877
      5          1           0        1.031385    0.975066   -0.173122
      6          1           0       -1.061781   -0.669083    0.139924
 ---------------------------------------------------------------------

 SCF Done:  E(RB2PLYPD3) =  -115.530772314     A.U. after   10 cycles
 E2(B2PLYPD3) =    -0.1457043490D+00 E(B2PLYPD3) =    -0.11567647666264D+03

 The electronic state is 1-A.
 Alpha  occ. eigenvalues --  -19.71294 -10.66623  -1.18816  -0.79616  -0.59714
 Alpha  occ. eigenvalues --   -0.50919  -0.50831  -0.42111  -0.35361
 Alpha virt. eigenvalues --    0.05258   0.08756   0.11868   0.12390   0.14700
 Alpha virt. eigenvalues --    0.17062   0.17716   0.29026   0.32335   0.32862
 Alpha virt. eigenvalues --    0.36685   0.39202   0.39651   0.40890   0.43789

 Mulliken charges:
               1
     1  C    0.069255
     2  O   -0.397763
     3  H    0.037783
     4  H    0.049815
     5  H    0.084316
     6  H    0.156594
 Sum of Mulliken charges =   0.00000

 Dipole moment (field-independent basis, Debye):
    X=              1.0249    Y=             -1.2938    Z=              0.3678  Tot=              1.6910
 Quadrupole moment (field-independent basis, Debye-Ang):
   XX=            -13.4122   YY=            -12.1863   ZZ=            -13.6598
   XY=              2.0888   XZ=             -0.3535   YZ=             -0.2795

 Normal termination of Gaussian 09 at Wed Aug 26 11:23:06 2020.
