 Gaussian 09, Revision D.01,
 Gaussian 09:  ES64L-G09RevD.01 24-Apr-2013

 --------------------
 #p B2PLYPD3/Def2QZVP
 --------------------

 --------
 methanol
 --------
 Symbolic Z-matrix:
 Charge =  0 Multiplicity = 1

                         Standard orientation:
 ---------------------------------------------------------------------
 Center     Atomic      Atomic             Coordinates (Angstroms)
 Number     Number       Type             X           Y           Z
 ---------------------------------------------------------------------
      1          6           0        0.658717    0.011304    0.019262
      2          8           0       -0.749186   -0.070822   -0.051545
      3          1           0        0.992593   -0.062175    1.103033
      4          1           0        1.099748    0.994319   -0.546844
      5          1           0        1.102788   -0.886700   -0.521936
      6          1           0       -1.153944    0.453305    0.262534
 ---------------------------------------------------------------------

 SCF Done:  E(RB2PLYPD3) =  -115.456514108     A.U. after   11 cycles
 E2(B2PLYPD3) =    -0.1444203605D+00 E(B2PLYPD3) =    -0.11560093446851D+03

 The electronic state is 1-A.
 Alpha  occ. eigenvalues --  -19.70242 -10.68556  -1.22716  -0.81122  -0.61217
 Alpha  occ. eigenvalues --   -0.51404  -0.50444  -0.39905  -0.35910
 Alpha virt. eigenvalues --    0.05386   0.08912   0.11693   0.12270   0.14267
 Alpha virt. eigenvalues --    0.17007   0.18157   0.28620   0.32715   0.33077
 Alpha virt. eigenvalues --    0.35842   0.38077   0.39529   0.40385   0.42662

 Mulliken charges:
               1
     1  C    0.050834
     2  O   -0.277729
     3  H    0.056005
     4  H    0.041997
     5  H    0.079625
     6  H    0.049269
 Sum of Mulliken charges =   0.00000

 Dipole moment (field-independent basis, Debye):
    X=              0.7758    Y=              0.9546    Z=              0.6723  Tot=              1.4018
 Quadrupole moment (field-independent basis, Debye-Ang):
   XX=            -12.8023   YY=            -13.0188   ZZ=            -13.3634
   XY=             -1.8031   XZ=             -1.0702   YZ=              0.3230

 Normal termination of Gaussian 09 at Wed Aug 26 15:33:06 2020.
