 Gaussian 09, Revision D.01,
 Gaussian 09:  ES64L-G09RevD.01 24-Apr-2013

 --------------------
 #p B2PLYPD3/Def2QZVP
 --------------------

 --------
 methanol
 --------
 Symbolic Z-matrix:
 Charge =  0 Multiplicity = 1

                         Standard orientation:
 ---------------------------------------------------------------------
 Center     Atomic      Atomic             Coordinates (Angstroms)
 Number     Number       Type             X           Y           Z
 ---------------------------------------------------------------------
      1          6           0        0.633257    0.040080   -0.006494
      2          8           0       -0.721574   -0.189804   -0.008341
      3          1           0        1.010370    0.441355    0.754378
      4          1           0        1.074814    0.596970   -0.674422
      5          1           0        1.058478   -0.921896   -0.013756
      6          1           0       -1.170618    1.161523    0.039496
 ---------------------------------------------------------------------

 SCF Done:  E(RB2PLYPD3) =  -115.421156157     A.U. after   11 cycles
 E2(B2PLYPD3) =    -0.1558295641D+00 E(B2PLYPD3) =    -0.11557698572091D+03

 The electronic state is 1-A.
 Alpha  occ. eigenvalues --  -19.75901 -10.61437  -1.13714  -0.80551  -0.56192
 Alpha  occ. eigenvalues --   -0.52825  -0.49693  -0.38997  -0.35151
 Alpha virt. eigenvalues --   -0.02092   0.07427   0.12236   0.13436   0.15293
 Alpha virt. eigenvalues --    0.17413   0.18457   0.21741   0.29766   0.33913
 Alpha virt. eigenvalues --    0.36134   0.37525   0.39139   0.43697   0.45766

 Mulliken charges:
               1
     1  C    0.106622
     2  O   -0.451460
     3  H    0.039169
     4  H    0.032230
     5  H    0.047068
     6  H    0.226371
 Sum of Mulliken charges =   0.00000

 Dipole moment (field-independent basis, Debye):
    X=              1.0184    Y=              1.8235    Z=              0.1251  Tot=              2.0923
 Quadrupole moment (field-independent basis, Debye-Ang):
   XX=            -13.2069   YY=            -11.2122   ZZ=            -14.2291
   XY=             -2.1309   XZ=             -0.0187   YZ=              0.0322

 Normal termination of Gaussian 09 at Wed Aug 26 23:42:33 2020.
