 Gaussian 09, Revision D.01,
 Gaussian 09:  ES64L-G09RevD.01 24-Apr-2013

 --------------------
 #p B2PLYPD3/Def2QZVP
 --------------------

 --------
 methanol
 --------
 Symbolic Z-matrix:
 Charge =  0 Multiplicity = 1

                         Standard orientation:
 ---------------------------------------------------------------------
 Center     Atomic      Atomic             Coordinates (Angstroms)
 Number     Number       Type             X           Y           Z
 ---------------------------------------------------------------------
      1          6           0       -0.636075   -0.037792    0.005472
      2          8           0        0.726989    0.106412   -0.009156
      3          1           0       -1.019479   -0.442925    0.979722
      4          1           0       -0.933874   -0.684059   -0.887767
      5          1           0       -1.238228    1.009097   -0.125626
      6          1           0        1.192118   -0.506660    0.074089
 ---------------------------------------------------------------------

 SCF Done:  E(RB2PLYPD3) =  -115.488775482     A.U. after   11 cycles
 E2(B2PLYPD3) =    -0.1444455937D+00 E(B2PLYPD3) =    -0.11563322107620D+03

 The electronic state is 1-A.
 Alpha  occ. eigenvalues --  -19.70698 -10.68010  -1.22264  -0.80893  -0.61885
 Alpha  occ. eigenvalues --   -0.52650  -0.50367  -0.38582  -0.35663
 Alpha virt. eigenvalues --    0.05380   0.08705   0.12096   0.12313   0.14284
 Alpha virt. eigenvalues --    0.17524   0.17995   0.28651   0.32688   0.34178
 Alpha virt. eigenvalues --    0.35253   0.38830   0.40157   0.40511   0.43276

 Mulliken charges:
               1
     1  C    0.050746
     2  O   -0.306195
     3  H    0.050444
     4  H    0.046630
     5  H    0.062613
     6  H    0.095762
 Sum of Mulliken charges =   0.00000

 Dipole moment (field-independent basis, Debye):
    X=             -0.5330    Y=             -1.2759    Z=              0.1945  Tot=              1.3964
 Quadrupole moment (field-independent basis, Debye-Ang):
   XX=            -12.5363   YY=            -13.0417   ZZ=            -13.6204
   XY=             -2.1377   XZ=              0.1693   YZ=             -0.0748

 Normal termination of Gaussian 09 at Wed Aug 26 22:16:40 2020.
