 Gaussian 09, Revision D.01,
 Gaussian 09:  ES64L-G09RevD.01 24-Apr-2013

 --------------------
 #p B2PLYPD3/Def2QZVP
 --------------------

 --------
 methanol
 --------
 Symbolic Z-matrix:
 Charge =  0 Multiplicity = 1

                         Standard orientation:
 ---------------------------------------------------------------------
 Center     Atomic      Atomic             Coordinates (Angstroms)
 Number     Number       Type             X           Y           Z
 ---------------------------------------------------------------------
      1          6           0        0.665336   -0.031102    0.009662
      2          8           0       -0.740596    0.139677   -0.008644
      3          1           0        0.984840   -0.606783   -0.837196
      4          1           0        1.003614   -0.475430    0.848532
      5          1           0        1.101164    0.975014   -0.051841
      6          1           0       -1.156860   -0.823606    0.051687
 ---------------------------------------------------------------------

 SCF Done:  E(RB2PLYPD3) =  -115.539631508     A.U. after   11 cycles
 E2(B2PLYPD3) =    -0.1485503605D+00 E(B2PLYPD3) =    -0.11568818186879D+03

 The electronic state is 1-A.
 Alpha  occ. eigenvalues --  -19.73123 -10.64342  -1.14626  -0.78746  -0.57857
 Alpha  occ. eigenvalues --   -0.52648  -0.49274  -0.40880  -0.35267
 Alpha virt. eigenvalues --    0.04286   0.08043   0.12400   0.12631   0.14966
 Alpha virt. eigenvalues --    0.17396   0.18051   0.29180   0.31671   0.33344
 Alpha virt. eigenvalues --    0.34248   0.38614   0.39807   0.42242   0.44829

 Mulliken charges:
               1
     1  C    0.081264
     2  O   -0.481369
     3  H    0.044188
     4  H    0.049487
     5  H    0.063828
     6  H    0.242603
 Sum of Mulliken charges =   0.00000

 Dipole moment (field-independent basis, Debye):
    X=              0.8880    Y=             -1.6295    Z=              0.1530  Tot=              1.8621
 Quadrupole moment (field-independent basis, Debye-Ang):
   XX=            -13.0184   YY=            -12.0329   ZZ=            -13.8100
   XY=              2.3036   XZ=             -0.0504   YZ=             -0.1091

 Normal termination of Gaussian 09 at Wed Aug 26 10:54:35 2020.
