 Gaussian 09, Revision D.01,
 Gaussian 09:  ES64L-G09RevD.01 24-Apr-2013

 --------------------
 #p B2PLYPD3/Def2QZVP
 --------------------

 --------
 methanol
 --------
 Symbolic Z-matrix:
 Charge =  0 Multiplicity = 1

                         Standard orientation:
 ---------------------------------------------------------------------
 Center     Atomic      Atomic             Coordinates (Angstroms)
 Number     Number       Type             X           Y           Z
 ---------------------------------------------------------------------
      1          6           0       -0.649152   -0.061701    0.018184
      2          8           0        0.729310    0.096863   -0.025457
      3          1           0       -0.860243   -0.311194    1.002760
      4          1           0       -0.968247   -0.735829   -0.807995
      5          1           0       -1.127664    1.137281   -0.187249
      6          1           0        1.016585   -0.494957    0.087037
 ---------------------------------------------------------------------

 SCF Done:  E(RB2PLYPD3) =  -115.354803538     A.U. after   11 cycles
 E2(B2PLYPD3) =    -0.1433603254D+00 E(B2PLYPD3) =    -0.11549816386297D+03

 The electronic state is 1-A.
 Alpha  occ. eigenvalues --  -19.69173 -10.67653  -1.26955  -0.81745  -0.62489
 Alpha  occ. eigenvalues --   -0.55022  -0.49150  -0.39531  -0.36745
 Alpha virt. eigenvalues --    0.05089   0.09657   0.11099   0.11945   0.14247
 Alpha virt. eigenvalues --    0.17087   0.17761   0.28283   0.32053   0.33012
 Alpha virt. eigenvalues --    0.34228   0.39269   0.41066   0.42380   0.44193

 Mulliken charges:
               1
     1  C    0.051080
     2  O   -0.213752
     3  H    0.066108
     4  H    0.059976
     5  H    0.044210
     6  H   -0.007621
 Sum of Mulliken charges =   0.00000

 Dipole moment (field-independent basis, Debye):
    X=             -0.8362    Y=             -1.3929    Z=              0.3203  Tot=              1.6559
 Quadrupole moment (field-independent basis, Debye-Ang):
   XX=            -13.5659   YY=            -12.5902   ZZ=            -13.2155
   XY=             -1.6658   XZ=              0.3576   YZ=             -0.0434

 Normal termination of Gaussian 09 at Wed Aug 26 21:46:24 2020.
