 Gaussian 09, Revision D.01,
 Gaussian 09:  ES64L-G09RevD.01 24-Apr-2013

 --------------------
 #p B2PLYPD3/Def2QZVP
 --------------------

 --------
 methanol
 --------
 Symbolic Z-matrix:
 Charge =  0 Multiplicity = 1

                         Standard orientation:
 ---------------------------------------------------------------------
 Center     Atomic      Atomic             Coordinates (Angstroms)
 Number     Number       Type             X           Y           Z
 ---------------------------------------------------------------------
      1          6           0        0.686345    0.010250   -0.005924
      2          8           0       -0.748809   -0.162360    0.005775
      3          1           0        1.060020    0.517941    0.842833
      4          1           0        0.978788    0.559352   -0.816293
      5          1           0        1.060789   -0.836927   -0.035447
      6          1           0       -1.227197    0.997017   -0.001749
 ---------------------------------------------------------------------

 SCF Done:  E(RB2PLYPD3) =  -115.476411259     A.U. after   11 cycles
 E2(B2PLYPD3) =    -0.1526130435D+00 E(B2PLYPD3) =    -0.11562902430202D+03

 The electronic state is 1-A.
 Alpha  occ. eigenvalues --  -19.74326 -10.62485  -1.11440  -0.80074  -0.56061
 Alpha  occ. eigenvalues --   -0.51676  -0.49543  -0.40771  -0.34910
 Alpha virt. eigenvalues --    0.01554   0.07610   0.12761   0.12857   0.14705
 Alpha virt. eigenvalues --    0.17445   0.18169   0.25222   0.29535   0.33102
 Alpha virt. eigenvalues --    0.33544   0.38585   0.41236   0.41811   0.43920

 Mulliken charges:
               1
     1  C    0.088572
     2  O   -0.506974
     3  H    0.043538
     4  H    0.043569
     5  H    0.080005
     6  H    0.251289
 Sum of Mulliken charges =   0.00000

 Dipole moment (field-independent basis, Debye):
    X=              1.0346    Y=              1.6615    Z=             -0.0503  Tot=              1.9579
 Quadrupole moment (field-independent basis, Debye-Ang):
   XX=            -12.8182   YY=            -11.6290   ZZ=            -13.9319
   XY=             -2.5717   XZ=              0.0269   YZ=             -0.0244

 Normal termination of Gaussian 09 at Wed Aug 26 12:52:09 2020.
