 Gaussian 09, Revision D.01,
 Gaussian 09:  ES64L-G09RevD.01 24-Apr-2013

 --------------------
 #p B2PLYPD3/Def2QZVP
 --------------------

 --------
 methanol
 --------
 Symbolic Z-matrix:
 Charge =  0 Multiplicity = 1

                         Standard orientation:
 ---------------------------------------------------------------------
 Center     Atomic      Atomic             Coordinates (Angstroms)
 Number     Number       Type             X           Y           Z
 ---------------------------------------------------------------------
      1          6           0       -0.653961   -0.015092   -0.005142
      2          8           0        0.743566    0.132133    0.000131
      3          1           0       -1.060349   -0.519420    0.872713
      4          1           0       -1.014000   -0.581463   -0.844339
      5          1           0       -1.093550    0.956411   -0.020845
      6          1           0        1.143138   -0.822037    0.022281
 ---------------------------------------------------------------------

 SCF Done:  E(RB2PLYPD3) =  -115.545986352     A.U. after   10 cycles
 E2(B2PLYPD3) =    -0.1483607039D+00 E(B2PLYPD3) =    -0.11569434705618D+03

 The electronic state is 1-A.
 Alpha  occ. eigenvalues --  -19.73354 -10.64924  -1.15403  -0.78421  -0.58254
 Alpha  occ. eigenvalues --   -0.51538  -0.50107  -0.41134  -0.35079
 Alpha virt. eigenvalues --    0.04366   0.07986   0.12515   0.12607   0.15062
 Alpha virt. eigenvalues --    0.17479   0.18134   0.29181   0.32077   0.33328
 Alpha virt. eigenvalues --    0.34574   0.39072   0.39838   0.41073   0.44002

 Mulliken charges:
               1
     1  C    0.073875
     2  O   -0.468783
     3  H    0.039886
     4  H    0.042430
     5  H    0.068786
     6  H    0.243806
 Sum of Mulliken charges =   0.00000

 Dipole moment (field-independent basis, Debye):
    X=             -0.8358    Y=             -1.5696    Z=              0.0221  Tot=              1.7784
 Quadrupole moment (field-independent basis, Debye-Ang):
   XX=            -13.0033   YY=            -12.0591   ZZ=            -13.9589
   XY=             -2.3254   XZ=              0.0305   YZ=              0.0012

 Normal termination of Gaussian 09 at Thu Aug 27 00:07:50 2020.
