 Gaussian 09, Revision D.01,
 Gaussian 09:  ES64L-G09RevD.01 24-Apr-2013

 --------------------
 #p B2PLYPD3/Def2QZVP
 --------------------

 --------
 methanol
 --------
 Symbolic Z-matrix:
 Charge =  0 Multiplicity = 1

                         Standard orientation:
 ---------------------------------------------------------------------
 Center     Atomic      Atomic             Coordinates (Angstroms)
 Number     Number       Type             X           Y           Z
 ---------------------------------------------------------------------
      1          6           0       -0.652312   -0.017237    0.014084
      2          8           0        0.744509    0.107415   -0.016647
      3          1           0       -0.971876   -0.467517    0.945013
      4          1           0       -1.062657   -0.622105   -0.891151
      5          1           0       -1.096106    1.000632   -0.060135
      6          1           0        1.088437   -0.666907    0.054948
 ---------------------------------------------------------------------

 SCF Done:  E(RB2PLYPD3) =  -115.536896301     A.U. after   10 cycles
 E2(B2PLYPD3) =    -0.1455064085D+00 E(B2PLYPD3) =    -0.11568240270970D+03

 The electronic state is 1-A.
 Alpha  occ. eigenvalues --  -19.71668 -10.66592  -1.19580  -0.79269  -0.60388
 Alpha  occ. eigenvalues --   -0.51939  -0.50388  -0.41054  -0.35559
 Alpha virt. eigenvalues --    0.05310   0.08688   0.12102   0.12371   0.14697
 Alpha virt. eigenvalues --    0.17364   0.18014   0.28880   0.32953   0.33856
 Alpha virt. eigenvalues --    0.36889   0.38948   0.39496   0.40745   0.43748

 Mulliken charges:
               1
     1  C    0.062413
     2  O   -0.390630
     3  H    0.051718
     4  H    0.039022
     5  H    0.070817
     6  H    0.166660
 Sum of Mulliken charges =   0.00000

 Dipole moment (field-independent basis, Debye):
    X=             -0.8463    Y=             -1.3701    Z=              0.2111  Tot=              1.6242
 Quadrupole moment (field-independent basis, Debye-Ang):
   XX=            -13.1820   YY=            -12.4216   ZZ=            -13.6705
   XY=             -2.1478   XZ=              0.1671   YZ=             -0.1519

 Normal termination of Gaussian 09 at Thu Aug 27 00:12:27 2020.
