 Gaussian 09, Revision D.01,
 Gaussian 09:  ES64L-G09RevD.01 24-Apr-2013

 --------------------
 #p B2PLYPD3/Def2QZVP
 --------------------

 --------
 methanol
 --------
 Symbolic Z-matrix:
 Charge =  0 Multiplicity = 1

                         Standard orientation:
 ---------------------------------------------------------------------
 Center     Atomic      Atomic             Coordinates (Angstroms)
 Number     Number       Type             X           Y           Z
 ---------------------------------------------------------------------
      1          6           0        0.661660   -0.010358    0.022277
      2          8           0       -0.766812    0.063262   -0.028581
      3          1           0        1.203284   -0.939546   -0.664015
      4          1           0        1.020092   -0.132428    1.053944
      5          1           0        1.088781    1.080113   -0.392765
      6          1           0       -1.147619   -0.452090    0.097816
 ---------------------------------------------------------------------

 SCF Done:  E(RB2PLYPD3) =  -115.323665311     A.U. after   11 cycles
 E2(B2PLYPD3) =    -0.1445383740D+00 E(B2PLYPD3) =    -0.11546820368487D+03

 The electronic state is 1-A.
 Alpha  occ. eigenvalues --  -19.69671 -10.70232  -1.25880  -0.82070  -0.62276
 Alpha  occ. eigenvalues --   -0.50633  -0.49314  -0.39860  -0.36381
 Alpha virt. eigenvalues --    0.05019   0.08893   0.11007   0.11948   0.14624
 Alpha virt. eigenvalues --    0.16723   0.17980   0.28699   0.31335   0.32304
 Alpha virt. eigenvalues --    0.34283   0.35331   0.40363   0.40742   0.41573

 Mulliken charges:
               1
     1  C    0.043794
     2  O   -0.205411
     3  H    0.037433
     4  H    0.071642
     5  H    0.075592
     6  H   -0.023051
 Sum of Mulliken charges =   0.00000

 Dipole moment (field-independent basis, Debye):
    X=              0.8502    Y=             -1.0542    Z=              0.4444  Tot=              1.4253
 Quadrupole moment (field-independent basis, Debye-Ang):
   XX=            -12.7672   YY=            -12.8046   ZZ=            -13.6746
   XY=              1.7563   XZ=             -0.3621   YZ=             -0.2357

 Normal termination of Gaussian 09 at Wed Aug 26 21:09:10 2020.
