 Gaussian 09, Revision D.01,
 Gaussian 09:  ES64L-G09RevD.01 24-Apr-2013

 --------------------
 #p B2PLYPD3/Def2QZVP
 --------------------

 --------
 methanol
 --------
 Symbolic Z-matrix:
 Charge =  0 Multiplicity = 1

                         Standard orientation:
 ---------------------------------------------------------------------
 Center     Atomic      Atomic             Coordinates (Angstroms)
 Number     Number       Type             X           Y           Z
 ---------------------------------------------------------------------
      1          6           0       -0.676208    0.004135    0.002690
      2          8           0        0.748540   -0.069160   -0.038844
      3          1           0       -1.072819    1.011430   -0.537688
      4          1           0       -1.016732   -0.049313    1.093059
      5          1           0       -0.994509   -0.915417   -0.502295
      6          1           0        1.152990    0.481772    0.241541
 ---------------------------------------------------------------------

 SCF Done:  E(RB2PLYPD3) =  -115.462994331     A.U. after   11 cycles
 E2(B2PLYPD3) =    -0.1444298346D+00 E(B2PLYPD3) =    -0.11560742416512D+03

 The electronic state is 1-A.
 Alpha  occ. eigenvalues --  -19.69839 -10.68199  -1.21800  -0.81237  -0.60557
 Alpha  occ. eigenvalues --   -0.50903  -0.50761  -0.40496  -0.35641
 Alpha virt. eigenvalues --    0.05391   0.09012   0.11633   0.12293   0.14411
 Alpha virt. eigenvalues --    0.16557   0.17941   0.28895   0.32383   0.32696
 Alpha virt. eigenvalues --    0.36125   0.38693   0.39838   0.40538   0.42549

 Mulliken charges:
               1
     1  C    0.055135
     2  O   -0.293326
     3  H    0.043694
     4  H    0.053994
     5  H    0.089240
     6  H    0.051264
 Sum of Mulliken charges =   0.00000

 Dipole moment (field-independent basis, Debye):
    X=             -0.8362    Y=              1.0104    Z=              0.5787  Tot=              1.4335
 Quadrupole moment (field-independent basis, Debye-Ang):
   XX=            -12.9654   YY=            -12.6678   ZZ=            -13.4412
   XY=              1.8043   XZ=              0.8919   YZ=              0.3573

 Normal termination of Gaussian 09 at Wed Aug 26 16:21:37 2020.
