 Gaussian 09, Revision D.01,
 Gaussian 09:  ES64L-G09RevD.01 24-Apr-2013

 --------------------
 #p B2PLYPD3/Def2QZVP
 --------------------

 --------
 methanol
 --------
 Symbolic Z-matrix:
 Charge =  0 Multiplicity = 1

                         Standard orientation:
 ---------------------------------------------------------------------
 Center     Atomic      Atomic             Coordinates (Angstroms)
 Number     Number       Type             X           Y           Z
 ---------------------------------------------------------------------
      1          6           0       -0.667002   -0.017581    0.014014
      2          8           0        0.761758    0.096919   -0.016406
      3          1           0       -1.035438   -0.475533    0.910479
      4          1           0       -1.008663   -0.672260   -0.886929
      5          1           0       -1.121371    1.068198   -0.081489
      6          1           0        1.073421   -0.590273    0.105103
 ---------------------------------------------------------------------

 SCF Done:  E(RB2PLYPD3) =  -115.488078998     A.U. after   10 cycles
 E2(B2PLYPD3) =    -0.1448295971D+00 E(B2PLYPD3) =    -0.11563290859530D+03

 The electronic state is 1-A.
 Alpha  occ. eigenvalues --  -19.70688 -10.67688  -1.21573  -0.79935  -0.61315
 Alpha  occ. eigenvalues --   -0.51419  -0.49475  -0.41628  -0.35941
 Alpha virt. eigenvalues --    0.05314   0.08929   0.11803   0.12055   0.14750
 Alpha virt. eigenvalues --    0.17246   0.17672   0.28930   0.32048   0.33285
 Alpha virt. eigenvalues --    0.36314   0.37869   0.39929   0.40796   0.42679

 Mulliken charges:
               1
     1  C    0.062228
     2  O   -0.319194
     3  H    0.057741
     4  H    0.045435
     5  H    0.071251
     6  H    0.082539
 Sum of Mulliken charges =   0.00000

 Dipole moment (field-independent basis, Debye):
    X=             -1.0020    Y=             -1.3407    Z=              0.3260  Tot=              1.7052
 Quadrupole moment (field-independent basis, Debye-Ang):
   XX=            -13.2000   YY=            -12.3912   ZZ=            -13.6689
   XY=             -1.9610   XZ=              0.1768   YZ=             -0.2194

 Normal termination of Gaussian 09 at Wed Aug 26 16:21:21 2020.
