 Gaussian 09, Revision D.01,
 Gaussian 09:  ES64L-G09RevD.01 24-Apr-2013

 --------------------
 #p B2PLYPD3/Def2QZVP
 --------------------

 --------
 methanol
 --------
 Symbolic Z-matrix:
 Charge =  0 Multiplicity = 1

                         Standard orientation:
 ---------------------------------------------------------------------
 Center     Atomic      Atomic             Coordinates (Angstroms)
 Number     Number       Type             X           Y           Z
 ---------------------------------------------------------------------
      1          6           0       -0.668968    0.024408    0.001668
      2          8           0        0.745505   -0.138913   -0.001970
      3          1           0       -1.028682    0.512537   -0.860823
      4          1           0       -0.947518    0.553070    0.864042
      5          1           0       -1.095548   -0.943019    0.023100
      6          1           0        1.121511    0.842270   -0.020565
 ---------------------------------------------------------------------

 SCF Done:  E(RB2PLYPD3) =  -115.541773620     A.U. after   11 cycles
 E2(B2PLYPD3) =    -0.1486415250D+00 E(B2PLYPD3) =    -0.11569041514541D+03

 The electronic state is 1-A.
 Alpha  occ. eigenvalues --  -19.73102 -10.64219  -1.14463  -0.78803  -0.57441
 Alpha  occ. eigenvalues --   -0.52695  -0.49554  -0.41174  -0.35258
 Alpha virt. eigenvalues --    0.04288   0.08100   0.12491   0.12575   0.14773
 Alpha virt. eigenvalues --    0.17502   0.18047   0.29147   0.31546   0.33232
 Alpha virt. eigenvalues --    0.33992   0.39401   0.40232   0.42045   0.44132

 Mulliken charges:
               1
     1  C    0.081153
     2  O   -0.483116
     3  H    0.045971
     4  H    0.047000
     5  H    0.066787
     6  H    0.242205
 Sum of Mulliken charges =   0.00000

 Dipole moment (field-independent basis, Debye):
    X=             -0.9802    Y=              1.6029    Z=             -0.0238  Tot=              1.8790
 Quadrupole moment (field-independent basis, Debye-Ang):
   XX=            -13.1749   YY=            -11.9821   ZZ=            -13.7510
   XY=              2.3232   XZ=              0.0261   YZ=             -0.0169

 Normal termination of Gaussian 09 at Thu Aug 27 00:07:44 2020.
