 Gaussian 09, Revision D.01,
 Gaussian 09:  ES64L-G09RevD.01 24-Apr-2013

 --------------------
 #p B2PLYPD3/Def2QZVP
 --------------------

 --------
 methanol
 --------
 Symbolic Z-matrix:
 Charge =  0 Multiplicity = 1

                         Standard orientation:
 ---------------------------------------------------------------------
 Center     Atomic      Atomic             Coordinates (Angstroms)
 Number     Number       Type             X           Y           Z
 ---------------------------------------------------------------------
      1          6           0        0.647082   -0.022074    0.009334
      2          8           0       -0.732285    0.108540   -0.011893
      3          1           0        0.988892   -0.744180   -0.799643
      4          1           0        1.059606   -0.368115    0.909878
      5          1           0        1.019682    1.069436   -0.168995
      6          1           0       -1.092392   -0.693014    0.097900
 ---------------------------------------------------------------------

 SCF Done:  E(RB2PLYPD3) =  -115.540153843     A.U. after   11 cycles
 E2(B2PLYPD3) =    -0.1459599137D+00 E(B2PLYPD3) =    -0.11568611375647D+03

 The electronic state is 1-A.
 Alpha  occ. eigenvalues --  -19.72013 -10.66266  -1.19183  -0.78844  -0.60954
 Alpha  occ. eigenvalues --   -0.52196  -0.49516  -0.40892  -0.35373
 Alpha virt. eigenvalues --    0.05098   0.08685   0.11805   0.12468   0.15237
 Alpha virt. eigenvalues --    0.16942   0.17948   0.29058   0.32923   0.34598
 Alpha virt. eigenvalues --    0.36938   0.37469   0.39858   0.41577   0.42912

 Mulliken charges:
               1
     1  C    0.061389
     2  O   -0.402704
     3  H    0.037365
     4  H    0.053182
     5  H    0.062259
     6  H    0.188509
 Sum of Mulliken charges =   0.00000

 Dipole moment (field-independent basis, Debye):
    X=              0.7353    Y=             -1.4706    Z=              0.2894  Tot=              1.6694
 Quadrupole moment (field-independent basis, Debye-Ang):
   XX=            -13.2880   YY=            -12.2034   ZZ=            -13.8270
   XY=              1.9791   XZ=             -0.0855   YZ=             -0.1817

 Normal termination of Gaussian 09 at Wed Aug 26 23:35:01 2020.
