 Gaussian 09, Revision D.01,
 Gaussian 09:  ES64L-G09RevD.01 24-Apr-2013

 --------------------
 #p B2PLYPD3/Def2QZVP
 --------------------

 --------
 methanol
 --------
 Symbolic Z-matrix:
 Charge =  0 Multiplicity = 1

                         Standard orientation:
 ---------------------------------------------------------------------
 Center     Atomic      Atomic             Coordinates (Angstroms)
 Number     Number       Type             X           Y           Z
 ---------------------------------------------------------------------
      1          6           0        0.674986   -0.021621    0.000088
      2          8           0       -0.742292    0.092357   -0.001826
      3          1           0        0.965762   -0.626665   -0.932557
      4          1           0        1.112068   -0.440741    0.976392
      5          1           0        1.006061    1.035282   -0.105364
      6          1           0       -1.195470   -0.577011    0.075604
 ---------------------------------------------------------------------

 SCF Done:  E(RB2PLYPD3) =  -115.517527178     A.U. after   10 cycles
 E2(B2PLYPD3) =    -0.1452693625D+00 E(B2PLYPD3) =    -0.11566279654005D+03

 The electronic state is 1-A.
 Alpha  occ. eigenvalues --  -19.70632 -10.67549  -1.19275  -0.80135  -0.59982
 Alpha  occ. eigenvalues --   -0.51554  -0.49971  -0.39997  -0.35556
 Alpha virt. eigenvalues --    0.05431   0.08699   0.11961   0.12261   0.14470
 Alpha virt. eigenvalues --    0.16627   0.18189   0.28974   0.32447   0.33545
 Alpha virt. eigenvalues --    0.36905   0.39140   0.39710   0.39864   0.42578

 Mulliken charges:
               1
     1  C    0.055278
     2  O   -0.372466
     3  H    0.052492
     4  H    0.053701
     5  H    0.079816
     6  H    0.131179
 Sum of Mulliken charges =   0.00000

 Dipole moment (field-independent basis, Debye):
    X=              0.7437    Y=             -1.2524    Z=              0.1433  Tot=              1.4636
 Quadrupole moment (field-independent basis, Debye-Ang):
   XX=            -12.7881   YY=            -12.6503   ZZ=            -13.5618
   XY=              2.1006   XZ=             -0.0908   YZ=             -0.0974

 Normal termination of Gaussian 09 at Wed Aug 26 13:58:52 2020.
