 Gaussian 09, Revision D.01,
 Gaussian 09:  ES64L-G09RevD.01 24-Apr-2013

 --------------------
 #p B2PLYPD3/Def2QZVP
 --------------------

 --------
 methanol
 --------
 Symbolic Z-matrix:
 Charge =  0 Multiplicity = 1

                         Standard orientation:
 ---------------------------------------------------------------------
 Center     Atomic      Atomic             Coordinates (Angstroms)
 Number     Number       Type             X           Y           Z
 ---------------------------------------------------------------------
      1          6           0       -0.680367   -0.016995    0.003940
      2          8           0        0.753937    0.113093   -0.001964
      3          1           0       -1.026815   -0.503851    0.915616
      4          1           0       -0.995964   -0.613115   -0.881033
      5          1           0       -1.079250    1.004345   -0.062556
      6          1           0        1.152734   -0.690153    0.020044
 ---------------------------------------------------------------------

 SCF Done:  E(RB2PLYPD3) =  -115.548669591     A.U. after   10 cycles
 E2(B2PLYPD3) =    -0.1464146680D+00 E(B2PLYPD3) =    -0.11569508425863D+03

 The electronic state is 1-A.
 Alpha  occ. eigenvalues --  -19.71652 -10.66264  -1.16718  -0.79165  -0.59069
 Alpha  occ. eigenvalues --   -0.51575  -0.49817  -0.41106  -0.35450
 Alpha virt. eigenvalues --    0.05238   0.08452   0.12243   0.12301   0.14700
 Alpha virt. eigenvalues --    0.17116   0.17837   0.29158   0.32516   0.33269
 Alpha virt. eigenvalues --    0.36894   0.39000   0.39605   0.40546   0.43367

 Mulliken charges:
               1
     1  C    0.073006
     2  O   -0.446162
     3  H    0.053313
     4  H    0.048141
     5  H    0.076575
     6  H    0.195127
 Sum of Mulliken charges =   0.00000

 Dipole moment (field-independent basis, Debye):
    X=             -0.9354    Y=             -1.4420    Z=              0.0546  Tot=              1.7196
 Quadrupole moment (field-independent basis, Debye-Ang):
   XX=            -12.9850   YY=            -12.2731   ZZ=            -13.7227
   XY=             -2.2260   XZ=              0.0157   YZ=             -0.0545

 Normal termination of Gaussian 09 at Thu Aug 27 00:02:44 2020.
