 Gaussian 09, Revision D.01,
 Gaussian 09:  ES64L-G09RevD.01 24-Apr-2013

 --------------------
 #p B2PLYPD3/Def2QZVP
 --------------------

 --------
 methanol
 --------
 Symbolic Z-matrix:
 Charge =  0 Multiplicity = 1

                         Standard orientation:
 ---------------------------------------------------------------------
 Center     Atomic      Atomic             Coordinates (Angstroms)
 Number     Number       Type             X           Y           Z
 ---------------------------------------------------------------------
      1          6           0       -0.676659   -0.033672    0.014887
      2          8           0        0.760886    0.094421   -0.016899
      3          1           0       -1.002583   -0.387867    0.986532
      4          1           0       -1.057978   -0.688116   -0.860186
      5          1           0       -1.122496    1.067613   -0.147185
      6          1           0        1.155924   -0.544970    0.066711
 ---------------------------------------------------------------------

 SCF Done:  E(RB2PLYPD3) =  -115.479248938     A.U. after   11 cycles
 E2(B2PLYPD3) =    -0.1448491000D+00 E(B2PLYPD3) =    -0.11562409803840D+03

 The electronic state is 1-A.
 Alpha  occ. eigenvalues --  -19.70252 -10.68151  -1.20998  -0.80375  -0.60857
 Alpha  occ. eigenvalues --   -0.51925  -0.49013  -0.40196  -0.36269
 Alpha virt. eigenvalues --    0.05375   0.08844   0.11773   0.12037   0.14385
 Alpha virt. eigenvalues --    0.17006   0.18039   0.28831   0.31861   0.33278
 Alpha virt. eigenvalues --    0.35587   0.38155   0.39818   0.40800   0.42483

 Mulliken charges:
               1
     1  C    0.057970
     2  O   -0.319563
     3  H    0.066317
     4  H    0.054803
     5  H    0.069457
     6  H    0.071016
 Sum of Mulliken charges =   0.00000

 Dipole moment (field-independent basis, Debye):
    X=             -0.9297    Y=             -1.3092    Z=              0.2341  Tot=              1.6227
 Quadrupole moment (field-independent basis, Debye-Ang):
   XX=            -12.8295   YY=            -12.6936   ZZ=            -13.5167
   XY=             -1.9961   XZ=              0.2344   YZ=             -0.1185

 Normal termination of Gaussian 09 at Wed Aug 26 13:49:28 2020.
