 Gaussian 09, Revision D.01,
 Gaussian 09:  ES64L-G09RevD.01 24-Apr-2013

 --------------------
 #p B2PLYPD3/Def2QZVP
 --------------------

 --------
 methanol
 --------
 Symbolic Z-matrix:
 Charge =  0 Multiplicity = 1

                         Standard orientation:
 ---------------------------------------------------------------------
 Center     Atomic      Atomic             Coordinates (Angstroms)
 Number     Number       Type             X           Y           Z
 ---------------------------------------------------------------------
      1          6           0        0.678729    0.047837    0.034978
      2          8           0       -0.719656   -0.204000   -0.012274
      3          1           0        0.969339    0.363055    0.724137
      4          1           0        1.009462    0.650539   -0.712027
      5          1           0        0.997369   -0.852018   -0.155602
      6          1           0       -1.291301    1.183401    0.031818
 ---------------------------------------------------------------------

 SCF Done:  E(RB2PLYPD3) =  -115.343150049     A.U. after   12 cycles
 E2(B2PLYPD3) =    -0.1577551169D+00 E(B2PLYPD3) =    -0.11550090516643D+03

 The electronic state is 1-A.
 Alpha  occ. eigenvalues --  -19.75596 -10.60069  -1.11663  -0.82215  -0.57895
 Alpha  occ. eigenvalues --   -0.53590  -0.48063  -0.38550  -0.35590
 Alpha virt. eigenvalues --   -0.03047   0.07512   0.12381   0.13209   0.14949
 Alpha virt. eigenvalues --    0.16986   0.18333   0.21251   0.29496   0.33578
 Alpha virt. eigenvalues --    0.34437   0.38165   0.38777   0.43710   0.47055

 Mulliken charges:
               1
     1  C    0.008801
     2  O   -0.468593
     3  H    0.141133
     4  H    0.042559
     5  H    0.067928
     6  H    0.208171
 Sum of Mulliken charges =   0.00000

 Dipole moment (field-independent basis, Debye):
    X=              1.1615    Y=              1.7101    Z=              0.1259  Tot=              2.0710
 Quadrupole moment (field-independent basis, Debye-Ang):
   XX=            -12.9343   YY=            -11.2442   ZZ=            -13.8916
   XY=             -2.3431   XZ=              0.0190   YZ=              0.1630

 Normal termination of Gaussian 09 at Wed Aug 26 19:13:10 2020.
