 Gaussian 09, Revision D.01,
 Gaussian 09:  ES64L-G09RevD.01 24-Apr-2013

 --------------------
 #p B2PLYPD3/Def2QZVP
 --------------------

 --------
 methanol
 --------
 Symbolic Z-matrix:
 Charge =  0 Multiplicity = 1

                         Standard orientation:
 ---------------------------------------------------------------------
 Center     Atomic      Atomic             Coordinates (Angstroms)
 Number     Number       Type             X           Y           Z
 ---------------------------------------------------------------------
      1          6           0        0.682846    0.059921    0.024948
      2          8           0       -0.721016   -0.199031   -0.027313
      3          1           0        0.958566    0.256093    0.830113
      4          1           0        1.045020    0.689604   -0.719430
      5          1           0        1.064393   -0.795800   -0.147136
      6          1           0       -1.396924    1.082826    0.105267
 ---------------------------------------------------------------------

 SCF Done:  E(RB2PLYPD3) =  -115.392169468     A.U. after   12 cycles
 E2(B2PLYPD3) =    -0.1565126937D+00 E(B2PLYPD3) =    -0.11554868216134D+03

 The electronic state is 1-A.
 Alpha  occ. eigenvalues --  -19.75153 -10.60679  -1.11157  -0.81416  -0.55655
 Alpha  occ. eigenvalues --   -0.53654  -0.48636  -0.38396  -0.35542
 Alpha virt. eigenvalues --   -0.02088   0.07464   0.12726   0.13013   0.14802
 Alpha virt. eigenvalues --    0.16944   0.18850   0.21747   0.29225   0.33813
 Alpha virt. eigenvalues --    0.34176   0.38785   0.39732   0.43313   0.45882

 Mulliken charges:
               1
     1  C    0.061769
     2  O   -0.487749
     3  H    0.084488
     4  H    0.052390
     5  H    0.062863
     6  H    0.226238
 Sum of Mulliken charges =   0.00000

 Dipole moment (field-independent basis, Debye):
    X=              1.0022    Y=              1.6232    Z=              0.2502  Tot=              1.9240
 Quadrupole moment (field-independent basis, Debye-Ang):
   XX=            -12.2897   YY=            -11.7858   ZZ=            -13.7537
   XY=             -2.7043   XZ=             -0.2171   YZ=              0.1094

 Normal termination of Gaussian 09 at Wed Aug 26 21:19:03 2020.
