 Gaussian 09, Revision D.01,
 Gaussian 09:  ES64L-G09RevD.01 24-Apr-2013

 --------------------
 #p B2PLYPD3/Def2QZVP
 --------------------

 --------
 methanol
 --------
 Symbolic Z-matrix:
 Charge =  0 Multiplicity = 1

                         Standard orientation:
 ---------------------------------------------------------------------
 Center     Atomic      Atomic             Coordinates (Angstroms)
 Number     Number       Type             X           Y           Z
 ---------------------------------------------------------------------
      1          6           0       -0.691843    0.030911    0.009039
      2          8           0        0.752924   -0.164771   -0.030569
      3          1           0       -1.100499    0.693436   -0.737198
      4          1           0       -0.984563    0.335996    0.839147
      5          1           0       -1.064058   -0.889795   -0.052858
      6          1           0        1.276786    0.993070    0.141225
 ---------------------------------------------------------------------

 SCF Done:  E(RB2PLYPD3) =  -115.465947200     A.U. after   11 cycles
 E2(B2PLYPD3) =    -0.1535574957D+00 E(B2PLYPD3) =    -0.11561950469567D+03

 The electronic state is 1-A.
 Alpha  occ. eigenvalues --  -19.74610 -10.62543  -1.10850  -0.80373  -0.55294
 Alpha  occ. eigenvalues --   -0.52334  -0.48402  -0.40388  -0.35324
 Alpha virt. eigenvalues --    0.01184   0.07438   0.12497   0.12936   0.14866
 Alpha virt. eigenvalues --    0.17004   0.18552   0.24563   0.29259   0.32924
 Alpha virt. eigenvalues --    0.33791   0.38868   0.39713   0.41614   0.44745

 Mulliken charges:
               1
     1  C    0.087177
     2  O   -0.506766
     3  H    0.048158
     4  H    0.058138
     5  H    0.066167
     6  H    0.247126
 Sum of Mulliken charges =   0.00000

 Dipole moment (field-independent basis, Debye):
    X=             -1.0404    Y=              1.6595    Z=              0.3825  Tot=              1.9957
 Quadrupole moment (field-independent basis, Debye-Ang):
   XX=            -12.6264   YY=            -11.7173   ZZ=            -13.9296
   XY=              2.5006   XZ=              0.2509   YZ=              0.1739

 Normal termination of Gaussian 09 at Wed Aug 26 23:33:48 2020.
