 Gaussian 09, Revision D.01,
 Gaussian 09:  ES64L-G09RevD.01 24-Apr-2013

 --------------------
 #p B2PLYPD3/Def2QZVP
 --------------------

 --------
 methanol
 --------
 Symbolic Z-matrix:
 Charge =  0 Multiplicity = 1

                         Standard orientation:
 ---------------------------------------------------------------------
 Center     Atomic      Atomic             Coordinates (Angstroms)
 Number     Number       Type             X           Y           Z
 ---------------------------------------------------------------------
      1          6           0        0.653406   -0.012297   -0.001433
      2          8           0       -0.739671    0.100712   -0.010225
      3          1           0        0.977652   -0.730577   -0.847449
      4          1           0        0.997444   -0.404616    1.034281
      5          1           0        1.153209    0.970967   -0.160694
      6          1           0       -1.131374   -0.567685    0.064258
 ---------------------------------------------------------------------

 SCF Done:  E(RB2PLYPD3) =  -115.499948045     A.U. after   10 cycles
 E2(B2PLYPD3) =    -0.1444950817D+00 E(B2PLYPD3) =    -0.11564444312665D+03

 The electronic state is 1-A.
 Alpha  occ. eigenvalues --  -19.70654 -10.67652  -1.21555  -0.80406  -0.60982
 Alpha  occ. eigenvalues --   -0.51641  -0.51234  -0.40235  -0.35420
 Alpha virt. eigenvalues --    0.05392   0.08917   0.11877   0.12485   0.14330
 Alpha virt. eigenvalues --    0.17407   0.17760   0.28762   0.32640   0.33579
 Alpha virt. eigenvalues --    0.36817   0.39076   0.39190   0.40509   0.43312

 Mulliken charges:
               1
     1  C    0.059271
     2  O   -0.324827
     3  H    0.041474
     4  H    0.042712
     5  H    0.080642
     6  H    0.100728
 Sum of Mulliken charges =   0.00000

 Dipole moment (field-independent basis, Debye):
    X=              0.7664    Y=             -1.2323    Z=              0.1245  Tot=              1.4565
 Quadrupole moment (field-independent basis, Debye-Ang):
   XX=            -12.9309   YY=            -12.6590   ZZ=            -13.6431
   XY=              2.2303   XZ=             -0.2612   YZ=             -0.0821

 Normal termination of Gaussian 09 at Wed Aug 26 11:25:41 2020.
