 Gaussian 09, Revision D.01,
 Gaussian 09:  ES64L-G09RevD.01 24-Apr-2013

 --------------------
 #p B2PLYPD3/Def2QZVP
 --------------------

 --------
 methanol
 --------
 Symbolic Z-matrix:
 Charge =  0 Multiplicity = 1

                         Standard orientation:
 ---------------------------------------------------------------------
 Center     Atomic      Atomic             Coordinates (Angstroms)
 Number     Number       Type             X           Y           Z
 ---------------------------------------------------------------------
      1          6           0        0.679914   -0.023642    0.000167
      2          8           0       -0.750461    0.107825   -0.002133
      3          1           0        1.030108   -0.562496   -0.898719
      4          1           0        0.968110   -0.548573    0.929264
      5          1           0        1.089093    1.024905   -0.001859
      6          1           0       -1.163107   -0.634586   -0.012626
 ---------------------------------------------------------------------

 SCF Done:  E(RB2PLYPD3) =  -115.537286101     A.U. after   10 cycles
 E2(B2PLYPD3) =    -0.1456506669D+00 E(B2PLYPD3) =    -0.11568293676758D+03

 The electronic state is 1-A.
 Alpha  occ. eigenvalues --  -19.71027 -10.66724  -1.17963  -0.79566  -0.59627
 Alpha  occ. eigenvalues --   -0.51916  -0.49727  -0.40668  -0.35590
 Alpha virt. eigenvalues --    0.05376   0.08642   0.12160   0.12230   0.14568
 Alpha virt. eigenvalues --    0.17040   0.17826   0.29116   0.32402   0.33284
 Alpha virt. eigenvalues --    0.37493   0.38834   0.39724   0.40417   0.43155

 Mulliken charges:
               1
     1  C    0.070058
     2  O   -0.416371
     3  H    0.053367
     4  H    0.053878
     5  H    0.075483
     6  H    0.163585
 Sum of Mulliken charges =   0.00000

 Dipole moment (field-independent basis, Debye):
    X=              0.8998    Y=             -1.3962    Z=             -0.0187  Tot=              1.6611
 Quadrupole moment (field-independent basis, Debye-Ang):
   XX=            -12.9144   YY=            -12.4171   ZZ=            -13.6296
   XY=              2.1834   XZ=             -0.0357   YZ=              0.0188

 Normal termination of Gaussian 09 at Wed Aug 26 09:59:17 2020.
