 Gaussian 09, Revision D.01,
 Gaussian 09:  ES64L-G09RevD.01 24-Apr-2013

 --------------------
 #p B2PLYPD3/Def2QZVP
 --------------------

 --------
 methanol
 --------
 Symbolic Z-matrix:
 Charge =  0 Multiplicity = 1

                         Standard orientation:
 ---------------------------------------------------------------------
 Center     Atomic      Atomic             Coordinates (Angstroms)
 Number     Number       Type             X           Y           Z
 ---------------------------------------------------------------------
      1          6           0        0.660557    0.026770    0.020342
      2          8           0       -0.740181   -0.152906   -0.026044
      3          1           0        0.997160    0.345349    0.880876
      4          1           0        1.071263    0.648036   -0.817784
      5          1           0        1.072418   -0.872761   -0.092989
      6          1           0       -1.182741    0.942004    0.116199
 ---------------------------------------------------------------------

 SCF Done:  E(RB2PLYPD3) =  -115.500290137     A.U. after   11 cycles
 E2(B2PLYPD3) =    -0.1512071237D+00 E(B2PLYPD3) =    -0.11565149726098D+03

 The electronic state is 1-A.
 Alpha  occ. eigenvalues --  -19.74291 -10.63180  -1.13245  -0.79324  -0.56208
 Alpha  occ. eigenvalues --   -0.52257  -0.49872  -0.40424  -0.35233
 Alpha virt. eigenvalues --    0.02564   0.07672   0.12517   0.12908   0.14870
 Alpha virt. eigenvalues --    0.17394   0.18672   0.26596   0.29399   0.33505
 Alpha virt. eigenvalues --    0.34504   0.38346   0.40596   0.41760   0.44524

 Mulliken charges:
               1
     1  C    0.082272
     2  O   -0.486904
     3  H    0.049308
     4  H    0.038733
     5  H    0.062328
     6  H    0.254262
 Sum of Mulliken charges =   0.00000

 Dipole moment (field-independent basis, Debye):
    X=              0.9129    Y=              1.5835    Z=              0.3308  Tot=              1.8575
 Quadrupole moment (field-independent basis, Debye-Ang):
   XX=            -12.9468   YY=            -11.9621   ZZ=            -13.7853
   XY=             -2.4977   XZ=             -0.2055   YZ=              0.2219

 Normal termination of Gaussian 09 at Wed Aug 26 11:19:36 2020.
