 Gaussian 09, Revision D.01,
 Gaussian 09:  ES64L-G09RevD.01 24-Apr-2013

 --------------------
 #p B2PLYPD3/Def2QZVP
 --------------------

 --------
 methanol
 --------
 Symbolic Z-matrix:
 Charge =  0 Multiplicity = 1

                         Standard orientation:
 ---------------------------------------------------------------------
 Center     Atomic      Atomic             Coordinates (Angstroms)
 Number     Number       Type             X           Y           Z
 ---------------------------------------------------------------------
      1          6           0        0.659195    0.016620   -0.002953
      2          8           0       -0.738214   -0.138318   -0.002851
      3          1           0        0.985439    0.498460    0.891943
      4          1           0        1.037128    0.562995   -0.830581
      5          1           0        1.046935   -0.932103   -0.021242
      6          1           0       -1.118958    0.877467    0.000404
 ---------------------------------------------------------------------

 SCF Done:  E(RB2PLYPD3) =  -115.535209221     A.U. after   11 cycles
 E2(B2PLYPD3) =    -0.1490934201D+00 E(B2PLYPD3) =    -0.11568430264153D+03

 The electronic state is 1-A.
 Alpha  occ. eigenvalues --  -19.73466 -10.63934  -1.14657  -0.78627  -0.57614
 Alpha  occ. eigenvalues --   -0.52200  -0.49951  -0.41229  -0.35037
 Alpha virt. eigenvalues --    0.03893   0.08057   0.12520   0.12679   0.14973
 Alpha virt. eigenvalues --    0.17360   0.18160   0.28982   0.30629   0.33296
 Alpha virt. eigenvalues --    0.34705   0.39106   0.40491   0.41772   0.44045

 Mulliken charges:
               1
     1  C    0.077904
     2  O   -0.477718
     3  H    0.042429
     4  H    0.041836
     5  H    0.068314
     6  H    0.247235
 Sum of Mulliken charges =   0.00000

 Dipole moment (field-independent basis, Debye):
    X=              0.9164    Y=              1.5933    Z=              0.0003  Tot=              1.8380
 Quadrupole moment (field-independent basis, Debye-Ang):
   XX=            -13.2221   YY=            -11.8805   ZZ=            -13.8309
   XY=             -2.3122   XZ=             -0.0634   YZ=             -0.0148

 Normal termination of Gaussian 09 at Wed Aug 26 23:58:20 2020.
