 Gaussian 09, Revision D.01,
 Gaussian 09:  ES64L-G09RevD.01 24-Apr-2013

 --------------------
 #p B2PLYPD3/Def2QZVP
 --------------------

 --------
 methanol
 --------
 Symbolic Z-matrix:
 Charge =  0 Multiplicity = 1

                         Standard orientation:
 ---------------------------------------------------------------------
 Center     Atomic      Atomic             Coordinates (Angstroms)
 Number     Number       Type             X           Y           Z
 ---------------------------------------------------------------------
      1          6           0        0.679449    0.005865    0.014102
      2          8           0       -0.770900   -0.175674    0.003649
      3          1           0        1.030376    0.561473    0.802423
      4          1           0        1.194963    0.448722   -0.793080
      5          1           0        1.053652   -0.800220   -0.026955
      6          1           0       -1.188478    1.160231   -0.096191
 ---------------------------------------------------------------------

 SCF Done:  E(RB2PLYPD3) =  -115.416890283     A.U. after   12 cycles
 E2(B2PLYPD3) =    -0.1569417533D+00 E(B2PLYPD3) =    -0.11557383203668D+03

 The electronic state is 1-A.
 Alpha  occ. eigenvalues --  -19.75925 -10.62243  -1.10579  -0.81307  -0.55532
 Alpha  occ. eigenvalues --   -0.51037  -0.48257  -0.40373  -0.35316
 Alpha virt. eigenvalues --   -0.01415   0.07166   0.12679   0.12828   0.14665
 Alpha virt. eigenvalues --    0.17510   0.18744   0.22252   0.29194   0.32434
 Alpha virt. eigenvalues --    0.33926   0.37732   0.39416   0.42322   0.43444

 Mulliken charges:
               1
     1  C    0.068365
     2  O   -0.485930
     3  H    0.046395
     4  H    0.036127
     5  H    0.093769
     6  H    0.241273
 Sum of Mulliken charges =   0.00000

 Dipole moment (field-independent basis, Debye):
    X=              1.2125    Y=              1.6869    Z=             -0.1251  Tot=              2.0812
 Quadrupole moment (field-independent basis, Debye-Ang):
   XX=            -12.9688   YY=            -11.3311   ZZ=            -14.1769
   XY=             -2.4587   XZ=              0.0452   YZ=             -0.0078

 Normal termination of Gaussian 09 at Wed Aug 26 23:23:53 2020.
