 Gaussian 09, Revision D.01,
 Gaussian 09:  ES64L-G09RevD.01 24-Apr-2013

 --------------------
 #p B2PLYPD3/Def2QZVP
 --------------------

 --------
 methanol
 --------
 Symbolic Z-matrix:
 Charge =  0 Multiplicity = 1

                         Standard orientation:
 ---------------------------------------------------------------------
 Center     Atomic      Atomic             Coordinates (Angstroms)
 Number     Number       Type             X           Y           Z
 ---------------------------------------------------------------------
      1          6           0        0.650857    0.032713   -0.002077
      2          8           0       -0.730112   -0.162684    0.002243
      3          1           0        1.021950    0.528283    0.830364
      4          1           0        0.958563    0.559979   -0.825464
      5          1           0        1.182118   -0.885788   -0.020279
      6          1           0       -1.226871    0.902716    0.009902
 ---------------------------------------------------------------------

 SCF Done:  E(RB2PLYPD3) =  -115.514044601     A.U. after   11 cycles
 E2(B2PLYPD3) =    -0.1504126190D+00 E(B2PLYPD3) =    -0.11566445721990D+03

 The electronic state is 1-A.
 Alpha  occ. eigenvalues --  -19.74036 -10.63404  -1.13832  -0.78674  -0.56345
 Alpha  occ. eigenvalues --   -0.52653  -0.50161  -0.39940  -0.34965
 Alpha virt. eigenvalues --    0.02653   0.07639   0.12819   0.12854   0.14864
 Alpha virt. eigenvalues --    0.17949   0.18238   0.26885   0.29595   0.33329
 Alpha virt. eigenvalues --    0.34901   0.39914   0.40043   0.42610   0.43445

 Mulliken charges:
               1
     1  C    0.086748
     2  O   -0.487905
     3  H    0.041016
     4  H    0.041866
     5  H    0.060073
     6  H    0.258203
 Sum of Mulliken charges =   0.00000

 Dipole moment (field-independent basis, Debye):
    X=              0.7777    Y=              1.6968    Z=              0.0000  Tot=              1.8666
 Quadrupole moment (field-independent basis, Debye-Ang):
   XX=            -12.6431   YY=            -12.0459   ZZ=            -13.9380
   XY=             -2.5766   XZ=              0.0184   YZ=             -0.0051

 Normal termination of Gaussian 09 at Wed Aug 26 14:57:36 2020.
