 Gaussian 09, Revision D.01,
 Gaussian 09:  ES64L-G09RevD.01 24-Apr-2013

 --------------------
 #p B2PLYPD3/Def2QZVP
 --------------------

 --------
 methanol
 --------
 Symbolic Z-matrix:
 Charge =  0 Multiplicity = 1

                         Standard orientation:
 ---------------------------------------------------------------------
 Center     Atomic      Atomic             Coordinates (Angstroms)
 Number     Number       Type             X           Y           Z
 ---------------------------------------------------------------------
      1          6           0        0.658467    0.024194   -0.001406
      2          8           0       -0.740271   -0.140301    0.000263
      3          1           0        1.019791    0.506840    0.875890
      4          1           0        0.974253    0.599159   -0.835490
      5          1           0        1.145505   -0.941134   -0.048377
      6          1           0       -1.168180    0.812375    0.014310
 ---------------------------------------------------------------------

 SCF Done:  E(RB2PLYPD3) =  -115.544369018     A.U. after   11 cycles
 E2(B2PLYPD3) =    -0.1483489601D+00 E(B2PLYPD3) =    -0.11569271797807D+03

 The electronic state is 1-A.
 Alpha  occ. eigenvalues --  -19.73171 -10.64657  -1.14982  -0.78517  -0.57838
 Alpha  occ. eigenvalues --   -0.52158  -0.50040  -0.40700  -0.35113
 Alpha virt. eigenvalues --    0.04312   0.07966   0.12570   0.12637   0.14868
 Alpha virt. eigenvalues --    0.17673   0.18040   0.29223   0.31711   0.33268
 Alpha virt. eigenvalues --    0.34250   0.39485   0.39920   0.41681   0.44038

 Mulliken charges:
               1
     1  C    0.078619
     2  O   -0.478027
     3  H    0.044373
     4  H    0.043043
     5  H    0.066439
     6  H    0.245554
 Sum of Mulliken charges =   0.00000

 Dipole moment (field-independent basis, Debye):
    X=              0.8348    Y=              1.6023    Z=              0.0180  Tot=              1.8068
 Quadrupole moment (field-independent basis, Debye-Ang):
   XX=            -12.8883   YY=            -12.1316   ZZ=            -13.8744
   XY=             -2.4122   XZ=             -0.0086   YZ=              0.0085

 Normal termination of Gaussian 09 at Wed Aug 26 10:33:24 2020.
