 Gaussian 09, Revision D.01,
 Gaussian 09:  ES64L-G09RevD.01 24-Apr-2013

 --------------------
 #p B2PLYPD3/Def2QZVP
 --------------------

 --------
 methanol
 --------
 Symbolic Z-matrix:
 Charge =  0 Multiplicity = 1

                         Standard orientation:
 ---------------------------------------------------------------------
 Center     Atomic      Atomic             Coordinates (Angstroms)
 Number     Number       Type             X           Y           Z
 ---------------------------------------------------------------------
      1          6           0        0.664621    0.018407    0.000132
      2          8           0       -0.750309   -0.131672   -0.010083
      3          1           0        0.997490    0.459067    0.920594
      4          1           0        1.042521    0.627031   -0.830285
      5          1           0        1.127401   -0.938737   -0.055163
      6          1           0       -1.152668    0.795576    0.044723
 ---------------------------------------------------------------------

 SCF Done:  E(RB2PLYPD3) =  -115.548690287     A.U. after   10 cycles
 E2(B2PLYPD3) =    -0.1481087992D+00 E(B2PLYPD3) =    -0.11569679908640D+03

 The electronic state is 1-A.
 Alpha  occ. eigenvalues --  -19.73031 -10.65149  -1.15079  -0.78647  -0.57852
 Alpha  occ. eigenvalues --   -0.51690  -0.50131  -0.40985  -0.35261
 Alpha virt. eigenvalues --    0.04610   0.08005   0.12399   0.12664   0.14764
 Alpha virt. eigenvalues --    0.17565   0.18158   0.29175   0.32729   0.33338
 Alpha virt. eigenvalues --    0.33742   0.39250   0.40165   0.40966   0.43982

 Mulliken charges:
               1
     1  C    0.074671
     2  O   -0.474415
     3  H    0.046832
     4  H    0.043762
     5  H    0.069850
     6  H    0.239299
 Sum of Mulliken charges =   0.00000

 Dipole moment (field-independent basis, Debye):
    X=              0.8978    Y=              1.5389    Z=              0.1160  Tot=              1.7854
 Quadrupole moment (field-independent basis, Debye-Ang):
   XX=            -12.9392   YY=            -12.1857   ZZ=            -13.8407
   XY=             -2.3798   XZ=             -0.1448   YZ=              0.0563

 Normal termination of Gaussian 09 at Wed Aug 26 15:04:10 2020.
