 Gaussian 09, Revision D.01,
 Gaussian 09:  ES64L-G09RevD.01 24-Apr-2013

 --------------------
 #p B2PLYPD3/Def2QZVP
 --------------------

 --------
 methanol
 --------
 Symbolic Z-matrix:
 Charge =  0 Multiplicity = 1

                         Standard orientation:
 ---------------------------------------------------------------------
 Center     Atomic      Atomic             Coordinates (Angstroms)
 Number     Number       Type             X           Y           Z
 ---------------------------------------------------------------------
      1          6           0        0.677014    0.027894   -0.008584
      2          8           0       -0.747573   -0.143143    0.004462
      3          1           0        1.004878    0.566096    0.845500
      4          1           0        1.038219    0.505380   -0.825124
      5          1           0        1.068031   -0.961968    0.027932
      6          1           0       -1.192629    0.868272   -0.032497
 ---------------------------------------------------------------------

 SCF Done:  E(RB2PLYPD3) =  -115.529997435     A.U. after   11 cycles
 E2(B2PLYPD3) =    -0.1497784310D+00 E(B2PLYPD3) =    -0.11567977586628D+03

 The electronic state is 1-A.
 Alpha  occ. eigenvalues --  -19.73507 -10.64015  -1.13195  -0.78942  -0.57035
 Alpha  occ. eigenvalues --   -0.52198  -0.48965  -0.41017  -0.35232
 Alpha virt. eigenvalues --    0.03778   0.07833   0.12426   0.12725   0.14988
 Alpha virt. eigenvalues --    0.17203   0.18156   0.28853   0.30287   0.33289
 Alpha virt. eigenvalues --    0.33863   0.39020   0.39469   0.42151   0.44646

 Mulliken charges:
               1
     1  C    0.083801
     2  O   -0.495033
     3  H    0.046038
     4  H    0.049778
     5  H    0.067649
     6  H    0.247768
 Sum of Mulliken charges =   0.00000

 Dipole moment (field-independent basis, Debye):
    X=              0.9392    Y=              1.6453    Z=             -0.0945  Tot=              1.8968
 Quadrupole moment (field-independent basis, Debye-Ang):
   XX=            -12.8979   YY=            -11.9245   ZZ=            -13.8794
   XY=             -2.3441   XZ=              0.0042   YZ=             -0.0825

 Normal termination of Gaussian 09 at Thu Aug 27 00:11:52 2020.
