 Gaussian 09, Revision D.01,
 Gaussian 09:  ES64L-G09RevD.01 24-Apr-2013

 --------------------
 #p B2PLYPD3/Def2QZVP
 --------------------

 --------
 methanol
 --------
 Symbolic Z-matrix:
 Charge =  0 Multiplicity = 1

                         Standard orientation:
 ---------------------------------------------------------------------
 Center     Atomic      Atomic             Coordinates (Angstroms)
 Number     Number       Type             X           Y           Z
 ---------------------------------------------------------------------
      1          6           0       -0.669679    0.020032   -0.005291
      2          8           0        0.742620   -0.141023   -0.002815
      3          1           0       -1.029113    0.526693   -0.859773
      4          1           0       -1.055849    0.508602    0.861113
      5          1           0       -1.011225   -0.928978    0.019333
      6          1           0        1.173297    0.901671    0.033597
 ---------------------------------------------------------------------

 SCF Done:  E(RB2PLYPD3) =  -115.524835644     A.U. after   11 cycles
 E2(B2PLYPD3) =    -0.1501550756D+00 E(B2PLYPD3) =    -0.11567499071957D+03

 The electronic state is 1-A.
 Alpha  occ. eigenvalues --  -19.73759 -10.63781  -1.13486  -0.78789  -0.56964
 Alpha  occ. eigenvalues --   -0.52008  -0.49394  -0.41039  -0.35143
 Alpha virt. eigenvalues --    0.03469   0.07843   0.12604   0.12659   0.15014
 Alpha virt. eigenvalues --    0.17053   0.18376   0.28378   0.29880   0.33566
 Alpha virt. eigenvalues --    0.34203   0.38706   0.40115   0.41898   0.43937

 Mulliken charges:
               1
     1  C    0.076081
     2  O   -0.488313
     3  H    0.048109
     4  H    0.043726
     5  H    0.070724
     6  H    0.249673
 Sum of Mulliken charges =   0.00000

 Dipole moment (field-independent basis, Debye):
    X=             -0.9193    Y=              1.5980    Z=              0.0563  Tot=              1.8444
 Quadrupole moment (field-independent basis, Debye-Ang):
   XX=            -13.0274   YY=            -11.8851   ZZ=            -13.8522
   XY=              2.3527   XZ=              0.0516   YZ=              0.0051

 Normal termination of Gaussian 09 at Thu Aug 27 00:09:11 2020.
