 Gaussian 09, Revision D.01,
 Gaussian 09:  ES64L-G09RevD.01 24-Apr-2013

 --------------------
 #p B2PLYPD3/Def2QZVP
 --------------------

 --------
 methanol
 --------
 Symbolic Z-matrix:
 Charge =  0 Multiplicity = 1

                         Standard orientation:
 ---------------------------------------------------------------------
 Center     Atomic      Atomic             Coordinates (Angstroms)
 Number     Number       Type             X           Y           Z
 ---------------------------------------------------------------------
      1          6           0       -0.672867   -0.017293   -0.003927
      2          8           0        0.750257    0.104043   -0.002401
      3          1           0       -1.000296   -0.525497    0.958891
      4          1           0       -0.983771   -0.578556   -0.927146
      5          1           0       -1.102596    0.993662   -0.014956
      6          1           0        1.121805   -0.618197    0.025978
 ---------------------------------------------------------------------

 SCF Done:  E(RB2PLYPD3) =  -115.523095486     A.U. after   10 cycles
 E2(B2PLYPD3) =    -0.1450855246D+00 E(B2PLYPD3) =    -0.11566818101022D+03

 The electronic state is 1-A.
 Alpha  occ. eigenvalues --  -19.70782 -10.66981  -1.19522  -0.79885  -0.59946
 Alpha  occ. eigenvalues --   -0.51847  -0.50483  -0.40817  -0.35638
 Alpha virt. eigenvalues --    0.05410   0.08829   0.11943   0.12422   0.14345
 Alpha virt. eigenvalues --    0.17205   0.17847   0.28942   0.32594   0.33022
 Alpha virt. eigenvalues --    0.37205   0.39640   0.39729   0.40005   0.43469

 Mulliken charges:
               1
     1  C    0.066372
     2  O   -0.377177
     3  H    0.048153
     4  H    0.051816
     5  H    0.078534
     6  H    0.132302
 Sum of Mulliken charges =   0.00000

 Dipole moment (field-independent basis, Debye):
    X=             -0.9261    Y=             -1.3205    Z=              0.0426  Tot=              1.6134
 Quadrupole moment (field-independent basis, Debye-Ang):
   XX=            -13.0625   YY=            -12.4818   ZZ=            -13.5524
   XY=             -2.2043   XZ=              0.0739   YZ=             -0.0058

 Normal termination of Gaussian 09 at Wed Aug 26 23:25:28 2020.
