 Gaussian 09, Revision D.01,
 Gaussian 09:  ES64L-G09RevD.01 24-Apr-2013

 --------------------
 #p B2PLYPD3/Def2QZVP
 --------------------

 --------
 methanol
 --------
 Symbolic Z-matrix:
 Charge =  0 Multiplicity = 1

                         Standard orientation:
 ---------------------------------------------------------------------
 Center     Atomic      Atomic             Coordinates (Angstroms)
 Number     Number       Type             X           Y           Z
 ---------------------------------------------------------------------
      1          6           0       -0.668681   -0.024039    0.002876
      2          8           0        0.752555    0.130772   -0.008502
      3          1           0       -1.047842   -0.443924    0.890858
      4          1           0       -1.045826   -0.638102   -0.815276
      5          1           0       -1.094333    0.980086   -0.076009
      6          1           0        1.179651   -0.799996    0.051189
 ---------------------------------------------------------------------

 SCF Done:  E(RB2PLYPD3) =  -115.546549723     A.U. after   10 cycles
 E2(B2PLYPD3) =    -0.1485111963D+00 E(B2PLYPD3) =    -0.11569506091976D+03

 The electronic state is 1-A.
 Alpha  occ. eigenvalues --  -19.73182 -10.65202  -1.14587  -0.78603  -0.57915
 Alpha  occ. eigenvalues --   -0.51562  -0.49344  -0.41015  -0.35367
 Alpha virt. eigenvalues --    0.04534   0.07893   0.12353   0.12626   0.14989
 Alpha virt. eigenvalues --    0.17277   0.18215   0.29131   0.32563   0.33495
 Alpha virt. eigenvalues --    0.33708   0.38611   0.39520   0.41304   0.44156

 Mulliken charges:
               1
     1  C    0.074168
     2  O   -0.478787
     3  H    0.050954
     4  H    0.045439
     5  H    0.067649
     6  H    0.240577
 Sum of Mulliken charges =   0.00000

 Dipole moment (field-independent basis, Debye):
    X=             -0.8800    Y=             -1.5765    Z=              0.1360  Tot=              1.8106
 Quadrupole moment (field-independent basis, Debye-Ang):
   XX=            -12.8438   YY=            -12.1410   ZZ=            -13.9143
   XY=             -2.3049   XZ=              0.0957   YZ=             -0.0767

 Normal termination of Gaussian 09 at Thu Aug 27 00:01:09 2020.
