 Gaussian 09, Revision D.01,
 Gaussian 09:  ES64L-G09RevD.01 24-Apr-2013

 --------------------
 #p B2PLYPD3/Def2QZVP
 --------------------

 --------
 methanol
 --------
 Symbolic Z-matrix:
 Charge =  0 Multiplicity = 1

                         Standard orientation:
 ---------------------------------------------------------------------
 Center     Atomic      Atomic             Coordinates (Angstroms)
 Number     Number       Type             X           Y           Z
 ---------------------------------------------------------------------
      1          6           0       -0.666675   -0.027140   -0.006554
      2          8           0        0.736040    0.136128    0.008369
      3          1           0       -1.014142   -0.551660    0.870725
      4          1           0       -0.938875   -0.535157   -0.870341
      5          1           0       -1.104552    0.949871   -0.010185
      6          1           0        1.169299   -0.789239   -0.017826
 ---------------------------------------------------------------------

 SCF Done:  E(RB2PLYPD3) =  -115.546516651     A.U. after   10 cycles
 E2(B2PLYPD3) =    -0.1478550580D+00 E(B2PLYPD3) =    -0.11569437170911D+03

 The electronic state is 1-A.
 Alpha  occ. eigenvalues --  -19.72686 -10.64474  -1.15060  -0.78746  -0.57948
 Alpha  occ. eigenvalues --   -0.52654  -0.49979  -0.40679  -0.35123
 Alpha virt. eigenvalues --    0.04561   0.08160   0.12503   0.12602   0.14810
 Alpha virt. eigenvalues --    0.17402   0.17985   0.29227   0.32760   0.33206
 Alpha virt. eigenvalues --    0.34069   0.39564   0.40050   0.41841   0.44334

 Mulliken charges:
               1
     1  C    0.078840
     2  O   -0.479929
     3  H    0.045185
     4  H    0.047982
     5  H    0.068605
     6  H    0.239317
 Sum of Mulliken charges =   0.00000

 Dipole moment (field-independent basis, Debye):
    X=             -0.8483    Y=             -1.5674    Z=             -0.0833  Tot=              1.7842
 Quadrupole moment (field-independent basis, Debye-Ang):
   XX=            -12.9443   YY=            -12.1451   ZZ=            -13.7352
   XY=             -2.3894   XZ=             -0.0777   YZ=              0.0539

 Normal termination of Gaussian 09 at Wed Aug 26 16:20:20 2020.
