 Gaussian 09, Revision D.01,
 Gaussian 09:  ES64L-G09RevD.01 24-Apr-2013

 --------------------
 #p B2PLYPD3/Def2QZVP
 --------------------

 --------
 methanol
 --------
 Symbolic Z-matrix:
 Charge =  0 Multiplicity = 1

                         Standard orientation:
 ---------------------------------------------------------------------
 Center     Atomic      Atomic             Coordinates (Angstroms)
 Number     Number       Type             X           Y           Z
 ---------------------------------------------------------------------
      1          6           0        0.686422   -0.012109   -0.003331
      2          8           0       -0.756112    0.101318   -0.015269
      3          1           0        1.028460   -0.670307   -0.865929
      4          1           0        0.979697   -0.427881    1.016810
      5          1           0        1.079800    0.978101   -0.086868
      6          1           0       -1.157588   -0.617799    0.078123
 ---------------------------------------------------------------------

 SCF Done:  E(RB2PLYPD3) =  -115.527755453     A.U. after   10 cycles
 E2(B2PLYPD3) =    -0.1455089628D+00 E(B2PLYPD3) =    -0.11567326441575D+03

 The electronic state is 1-A.
 Alpha  occ. eigenvalues --  -19.70769 -10.67026  -1.18254  -0.79937  -0.59302
 Alpha  occ. eigenvalues --   -0.51361  -0.50659  -0.40729  -0.35515
 Alpha virt. eigenvalues --    0.05400   0.08671   0.11884   0.12500   0.14275
 Alpha virt. eigenvalues --    0.17027   0.17886   0.29023   0.31807   0.33077
 Alpha virt. eigenvalues --    0.37070   0.39410   0.39510   0.40468   0.43347

 Mulliken charges:
               1
     1  C    0.069858
     2  O   -0.403297
     3  H    0.053009
     4  H    0.049504
     5  H    0.083823
     6  H    0.147103
 Sum of Mulliken charges =   0.00000

 Dipole moment (field-independent basis, Debye):
    X=              0.9545    Y=             -1.2947    Z=              0.1720  Tot=              1.6177
 Quadrupole moment (field-independent basis, Debye-Ang):
   XX=            -12.9415   YY=            -12.4752   ZZ=            -13.5651
   XY=              2.2316   XZ=             -0.3246   YZ=             -0.0693

 Normal termination of Gaussian 09 at Wed Aug 26 10:51:25 2020.
