 Gaussian 09, Revision D.01,
 Gaussian 09:  ES64L-G09RevD.01 24-Apr-2013

 --------------------
 #p B2PLYPD3/Def2QZVP
 --------------------

 --------
 methanol
 --------
 Symbolic Z-matrix:
 Charge =  0 Multiplicity = 1

                         Standard orientation:
 ---------------------------------------------------------------------
 Center     Atomic      Atomic             Coordinates (Angstroms)
 Number     Number       Type             X           Y           Z
 ---------------------------------------------------------------------
      1          6           0       -0.675496   -0.042967    0.007987
      2          8           0        0.754683    0.100144   -0.021333
      3          1           0       -0.890070   -0.458395    0.938500
      4          1           0       -1.019991   -0.646428   -0.847172
      5          1           0       -1.104007    1.136209   -0.046891
      6          1           0        1.029578   -0.574733    0.078303
 ---------------------------------------------------------------------

 SCF Done:  E(RB2PLYPD3) =  -115.453948914     A.U. after   10 cycles
 E2(B2PLYPD3) =    -0.1445139696D+00 E(B2PLYPD3) =    -0.11559846288354D+03

 The electronic state is 1-A.
 Alpha  occ. eigenvalues --  -19.69907 -10.67390  -1.22696  -0.80255  -0.61272
 Alpha  occ. eigenvalues --   -0.53525  -0.48286  -0.41135  -0.36438
 Alpha virt. eigenvalues --    0.05196   0.09233   0.11221   0.12088   0.14590
 Alpha virt. eigenvalues --    0.17011   0.17569   0.28780   0.31580   0.33183
 Alpha virt. eigenvalues --    0.34195   0.39451   0.40221   0.41580   0.43814

 Mulliken charges:
               1
     1  C    0.062156
     2  O   -0.294563
     3  H    0.063908
     4  H    0.060353
     5  H    0.059256
     6  H    0.048890
 Sum of Mulliken charges =   0.00000

 Dipole moment (field-independent basis, Debye):
    X=             -1.0606    Y=             -1.4405    Z=              0.2567  Tot=              1.8072
 Quadrupole moment (field-independent basis, Debye-Ang):
   XX=            -13.5418   YY=            -12.2963   ZZ=            -13.4362
   XY=             -1.7790   XZ=              0.3143   YZ=             -0.1026

 Normal termination of Gaussian 09 at Wed Aug 26 18:42:19 2020.
