 Gaussian 09, Revision D.01,
 Gaussian 09:  ES64L-G09RevD.01 24-Apr-2013

 --------------------
 #p B2PLYPD3/Def2QZVP
 --------------------

 --------
 methanol
 --------
 Symbolic Z-matrix:
 Charge =  0 Multiplicity = 1

                         Standard orientation:
 ---------------------------------------------------------------------
 Center     Atomic      Atomic             Coordinates (Angstroms)
 Number     Number       Type             X           Y           Z
 ---------------------------------------------------------------------
      1          6           0        0.663803    0.030317    0.001111
      2          8           0       -0.751978   -0.158621   -0.000305
      3          1           0        1.052917    0.530109    0.787850
      4          1           0        1.094928    0.511687   -0.782500
      5          1           0        1.069581   -0.949326    0.004276
      6          1           0       -1.184425    0.994595   -0.013855
 ---------------------------------------------------------------------

 SCF Done:  E(RB2PLYPD3) =  -115.494886678     A.U. after   11 cycles
 E2(B2PLYPD3) =    -0.1525019388D+00 E(B2PLYPD3) =    -0.11564738861655D+03

 The electronic state is 1-A.
 Alpha  occ. eigenvalues --  -19.74868 -10.63266  -1.12483  -0.79404  -0.56141
 Alpha  occ. eigenvalues --   -0.51807  -0.48722  -0.40773  -0.35374
 Alpha virt. eigenvalues --    0.01855   0.07497   0.12337   0.13068   0.15169
 Alpha virt. eigenvalues --    0.17340   0.18416   0.25415   0.29532   0.33804
 Alpha virt. eigenvalues --    0.34187   0.38251   0.39219   0.42478   0.44613

 Mulliken charges:
               1
     1  C    0.090103
     2  O   -0.484993
     3  H    0.043512
     4  H    0.042740
     5  H    0.058947
     6  H    0.249692
 Sum of Mulliken charges =   0.00000

 Dipole moment (field-independent basis, Debye):
    X=              0.9932    Y=              1.7444    Z=             -0.0167  Tot=              2.0074
 Quadrupole moment (field-independent basis, Debye-Ang):
   XX=            -12.9303   YY=            -11.6528   ZZ=            -14.1169
   XY=             -2.2767   XZ=             -0.0018   YZ=             -0.0038

 Normal termination of Gaussian 09 at Wed Aug 26 16:37:59 2020.
