 Gaussian 09, Revision D.01,
 Gaussian 09:  ES64L-G09RevD.01 24-Apr-2013

 --------------------
 #p B2PLYPD3/Def2QZVP
 --------------------

 --------
 methanol
 --------
 Symbolic Z-matrix:
 Charge =  0 Multiplicity = 1

                         Standard orientation:
 ---------------------------------------------------------------------
 Center     Atomic      Atomic             Coordinates (Angstroms)
 Number     Number       Type             X           Y           Z
 ---------------------------------------------------------------------
      1          6           0       -0.689377    0.023115   -0.009851
      2          8           0        0.756876   -0.159088   -0.004208
      3          1           0       -1.077295    0.557778   -0.741205
      4          1           0       -0.901187    0.549429    0.836046
      5          1           0       -1.110882   -0.930764    0.025381
      6          1           0        1.170618    0.957572   -0.027450
 ---------------------------------------------------------------------

 SCF Done:  E(RB2PLYPD3) =  -115.500565213     A.U. after   11 cycles
 E2(B2PLYPD3) =    -0.1517272107D+00 E(B2PLYPD3) =    -0.11565229242395D+03

 The electronic state is 1-A.
 Alpha  occ. eigenvalues --  -19.74034 -10.63103  -1.11670  -0.79703  -0.56223
 Alpha  occ. eigenvalues --   -0.52418  -0.48349  -0.41337  -0.35047
 Alpha virt. eigenvalues --    0.02597   0.07681   0.12327   0.12902   0.14725
 Alpha virt. eigenvalues --    0.17477   0.17976   0.26711   0.29665   0.32190
 Alpha virt. eigenvalues --    0.34074   0.39224   0.39507   0.42222   0.44808

 Mulliken charges:
               1
     1  C    0.098730
     2  O   -0.503926
     3  H    0.044487
     4  H    0.045770
     5  H    0.067169
     6  H    0.247769
 Sum of Mulliken charges =   0.00000

 Dipole moment (field-independent basis, Debye):
    X=             -1.1176    Y=              1.7351    Z=             -0.0370  Tot=              2.0642
 Quadrupole moment (field-independent basis, Debye-Ang):
   XX=            -13.0449   YY=            -11.5819   ZZ=            -13.9878
   XY=              2.3656   XZ=              0.1089   YZ=             -0.0739

 Normal termination of Gaussian 09 at Wed Aug 26 23:02:51 2020.
