 Gaussian 09, Revision D.01,
 Gaussian 09:  ES64L-G09RevD.01 24-Apr-2013

 --------------------
 #p B2PLYPD3/Def2QZVP
 --------------------

 --------
 methanol
 --------
 Symbolic Z-matrix:
 Charge =  0 Multiplicity = 1

                         Standard orientation:
 ---------------------------------------------------------------------
 Center     Atomic      Atomic             Coordinates (Angstroms)
 Number     Number       Type             X           Y           Z
 ---------------------------------------------------------------------
      1          6           0       -0.663548   -0.021594   -0.008716
      2          8           0        0.737406    0.134844    0.004432
      3          1           0       -0.967151   -0.572280    0.885908
      4          1           0       -1.034505   -0.509407   -0.853054
      5          1           0       -1.076057    0.946225    0.030396
      6          1           0        1.159758   -0.813723   -0.046408
 ---------------------------------------------------------------------

 SCF Done:  E(RB2PLYPD3) =  -115.543975489     A.U. after   11 cycles
 E2(B2PLYPD3) =    -0.1482456242D+00 E(B2PLYPD3) =    -0.11569222111331D+03

 The electronic state is 1-A.
 Alpha  occ. eigenvalues --  -19.72997 -10.64444  -1.14970  -0.78671  -0.57960
 Alpha  occ. eigenvalues --   -0.52188  -0.50031  -0.40933  -0.35047
 Alpha virt. eigenvalues --    0.04382   0.08108   0.12491   0.12631   0.14906
 Alpha virt. eigenvalues --    0.17331   0.18112   0.29188   0.32177   0.33146
 Alpha virt. eigenvalues --    0.34442   0.39291   0.40020   0.41701   0.44289

 Mulliken charges:
               1
     1  C    0.076073
     2  O   -0.477160
     3  H    0.042366
     4  H    0.046881
     5  H    0.069185
     6  H    0.242655
 Sum of Mulliken charges =   0.00000

 Dipole moment (field-independent basis, Debye):
    X=             -0.8482    Y=             -1.5608    Z=             -0.1262  Tot=              1.7809
 Quadrupole moment (field-independent basis, Debye-Ang):
   XX=            -12.9968   YY=            -12.0836   ZZ=            -13.7940
   XY=             -2.3680   XZ=              0.0015   YZ=              0.1090

 Normal termination of Gaussian 09 at Wed Aug 26 22:55:22 2020.
