 Gaussian 09, Revision D.01,
 Gaussian 09:  ES64L-G09RevD.01 24-Apr-2013

 --------------------
 #p B2PLYPD3/Def2QZVP
 --------------------

 --------
 methanol
 --------
 Symbolic Z-matrix:
 Charge =  0 Multiplicity = 1

                         Standard orientation:
 ---------------------------------------------------------------------
 Center     Atomic      Atomic             Coordinates (Angstroms)
 Number     Number       Type             X           Y           Z
 ---------------------------------------------------------------------
      1          6           0       -0.655321    0.013469    0.009510
      2          8           0        0.754431   -0.147335   -0.011212
      3          1           0       -1.087832    0.584595   -0.801529
      4          1           0       -1.006795    0.502531    0.813951
      5          1           0       -1.103796   -0.942524   -0.013864
      6          1           0        1.094898    0.953265    0.034076
 ---------------------------------------------------------------------

 SCF Done:  E(RB2PLYPD3) =  -115.516445786     A.U. after   11 cycles
 E2(B2PLYPD3) =    -0.1509048734D+00 E(B2PLYPD3) =    -0.11566735065974D+03

 The electronic state is 1-A.
 Alpha  occ. eigenvalues --  -19.74432 -10.63920  -1.13681  -0.78883  -0.56982
 Alpha  occ. eigenvalues --   -0.51450  -0.49425  -0.41452  -0.35158
 Alpha virt. eigenvalues --    0.02952   0.07686   0.12413   0.12834   0.15063
 Alpha virt. eigenvalues --    0.17766   0.18139   0.27395   0.29727   0.33473
 Alpha virt. eigenvalues --    0.34260   0.38729   0.39641   0.41423   0.44233

 Mulliken charges:
               1
     1  C    0.088873
     2  O   -0.480448
     3  H    0.034594
     4  H    0.042054
     5  H    0.062394
     6  H    0.252533
 Sum of Mulliken charges =   0.00000

 Dipole moment (field-independent basis, Debye):
    X=             -1.0222    Y=              1.6950    Z=              0.1430  Tot=              1.9846
 Quadrupole moment (field-independent basis, Debye-Ang):
   XX=            -13.2645   YY=            -11.6689   ZZ=            -14.0871
   XY=              2.2328   XZ=              0.0516   YZ=              0.1104

 Normal termination of Gaussian 09 at Wed Aug 26 12:21:37 2020.
