 Gaussian 09, Revision D.01,
 Gaussian 09:  ES64L-G09RevD.01 24-Apr-2013

 --------------------
 #p B2PLYPD3/Def2QZVP
 --------------------

 --------
 methanol
 --------
 Symbolic Z-matrix:
 Charge =  0 Multiplicity = 1

                         Standard orientation:
 ---------------------------------------------------------------------
 Center     Atomic      Atomic             Coordinates (Angstroms)
 Number     Number       Type             X           Y           Z
 ---------------------------------------------------------------------
      1          6           0        0.681542    0.026575    0.005476
      2          8           0       -0.750403   -0.195407    0.006433
      3          1           0        0.919344    0.555027    0.762365
      4          1           0        1.061679    0.444977   -0.717404
      5          1           0        1.058219   -0.828967   -0.031358
      6          1           0       -1.125270    1.232771   -0.097922
 ---------------------------------------------------------------------

 SCF Done:  E(RB2PLYPD3) =  -115.382440790     A.U. after   12 cycles
 E2(B2PLYPD3) =    -0.1579045350D+00 E(B2PLYPD3) =    -0.11554034532475D+03

 The electronic state is 1-A.
 Alpha  occ. eigenvalues --  -19.75722 -10.60207  -1.10788  -0.82227  -0.56481
 Alpha  occ. eigenvalues --   -0.53914  -0.47673  -0.39471  -0.35550
 Alpha virt. eigenvalues --   -0.02840   0.07490   0.12454   0.13000   0.14545
 Alpha virt. eigenvalues --    0.17460   0.18296   0.21601   0.29524   0.32546
 Alpha virt. eigenvalues --    0.34059   0.38864   0.39543   0.44533   0.45322

 Mulliken charges:
               1
     1  C    0.117350
     2  O   -0.478473
     3  H    0.043536
     4  H    0.041351
     5  H    0.061149
     6  H    0.215087
 Sum of Mulliken charges =   0.00000

 Dipole moment (field-independent basis, Debye):
    X=              1.4099    Y=              1.7553    Z=             -0.1776  Tot=              2.2584
 Quadrupole moment (field-independent basis, Debye-Ang):
   XX=            -13.4026   YY=            -10.9900   ZZ=            -13.9353
   XY=             -2.1851   XZ=             -0.0546   YZ=             -0.0544

 Normal termination of Gaussian 09 at Wed Aug 26 22:02:34 2020.
