 Gaussian 09, Revision D.01,
 Gaussian 09:  ES64L-G09RevD.01 24-Apr-2013

 --------------------
 #p B2PLYPD3/Def2QZVP
 --------------------

 --------
 methanol
 --------
 Symbolic Z-matrix:
 Charge =  0 Multiplicity = 1

                         Standard orientation:
 ---------------------------------------------------------------------
 Center     Atomic      Atomic             Coordinates (Angstroms)
 Number     Number       Type             X           Y           Z
 ---------------------------------------------------------------------
      1          6           0       -0.645962   -0.018752    0.005009
      2          8           0        0.744659    0.092284   -0.008293
      3          1           0       -0.934179   -0.579881    0.972422
      4          1           0       -1.115065   -0.554289   -0.939423
      5          1           0       -1.143320    1.041126    0.032796
      6          1           0        1.111062   -0.532713   -0.029509
 ---------------------------------------------------------------------

 SCF Done:  E(RB2PLYPD3) =  -115.448642505     A.U. after   11 cycles
 E2(B2PLYPD3) =    -0.1442185328D+00 E(B2PLYPD3) =    -0.11559286103772D+03

 The electronic state is 1-A.
 Alpha  occ. eigenvalues --  -19.70401 -10.68545  -1.23894  -0.80942  -0.61722
 Alpha  occ. eigenvalues --   -0.51811  -0.50460  -0.40143  -0.35794
 Alpha virt. eigenvalues --    0.05345   0.08974   0.11851   0.12099   0.14398
 Alpha virt. eigenvalues --    0.17254   0.17912   0.28585   0.32459   0.33996
 Alpha virt. eigenvalues --    0.36010   0.37810   0.38820   0.40513   0.42963

 Mulliken charges:
               1
     1  C    0.048387
     2  O   -0.259247
     3  H    0.047640
     4  H    0.043379
     5  H    0.074589
     6  H    0.045252
 Sum of Mulliken charges =   0.00000

 Dipole moment (field-independent basis, Debye):
    X=             -0.7609    Y=             -1.2147    Z=             -0.0120  Tot=              1.4334
 Quadrupole moment (field-independent basis, Debye-Ang):
   XX=            -12.9629   YY=            -12.7356   ZZ=            -13.6574
   XY=             -2.0710   XZ=              0.0704   YZ=              0.0133

 Normal termination of Gaussian 09 at Wed Aug 26 12:37:30 2020.
