 Gaussian 09, Revision D.01,
 Gaussian 09:  ES64L-G09RevD.01 24-Apr-2013

 --------------------
 #p B2PLYPD3/Def2QZVP
 --------------------

 --------
 methanol
 --------
 Symbolic Z-matrix:
 Charge =  0 Multiplicity = 1

                         Standard orientation:
 ---------------------------------------------------------------------
 Center     Atomic      Atomic             Coordinates (Angstroms)
 Number     Number       Type             X           Y           Z
 ---------------------------------------------------------------------
      1          6           0       -0.663467   -0.009301   -0.007526
      2          8           0        0.746678   -0.052303   -0.042746
      3          1           0       -1.077825    1.102891   -0.442080
      4          1           0       -1.090286   -0.119264    1.103396
      5          1           0       -1.037888   -0.867147   -0.570617
      6          1           0        1.213378    0.357756    0.296425
 ---------------------------------------------------------------------

 SCF Done:  E(RB2PLYPD3) =  -115.414599425     A.U. after   11 cycles
 E2(B2PLYPD3) =    -0.1444952130D+00 E(B2PLYPD3) =    -0.11555909463801D+03

 The electronic state is 1-A.
 Alpha  occ. eigenvalues --  -19.69752 -10.69584  -1.23134  -0.82453  -0.61342
 Alpha  occ. eigenvalues --   -0.51738  -0.49766  -0.39611  -0.35201
 Alpha virt. eigenvalues --    0.05234   0.08936   0.11371   0.12231   0.14423
 Alpha virt. eigenvalues --    0.16735   0.17817   0.28869   0.31640   0.32751
 Alpha virt. eigenvalues --    0.35299   0.37179   0.38904   0.41438   0.41840

 Mulliken charges:
               1
     1  C    0.055445
     2  O   -0.251808
     3  H    0.036000
     4  H    0.040990
     5  H    0.099760
     6  H    0.019613
 Sum of Mulliken charges =   0.00000

 Dipole moment (field-independent basis, Debye):
    X=             -0.6584    Y=              0.7041    Z=              0.7045  Tot=              1.1939
 Quadrupole moment (field-independent basis, Debye-Ang):
   XX=            -12.5763   YY=            -13.0450   ZZ=            -13.5240
   XY=              1.6537   XZ=              1.1639   YZ=              0.4618

 Normal termination of Gaussian 09 at Wed Aug 26 19:21:34 2020.
