 Gaussian 09, Revision D.01,
 Gaussian 09:  ES64L-G09RevD.01 24-Apr-2013

 --------------------
 #p B2PLYPD3/Def2QZVP
 --------------------

 --------
 methanol
 --------
 Symbolic Z-matrix:
 Charge =  0 Multiplicity = 1

                         Standard orientation:
 ---------------------------------------------------------------------
 Center     Atomic      Atomic             Coordinates (Angstroms)
 Number     Number       Type             X           Y           Z
 ---------------------------------------------------------------------
      1          6           0        0.651886    0.045196   -0.009293
      2          8           0       -0.729466   -0.198357    0.006485
      3          1           0        1.117874    0.511052    0.782448
      4          1           0        1.056164    0.503888   -0.761112
      5          1           0        1.122525   -0.811790   -0.008248
      6          1           0       -1.372150    1.112531   -0.009206
 ---------------------------------------------------------------------

 SCF Done:  E(RB2PLYPD3) =  -115.422498767     A.U. after   11 cycles
 E2(B2PLYPD3) =    -0.1567895139D+00 E(B2PLYPD3) =    -0.11557928828105D+03

 The electronic state is 1-A.
 Alpha  occ. eigenvalues --  -19.75953 -10.61754  -1.12156  -0.80686  -0.54423
 Alpha  occ. eigenvalues --   -0.51888  -0.49986  -0.38697  -0.35274
 Alpha virt. eigenvalues --   -0.02679   0.07207   0.12826   0.13277   0.14998
 Alpha virt. eigenvalues --    0.17486   0.18836   0.21305   0.29554   0.34168
 Alpha virt. eigenvalues --    0.35096   0.38657   0.39330   0.42517   0.44458

 Mulliken charges:
               1
     1  C    0.096014
     2  O   -0.470067
     3  H    0.038779
     4  H    0.042992
     5  H    0.055921
     6  H    0.236362
 Sum of Mulliken charges =   0.00000

 Dipole moment (field-independent basis, Debye):
    X=              0.8697    Y=              1.7114    Z=             -0.0734  Tot=              1.9211
 Quadrupole moment (field-independent basis, Debye-Ang):
   XX=            -12.1700   YY=            -11.7483   ZZ=            -14.1882
   XY=             -2.7009   XZ=              0.0027   YZ=             -0.0610

 Normal termination of Gaussian 09 at Wed Aug 26 18:36:50 2020.
