 Gaussian 09, Revision D.01,
 Gaussian 09:  ES64L-G09RevD.01 24-Apr-2013

 --------------------
 #p B2PLYPD3/Def2QZVP
 --------------------

 --------
 methanol
 --------
 Symbolic Z-matrix:
 Charge =  0 Multiplicity = 1

                         Standard orientation:
 ---------------------------------------------------------------------
 Center     Atomic      Atomic             Coordinates (Angstroms)
 Number     Number       Type             X           Y           Z
 ---------------------------------------------------------------------
      1          6           0        0.659092    0.017280    0.013973
      2          8           0       -0.736469   -0.088734   -0.045669
      3          1           0        0.941376    0.054081    1.072580
      4          1           0        1.025515    0.919203   -0.645352
      5          1           0        1.048062   -0.931563   -0.390088
      6          1           0       -1.077752    0.564473    0.244375
 ---------------------------------------------------------------------

 SCF Done:  E(RB2PLYPD3) =  -115.509711319     A.U. after   11 cycles
 E2(B2PLYPD3) =    -0.1445939686D+00 E(B2PLYPD3) =    -0.11565430528786D+03

 The electronic state is 1-A.
 Alpha  occ. eigenvalues --  -19.70628 -10.66809  -1.21212  -0.80144  -0.60482
 Alpha  occ. eigenvalues --   -0.52430  -0.50656  -0.40772  -0.35662
 Alpha virt. eigenvalues --    0.05409   0.09065   0.11802   0.12445   0.14328
 Alpha virt. eigenvalues --    0.17029   0.18035   0.28741   0.32864   0.33610
 Alpha virt. eigenvalues --    0.36876   0.39286   0.40099   0.40907   0.43938

 Mulliken charges:
               1
     1  C    0.058524
     2  O   -0.339490
     3  H    0.053371
     4  H    0.042971
     5  H    0.073661
     6  H    0.110963
 Sum of Mulliken charges =   0.00000

 Dipole moment (field-independent basis, Debye):
    X=              0.8442    Y=              1.1509    Z=              0.5937  Tot=              1.5459
 Quadrupole moment (field-independent basis, Debye-Ang):
   XX=            -13.3113   YY=            -12.5853   ZZ=            -13.3442
   XY=             -1.9319   XZ=             -0.8356   YZ=              0.3032

 Normal termination of Gaussian 09 at Wed Aug 26 10:52:01 2020.
