 Gaussian 09, Revision D.01,
 Gaussian 09:  ES64L-G09RevD.01 24-Apr-2013

 --------------------
 #p B2PLYPD3/Def2QZVP
 --------------------

 --------
 methanol
 --------
 Symbolic Z-matrix:
 Charge =  0 Multiplicity = 1

                         Standard orientation:
 ---------------------------------------------------------------------
 Center     Atomic      Atomic             Coordinates (Angstroms)
 Number     Number       Type             X           Y           Z
 ---------------------------------------------------------------------
      1          6           0       -0.652689    0.009254    0.005803
      2          8           0        0.743724   -0.139375   -0.004879
      3          1           0       -1.057155    0.568566   -0.848977
      4          1           0       -1.025081    0.514343    0.863669
      5          1           0       -1.079826   -0.914866   -0.023281
      6          1           0        1.128405    0.891437    0.012805
 ---------------------------------------------------------------------

 SCF Done:  E(RB2PLYPD3) =  -115.531693768     A.U. after   11 cycles
 E2(B2PLYPD3) =    -0.1495262276D+00 E(B2PLYPD3) =    -0.11568121999577D+03

 The electronic state is 1-A.
 Alpha  occ. eigenvalues --  -19.73881 -10.64243  -1.14603  -0.78565  -0.57419
 Alpha  occ. eigenvalues --   -0.51428  -0.50385  -0.41219  -0.34963
 Alpha virt. eigenvalues --    0.03656   0.07858   0.12601   0.12695   0.15030
 Alpha virt. eigenvalues --    0.17595   0.18211   0.28774   0.30129   0.33333
 Alpha virt. eigenvalues --    0.34684   0.38822   0.40558   0.41128   0.43744

 Mulliken charges:
               1
     1  C    0.077729
     2  O   -0.475670
     3  H    0.035512
     4  H    0.041080
     5  H    0.068910
     6  H    0.252439
 Sum of Mulliken charges =   0.00000

 Dipole moment (field-independent basis, Debye):
    X=             -0.8862    Y=              1.5903    Z=              0.0609  Tot=              1.8216
 Quadrupole moment (field-independent basis, Debye-Ang):
   XX=            -13.1108   YY=            -11.9028   ZZ=            -13.9753
   XY=              2.3761   XZ=              0.0233   YZ=              0.0572

 Normal termination of Gaussian 09 at Thu Aug 27 00:04:59 2020.
