 Gaussian 09, Revision D.01,
 Gaussian 09:  ES64L-G09RevD.01 24-Apr-2013

 --------------------
 #p B2PLYPD3/Def2QZVP
 --------------------

 --------
 methanol
 --------
 Symbolic Z-matrix:
 Charge =  0 Multiplicity = 1

                         Standard orientation:
 ---------------------------------------------------------------------
 Center     Atomic      Atomic             Coordinates (Angstroms)
 Number     Number       Type             X           Y           Z
 ---------------------------------------------------------------------
      1          6           0       -0.662149    0.018960    0.013040
      2          8           0        0.738331   -0.091338   -0.030153
      3          1           0       -0.901686    0.939327   -0.686206
      4          1           0       -1.056158    0.100092    1.038965
      5          1           0       -1.070406   -0.937647   -0.423198
      6          1           0        1.094497    0.515174    0.233423
 ---------------------------------------------------------------------

 SCF Done:  E(RB2PLYPD3) =  -115.478497539     A.U. after   10 cycles
 E2(B2PLYPD3) =    -0.1441764209D+00 E(B2PLYPD3) =    -0.11562267395950D+03

 The electronic state is 1-A.
 Alpha  occ. eigenvalues --  -19.70110 -10.67418  -1.22370  -0.80735  -0.61032
 Alpha  occ. eigenvalues --   -0.52347  -0.50458  -0.40599  -0.35671
 Alpha virt. eigenvalues --    0.05396   0.09143   0.11802   0.12274   0.14299
 Alpha virt. eigenvalues --    0.17005   0.17890   0.28732   0.32271   0.33751
 Alpha virt. eigenvalues --    0.36917   0.38562   0.40408   0.40680   0.43184

 Mulliken charges:
               1
     1  C    0.054684
     2  O   -0.296877
     3  H    0.042893
     4  H    0.056023
     5  H    0.075734
     6  H    0.067542
 Sum of Mulliken charges =   0.00000

 Dipole moment (field-independent basis, Debye):
    X=             -0.8403    Y=              1.1229    Z=              0.5636  Tot=              1.5115
 Quadrupole moment (field-independent basis, Debye-Ang):
   XX=            -13.1794   YY=            -12.6871   ZZ=            -13.3436
   XY=              2.0158   XZ=              0.5918   YZ=              0.3133

 Normal termination of Gaussian 09 at Wed Aug 26 14:28:00 2020.
