 Gaussian 09, Revision D.01,
 Gaussian 09:  ES64L-G09RevD.01 24-Apr-2013

 --------------------
 #p B2PLYPD3/Def2QZVP
 --------------------

 --------
 methanol
 --------
 Symbolic Z-matrix:
 Charge =  0 Multiplicity = 1

                         Standard orientation:
 ---------------------------------------------------------------------
 Center     Atomic      Atomic             Coordinates (Angstroms)
 Number     Number       Type             X           Y           Z
 ---------------------------------------------------------------------
      1          6           0        0.665416    0.019196   -0.001189
      2          8           0       -0.747539   -0.142575    0.000350
      3          1           0        1.025659    0.509628    0.883550
      4          1           0        0.978333    0.564955   -0.866238
      5          1           0        1.143577   -0.895099   -0.029073
      6          1           0       -1.159754    0.845941    0.016096
 ---------------------------------------------------------------------

 SCF Done:  E(RB2PLYPD3) =  -115.538374922     A.U. after   11 cycles
 E2(B2PLYPD3) =    -0.1489892544D+00 E(B2PLYPD3) =    -0.11568736417632D+03

 The electronic state is 1-A.
 Alpha  occ. eigenvalues --  -19.73383 -10.64385  -1.14156  -0.78806  -0.56910
 Alpha  occ. eigenvalues --   -0.52062  -0.50347  -0.40782  -0.35156
 Alpha virt. eigenvalues --    0.04075   0.07888   0.12452   0.12832   0.14656
 Alpha virt. eigenvalues --    0.17789   0.18179   0.29096   0.30847   0.33248
 Alpha virt. eigenvalues --    0.33685   0.39427   0.40900   0.41476   0.43439

 Mulliken charges:
               1
     1  C    0.079399
     2  O   -0.485900
     3  H    0.044273
     4  H    0.044227
     5  H    0.068341
     6  H    0.249661
 Sum of Mulliken charges =   0.00000

 Dipole moment (field-independent basis, Debye):
    X=              0.9215    Y=              1.5792    Z=              0.0183  Tot=              1.8285
 Quadrupole moment (field-independent basis, Debye-Ang):
   XX=            -12.9265   YY=            -12.1139   ZZ=            -13.8136
   XY=             -2.4880   XZ=             -0.0070   YZ=              0.0132

 Normal termination of Gaussian 09 at Thu Aug 27 00:02:31 2020.
