 Gaussian 09, Revision D.01,
 Gaussian 09:  ES64L-G09RevD.01 24-Apr-2013

 --------------------
 #p B2PLYPD3/Def2QZVP
 --------------------

 --------
 methanol
 --------
 Symbolic Z-matrix:
 Charge =  0 Multiplicity = 1

                         Standard orientation:
 ---------------------------------------------------------------------
 Center     Atomic      Atomic             Coordinates (Angstroms)
 Number     Number       Type             X           Y           Z
 ---------------------------------------------------------------------
      1          6           0       -0.663782    0.016930    0.011711
      2          8           0        0.748081   -0.135047   -0.007170
      3          1           0       -1.039576    0.578718   -0.883184
      4          1           0       -0.966034    0.505787    0.912713
      5          1           0       -1.166728   -0.894087   -0.043981
      6          1           0        1.170386    0.788381    0.001545
 ---------------------------------------------------------------------

 SCF Done:  E(RB2PLYPD3) =  -115.545688798     A.U. after   10 cycles
 E2(B2PLYPD3) =    -0.1480712438D+00 E(B2PLYPD3) =    -0.11569376004182D+03

 The electronic state is 1-A.
 Alpha  occ. eigenvalues --  -19.72985 -10.65118  -1.15033  -0.78777  -0.57555
 Alpha  occ. eigenvalues --   -0.52059  -0.50498  -0.40513  -0.35182
 Alpha virt. eigenvalues --    0.04584   0.07952   0.12300   0.12882   0.14527
 Alpha virt. eigenvalues --    0.17833   0.18199   0.29152   0.32382   0.33193
 Alpha virt. eigenvalues --    0.33555   0.39026   0.40760   0.41413   0.43632

 Mulliken charges:
               1
     1  C    0.073969
     2  O   -0.476169
     3  H    0.038959
     4  H    0.049159
     5  H    0.071450
     6  H    0.242631
 Sum of Mulliken charges =   0.00000

 Dipole moment (field-independent basis, Debye):
    X=             -0.8659    Y=              1.5075    Z=              0.0575  Tot=              1.7395
 Quadrupole moment (field-independent basis, Debye-Ang):
   XX=            -12.8182   YY=            -12.3272   ZZ=            -13.7829
   XY=              2.5180   XZ=              0.0494   YZ=              0.0724

 Normal termination of Gaussian 09 at Wed Aug 26 13:11:37 2020.
