 Gaussian 09, Revision D.01,
 Gaussian 09:  ES64L-G09RevD.01 24-Apr-2013

 --------------------
 #p B2PLYPD3/Def2QZVP
 --------------------

 --------
 methanol
 --------
 Symbolic Z-matrix:
 Charge =  0 Multiplicity = 1

                         Standard orientation:
 ---------------------------------------------------------------------
 Center     Atomic      Atomic             Coordinates (Angstroms)
 Number     Number       Type             X           Y           Z
 ---------------------------------------------------------------------
      1          6           0       -0.652133   -0.019504    0.002213
      2          8           0        0.745403    0.103897   -0.011274
      3          1           0       -1.039495   -0.458420    0.937752
      4          1           0       -0.999115   -0.660652   -0.870370
      5          1           0       -1.104104    1.035678   -0.077703
      6          1           0        1.092292   -0.630758    0.087234
 ---------------------------------------------------------------------

 SCF Done:  E(RB2PLYPD3) =  -115.524898485     A.U. after   10 cycles
 E2(B2PLYPD3) =    -0.1451084596D+00 E(B2PLYPD3) =    -0.11567000694414D+03

 The electronic state is 1-A.
 Alpha  occ. eigenvalues --  -19.71337 -10.67031  -1.20487  -0.79487  -0.60960
 Alpha  occ. eigenvalues --   -0.51868  -0.50068  -0.40994  -0.35665
 Alpha virt. eigenvalues --    0.05335   0.08806   0.12106   0.12189   0.14801
 Alpha virt. eigenvalues --    0.17270   0.17888   0.28924   0.32928   0.33935
 Alpha virt. eigenvalues --    0.37125   0.38374   0.40016   0.40306   0.42986

 Mulliken charges:
               1
     1  C    0.061272
     2  O   -0.363218
     3  H    0.048555
     4  H    0.045201
     5  H    0.069070
     6  H    0.139121
 Sum of Mulliken charges =   0.00000

 Dipole moment (field-independent basis, Debye):
    X=             -0.8381    Y=             -1.3715    Z=              0.2226  Tot=              1.6226
 Quadrupole moment (field-independent basis, Debye-Ang):
   XX=            -13.1414   YY=            -12.4232   ZZ=            -13.7130
   XY=             -2.0621   XZ=              0.1691   YZ=             -0.1210

 Normal termination of Gaussian 09 at Wed Aug 26 11:12:59 2020.
