 Gaussian 09, Revision D.01,
 Gaussian 09:  ES64L-G09RevD.01 24-Apr-2013

 --------------------
 #p B2PLYPD3/Def2QZVP
 --------------------

 --------
 methanol
 --------
 Symbolic Z-matrix:
 Charge =  0 Multiplicity = 1

                         Standard orientation:
 ---------------------------------------------------------------------
 Center     Atomic      Atomic             Coordinates (Angstroms)
 Number     Number       Type             X           Y           Z
 ---------------------------------------------------------------------
      1          6           0        0.666179    0.028050   -0.019053
      2          8           0       -0.736683   -0.150502    0.023215
      3          1           0        1.071934    0.596986    0.830892
      4          1           0        0.935245    0.484719   -0.821507
      5          1           0        1.092050   -0.935851   -0.002858
      6          1           0       -1.202840    0.889859   -0.077932
 ---------------------------------------------------------------------

 SCF Done:  E(RB2PLYPD3) =  -115.514068045     A.U. after   11 cycles
 E2(B2PLYPD3) =    -0.1501701615D+00 E(B2PLYPD3) =    -0.11566423820629D+03

 The electronic state is 1-A.
 Alpha  occ. eigenvalues --  -19.73754 -10.63510  -1.13466  -0.79012  -0.57130
 Alpha  occ. eigenvalues --   -0.52196  -0.49493  -0.40717  -0.35017
 Alpha virt. eigenvalues --    0.03224   0.07768   0.12556   0.12753   0.15045
 Alpha virt. eigenvalues --    0.17371   0.18145   0.28024   0.29708   0.33198
 Alpha virt. eigenvalues --    0.34334   0.39293   0.39651   0.41435   0.44865

 Mulliken charges:
               1
     1  C    0.084364
     2  O   -0.491722
     3  H    0.040298
     4  H    0.049385
     5  H    0.066119
     6  H    0.251555
 Sum of Mulliken charges =   0.00000

 Dipole moment (field-independent basis, Debye):
    X=              0.8626    Y=              1.6481    Z=             -0.2838  Tot=              1.8817
 Quadrupole moment (field-independent basis, Debye-Ang):
   XX=            -12.8701   YY=            -11.9156   ZZ=            -13.8841
   XY=             -2.4316   XZ=              0.1649   YZ=             -0.1923

 Normal termination of Gaussian 09 at Wed Aug 26 10:54:25 2020.
