 Gaussian 09, Revision D.01,
 Gaussian 09:  ES64L-G09RevD.01 24-Apr-2013

 --------------------
 #p B2PLYPD3/Def2QZVP
 --------------------

 --------
 methanol
 --------
 Symbolic Z-matrix:
 Charge =  0 Multiplicity = 1

                         Standard orientation:
 ---------------------------------------------------------------------
 Center     Atomic      Atomic             Coordinates (Angstroms)
 Number     Number       Type             X           Y           Z
 ---------------------------------------------------------------------
      1          6           0       -0.665022   -0.009401    0.004928
      2          8           0        0.744600    0.094957   -0.019922
      3          1           0       -0.998283   -0.363329    1.010019
      4          1           0       -1.005698   -0.737185   -0.839393
      5          1           0       -1.048414    1.002074   -0.162485
      6          1           0        1.085725   -0.604807    0.121667
 ---------------------------------------------------------------------

 SCF Done:  E(RB2PLYPD3) =  -115.511094609     A.U. after   10 cycles
 E2(B2PLYPD3) =    -0.1446940843D+00 E(B2PLYPD3) =    -0.11565578869305D+03

 The electronic state is 1-A.
 Alpha  occ. eigenvalues --  -19.70663 -10.67023  -1.20828  -0.80098  -0.60514
 Alpha  occ. eigenvalues --   -0.51688  -0.50703  -0.41244  -0.35561
 Alpha virt. eigenvalues --    0.05392   0.09006   0.11904   0.12325   0.14557
 Alpha virt. eigenvalues --    0.17028   0.17789   0.28883   0.32804   0.33277
 Alpha virt. eigenvalues --    0.37225   0.39325   0.39937   0.40369   0.43296

 Mulliken charges:
               1
     1  C    0.062111
     2  O   -0.344888
     3  H    0.049341
     4  H    0.043127
     5  H    0.079737
     6  H    0.110573
 Sum of Mulliken charges =   0.00000

 Dipole moment (field-independent basis, Debye):
    X=             -0.8941    Y=             -1.2599    Z=              0.3084  Tot=              1.5754
 Quadrupole moment (field-independent basis, Debye-Ang):
   XX=            -13.2582   YY=            -12.4086   ZZ=            -13.5472
   XY=             -2.0687   XZ=              0.3432   YZ=             -0.1976

 Normal termination of Gaussian 09 at Thu Aug 27 00:06:33 2020.
