 Gaussian 09, Revision D.01,
 Gaussian 09:  ES64L-G09RevD.01 24-Apr-2013

 --------------------
 #p B2PLYPD3/Def2QZVP
 --------------------

 --------
 methanol
 --------
 Symbolic Z-matrix:
 Charge =  0 Multiplicity = 1

                         Standard orientation:
 ---------------------------------------------------------------------
 Center     Atomic      Atomic             Coordinates (Angstroms)
 Number     Number       Type             X           Y           Z
 ---------------------------------------------------------------------
      1          6           0       -0.660920   -0.055242    0.018463
      2          8           0        0.718463    0.118829   -0.024004
      3          1           0       -0.806184   -0.464165    0.903845
      4          1           0       -0.982449   -0.665963   -0.820748
      5          1           0       -1.146112    1.096041   -0.059003
      6          1           0        1.152565   -0.585086    0.057163
 ---------------------------------------------------------------------

 SCF Done:  E(RB2PLYPD3) =  -115.508289880     A.U. after   11 cycles
 E2(B2PLYPD3) =    -0.1448802187D+00 E(B2PLYPD3) =    -0.11565317009846D+03

 The electronic state is 1-A.
 Alpha  occ. eigenvalues --  -19.70500 -10.65978  -1.19882  -0.80320  -0.61052
 Alpha  occ. eigenvalues --   -0.54547  -0.48855  -0.39475  -0.35625
 Alpha virt. eigenvalues --    0.05277   0.08880   0.11594   0.12416   0.14790
 Alpha virt. eigenvalues --    0.17075   0.17482   0.29052   0.32775   0.33825
 Alpha virt. eigenvalues --    0.34615   0.38726   0.40612   0.41779   0.46411

 Mulliken charges:
               1
     1  C    0.070136
     2  O   -0.383929
     3  H    0.060460
     4  H    0.051822
     5  H    0.055012
     6  H    0.146498
 Sum of Mulliken charges =   0.00000

 Dipole moment (field-independent basis, Debye):
    X=             -0.6769    Y=             -1.5126    Z=              0.2411  Tot=              1.6746
 Quadrupole moment (field-independent basis, Debye-Ang):
   XX=            -13.0409   YY=            -12.4491   ZZ=            -13.5158
   XY=             -2.0355   XZ=              0.3087   YZ=             -0.1063

 Normal termination of Gaussian 09 at Wed Aug 26 21:08:24 2020.
