 Gaussian 09, Revision D.01,
 Gaussian 09:  ES64L-G09RevD.01 24-Apr-2013

 --------------------
 #p B2PLYPD3/Def2QZVP
 --------------------

 --------
 methanol
 --------
 Symbolic Z-matrix:
 Charge =  0 Multiplicity = 1

                         Standard orientation:
 ---------------------------------------------------------------------
 Center     Atomic      Atomic             Coordinates (Angstroms)
 Number     Number       Type             X           Y           Z
 ---------------------------------------------------------------------
      1          6           0        0.661474   -0.014662    0.002020
      2          8           0       -0.754304    0.113821   -0.000186
      3          1           0        0.988843   -0.610224   -0.880466
      4          1           0        1.067898   -0.473439    0.919206
      5          1           0        1.084014    0.988673   -0.080216
      6          1           0       -1.075171   -0.727605    0.030839
 ---------------------------------------------------------------------

 SCF Done:  E(RB2PLYPD3) =  -115.549286953     A.U. after   10 cycles
 E2(B2PLYPD3) =    -0.1464857669D+00 E(B2PLYPD3) =    -0.11569577271996D+03

 The electronic state is 1-A.
 Alpha  occ. eigenvalues --  -19.72196 -10.66117  -1.17734  -0.78857  -0.59418
 Alpha  occ. eigenvalues --   -0.51707  -0.50001  -0.41579  -0.35570
 Alpha virt. eigenvalues --    0.05162   0.08483   0.12209   0.12384   0.14764
 Alpha virt. eigenvalues --    0.17398   0.18031   0.29025   0.32937   0.33393
 Alpha virt. eigenvalues --    0.36588   0.38687   0.40005   0.40474   0.43848

 Mulliken charges:
               1
     1  C    0.066434
     2  O   -0.428398
     3  H    0.044598
     4  H    0.048612
     5  H    0.071072
     6  H    0.197681
 Sum of Mulliken charges =   0.00000

 Dipole moment (field-independent basis, Debye):
    X=              0.9641    Y=             -1.4488    Z=              0.0564  Tot=              1.7412
 Quadrupole moment (field-independent basis, Debye-Ang):
   XX=            -13.2623   YY=            -12.2303   ZZ=            -13.7429
   XY=              2.1518   XZ=             -0.0073   YZ=             -0.0574

 Normal termination of Gaussian 09 at Thu Aug 27 00:08:41 2020.
