 Gaussian 09, Revision D.01,
 Gaussian 09:  ES64L-G09RevD.01 24-Apr-2013

 --------------------
 #p B2PLYPD3/Def2QZVP
 --------------------

 --------
 methanol
 --------
 Symbolic Z-matrix:
 Charge =  0 Multiplicity = 1

                         Standard orientation:
 ---------------------------------------------------------------------
 Center     Atomic      Atomic             Coordinates (Angstroms)
 Number     Number       Type             X           Y           Z
 ---------------------------------------------------------------------
      1          6           0        0.663961    0.046466   -0.003353
      2          8           0       -0.718581   -0.199846    0.009990
      3          1           0        1.022766    0.512283    0.747997
      4          1           0        1.048222    0.502706   -0.683951
      5          1           0        0.953738   -0.903792   -0.060237
      6          1           0       -1.259845    1.208772   -0.063614
 ---------------------------------------------------------------------

 SCF Done:  E(RB2PLYPD3) =  -115.382301976     A.U. after   12 cycles
 E2(B2PLYPD3) =    -0.1580551293D+00 E(B2PLYPD3) =    -0.11554035710518D+03

 The electronic state is 1-A.
 Alpha  occ. eigenvalues --  -19.75967 -10.60518  -1.12398  -0.81465  -0.56877
 Alpha  occ. eigenvalues --   -0.53751  -0.48383  -0.38421  -0.35548
 Alpha virt. eigenvalues --   -0.03320   0.07473   0.12150   0.13387   0.15187
 Alpha virt. eigenvalues --    0.16847   0.18319   0.21136   0.29582   0.33919
 Alpha virt. eigenvalues --    0.34837   0.38010   0.38674   0.44353   0.46613

 Mulliken charges:
               1
     1  C    0.095890
     2  O   -0.451919
     3  H    0.041467
     4  H    0.050093
     5  H    0.062375
     6  H    0.202094
 Sum of Mulliken charges =   0.00000

 Dipole moment (field-independent basis, Debye):
    X=              1.1598    Y=              1.7351    Z=             -0.1431  Tot=              2.0920
 Quadrupole moment (field-independent basis, Debye-Ang):
   XX=            -13.0907   YY=            -11.1403   ZZ=            -14.0952
   XY=             -2.1097   XZ=              0.0257   YZ=             -0.0550

 Normal termination of Gaussian 09 at Wed Aug 26 20:45:56 2020.
