 Gaussian 09, Revision D.01,
 Gaussian 09:  ES64L-G09RevD.01 24-Apr-2013

 --------------------
 #p B2PLYPD3/Def2QZVP
 --------------------

 --------
 methanol
 --------
 Symbolic Z-matrix:
 Charge =  0 Multiplicity = 1

                         Standard orientation:
 ---------------------------------------------------------------------
 Center     Atomic      Atomic             Coordinates (Angstroms)
 Number     Number       Type             X           Y           Z
 ---------------------------------------------------------------------
      1          6           0        0.698675   -0.017790    0.033292
      2          8           0       -0.762198    0.068901   -0.019418
      3          1           0        1.086780   -0.754634   -0.861910
      4          1           0        0.931594   -0.415968    0.976758
      5          1           0        1.046691    1.153249   -0.188496
      6          1           0       -1.159530   -0.427109    0.029237
 ---------------------------------------------------------------------

 SCF Done:  E(RB2PLYPD3) =  -115.292024607     A.U. after   11 cycles
 E2(B2PLYPD3) =    -0.1440645039D+00 E(B2PLYPD3) =    -0.11543608911078D+03

 The electronic state is 1-A.
 Alpha  occ. eigenvalues --  -19.68075 -10.69580  -1.24971  -0.82488  -0.61612
 Alpha  occ. eigenvalues --   -0.51720  -0.48586  -0.39860  -0.36214
 Alpha virt. eigenvalues --    0.05076   0.09345   0.10974   0.11778   0.14315
 Alpha virt. eigenvalues --    0.16508   0.17325   0.28703   0.30395   0.32495
 Alpha virt. eigenvalues --    0.34317   0.36042   0.40646   0.41569   0.42108

 Mulliken charges:
               1
     1  C    0.061931
     2  O   -0.224195
     3  H    0.047593
     4  H    0.077698
     5  H    0.086103
     6  H   -0.049129
 Sum of Mulliken charges =   0.00000

 Dipole moment (field-independent basis, Debye):
    X=              1.0293    Y=             -1.1376    Z=              0.2535  Tot=              1.5549
 Quadrupole moment (field-independent basis, Debye-Ang):
   XX=            -12.9260   YY=            -12.5033   ZZ=            -13.4329
   XY=              1.7670   XZ=             -0.1567   YZ=             -0.2196

 Normal termination of Gaussian 09 at Wed Aug 26 18:54:42 2020.
