 Gaussian 09, Revision D.01,
 Gaussian 09:  ES64L-G09RevD.01 24-Apr-2013

 --------------------
 #p B2PLYPD3/Def2QZVP
 --------------------

 --------
 methanol
 --------
 Symbolic Z-matrix:
 Charge =  0 Multiplicity = 1

                         Standard orientation:
 ---------------------------------------------------------------------
 Center     Atomic      Atomic             Coordinates (Angstroms)
 Number     Number       Type             X           Y           Z
 ---------------------------------------------------------------------
      1          6           0        0.656615    0.012302    0.000293
      2          8           0       -0.741701   -0.139787   -0.006208
      3          1           0        1.055655    0.476950    0.875218
      4          1           0        1.006102    0.617434   -0.838214
      5          1           0        1.092232   -0.914834   -0.047037
      6          1           0       -1.160070    0.864942    0.057938
 ---------------------------------------------------------------------

 SCF Done:  E(RB2PLYPD3) =  -115.534735863     A.U. after   11 cycles
 E2(B2PLYPD3) =    -0.1492596685D+00 E(B2PLYPD3) =    -0.11568399553173D+03

 The electronic state is 1-A.
 Alpha  occ. eigenvalues --  -19.73668 -10.64336  -1.14503  -0.78572  -0.57396
 Alpha  occ. eigenvalues --   -0.51576  -0.50335  -0.41014  -0.34932
 Alpha virt. eigenvalues --    0.03804   0.07866   0.12585   0.12723   0.14991
 Alpha virt. eigenvalues --    0.17534   0.18200   0.28968   0.30399   0.33251
 Alpha virt. eigenvalues --    0.34560   0.39048   0.40346   0.41307   0.43747

 Mulliken charges:
               1
     1  C    0.077805
     2  O   -0.479146
     3  H    0.040914
     4  H    0.038522
     5  H    0.069920
     6  H    0.251984
 Sum of Mulliken charges =   0.00000

 Dipole moment (field-independent basis, Debye):
    X=              0.8480    Y=              1.5800    Z=              0.1254  Tot=              1.7975
 Quadrupole moment (field-independent basis, Debye-Ang):
   XX=            -12.9636   YY=            -11.9876   ZZ=            -13.9541
   XY=             -2.4317   XZ=             -0.0723   YZ=              0.0817

 Normal termination of Gaussian 09 at Thu Aug 27 00:08:40 2020.
