 Gaussian 09, Revision D.01,
 Gaussian 09:  ES64L-G09RevD.01 24-Apr-2013

 --------------------
 #p B2PLYPD3/Def2QZVP
 --------------------

 --------
 methanol
 --------
 Symbolic Z-matrix:
 Charge =  0 Multiplicity = 1

                         Standard orientation:
 ---------------------------------------------------------------------
 Center     Atomic      Atomic             Coordinates (Angstroms)
 Number     Number       Type             X           Y           Z
 ---------------------------------------------------------------------
      1          6           0        0.657317    0.033175    0.005993
      2          8           0       -0.739489   -0.146374   -0.003242
      3          1           0        1.018826    0.498996    0.842472
      4          1           0        1.002144    0.560359   -0.841825
      5          1           0        1.116918   -0.949995   -0.030647
      6          1           0       -1.165877    0.862580    0.019975
 ---------------------------------------------------------------------

 SCF Done:  E(RB2PLYPD3) =  -115.533187968     A.U. after   11 cycles
 E2(B2PLYPD3) =    -0.1493017155D+00 E(B2PLYPD3) =    -0.11568248968333D+03

 The electronic state is 1-A.
 Alpha  occ. eigenvalues --  -19.73627 -10.64074  -1.14359  -0.78624  -0.57302
 Alpha  occ. eigenvalues --   -0.52625  -0.49503  -0.40597  -0.35285
 Alpha virt. eigenvalues --    0.03809   0.07864   0.12558   0.12685   0.14960
 Alpha virt. eigenvalues --    0.17542   0.18258   0.28873   0.30240   0.33507
 Alpha virt. eigenvalues --    0.34555   0.38811   0.39926   0.42410   0.44262

 Mulliken charges:
               1
     1  C    0.080562
     2  O   -0.481877
     3  H    0.047300
     4  H    0.043947
     5  H    0.060400
     6  H    0.249667
 Sum of Mulliken charges =   0.00000

 Dipole moment (field-independent basis, Debye):
    X=              0.8645    Y=              1.6568    Z=              0.0623  Tot=              1.8698
 Quadrupole moment (field-independent basis, Debye-Ang):
   XX=            -12.9495   YY=            -12.0364   ZZ=            -13.8561
   XY=             -2.3567   XZ=             -0.0064   YZ=              0.0525

 Normal termination of Gaussian 09 at Wed Aug 26 10:36:03 2020.
