 Gaussian 09, Revision D.01,
 Gaussian 09:  ES64L-G09RevD.01 24-Apr-2013

 --------------------
 #p B2PLYPD3/Def2QZVP
 --------------------

 --------
 methanol
 --------
 Symbolic Z-matrix:
 Charge =  0 Multiplicity = 1

                         Standard orientation:
 ---------------------------------------------------------------------
 Center     Atomic      Atomic             Coordinates (Angstroms)
 Number     Number       Type             X           Y           Z
 ---------------------------------------------------------------------
      1          6           0       -0.695183   -0.004545   -0.020496
      2          8           0        0.732651   -0.189391    0.014549
      3          1           0       -1.085041    0.376636   -0.785778
      4          1           0       -0.932096    0.698745    0.798003
      5          1           0       -0.936550   -0.709484    0.123821
      6          1           0        1.263576    1.176502   -0.129464
 ---------------------------------------------------------------------

 SCF Done:  E(RB2PLYPD3) =  -115.293336246     A.U. after   12 cycles
 E2(B2PLYPD3) =    -0.1576364779D+00 E(B2PLYPD3) =    -0.11545097272363D+03

 The electronic state is 1-A.
 Alpha  occ. eigenvalues --  -19.75334 -10.60416  -1.11202  -0.82679  -0.59113
 Alpha  occ. eigenvalues --   -0.51857  -0.48181  -0.39717  -0.34688
 Alpha virt. eigenvalues --   -0.02651   0.07479   0.12625   0.13065   0.14365
 Alpha virt. eigenvalues --    0.17225   0.18322   0.21746   0.29375   0.32264
 Alpha virt. eigenvalues --    0.34258   0.36126   0.41552   0.42319   0.45569

 Mulliken charges:
               1
     1  C   -0.104516
     2  O   -0.481517
     3  H    0.057526
     4  H    0.048326
     5  H    0.254381
     6  H    0.225799
 Sum of Mulliken charges =   0.00000

 Dipole moment (field-independent basis, Debye):
    X=             -1.1301    Y=              1.6517    Z=             -0.2688  Tot=              2.0193
 Quadrupole moment (field-independent basis, Debye-Ang):
   XX=            -12.9410   YY=            -11.1714   ZZ=            -13.8852
   XY=              2.5808   XZ=              0.0149   YZ=             -0.2997

 Normal termination of Gaussian 09 at Wed Aug 26 23:56:09 2020.
