 Gaussian 09, Revision D.01,
 Gaussian 09:  ES64L-G09RevD.01 24-Apr-2013

 --------------------
 #p B2PLYPD3/Def2QZVP
 --------------------

 --------
 methanol
 --------
 Symbolic Z-matrix:
 Charge =  0 Multiplicity = 1

                         Standard orientation:
 ---------------------------------------------------------------------
 Center     Atomic      Atomic             Coordinates (Angstroms)
 Number     Number       Type             X           Y           Z
 ---------------------------------------------------------------------
      1          6           0        0.680245    0.019397   -0.006725
      2          8           0       -0.757197   -0.186167   -0.007888
      3          1           0        0.974334    0.444665    0.860879
      4          1           0        1.168815    0.537963   -0.731962
      5          1           0        1.050711   -0.790671   -0.015250
      6          1           0       -1.217753    1.180991   -0.010210
 ---------------------------------------------------------------------

 SCF Done:  E(RB2PLYPD3) =  -115.407005149     A.U. after   12 cycles
 E2(B2PLYPD3) =    -0.1573007499D+00 E(B2PLYPD3) =    -0.11556430589868D+03

 The electronic state is 1-A.
 Alpha  occ. eigenvalues --  -19.75820 -10.61471  -1.10691  -0.81415  -0.55090
 Alpha  occ. eigenvalues --   -0.52111  -0.48558  -0.39821  -0.35386
 Alpha virt. eigenvalues --   -0.02122   0.07310   0.12632   0.13025   0.14518
 Alpha virt. eigenvalues --    0.17441   0.18723   0.21808   0.29328   0.32412
 Alpha virt. eigenvalues --    0.34527   0.38151   0.40052   0.42765   0.43878

 Mulliken charges:
               1
     1  C    0.075471
     2  O   -0.482147
     3  H    0.044791
     4  H    0.041796
     5  H    0.087203
     6  H    0.232886
 Sum of Mulliken charges =   0.00000

 Dipole moment (field-independent basis, Debye):
    X=              1.2094    Y=              1.6904    Z=              0.0189  Tot=              2.0786
 Quadrupole moment (field-independent basis, Debye-Ang):
   XX=            -12.9352   YY=            -11.3254   ZZ=            -14.0333
   XY=             -2.4896   XZ=             -0.1154   YZ=             -0.0185

 Normal termination of Gaussian 09 at Wed Aug 26 22:40:09 2020.
