 Gaussian 09, Revision D.01,
 Gaussian 09:  ES64L-G09RevD.01 24-Apr-2013

 --------------------
 #p B2PLYPD3/Def2QZVP
 --------------------

 --------
 methanol
 --------
 Symbolic Z-matrix:
 Charge =  0 Multiplicity = 1

                         Standard orientation:
 ---------------------------------------------------------------------
 Center     Atomic      Atomic             Coordinates (Angstroms)
 Number     Number       Type             X           Y           Z
 ---------------------------------------------------------------------
      1          6           0        0.674696   -0.029840    0.003856
      2          8           0       -0.753672    0.111349   -0.002800
      3          1           0        1.013074   -0.594617   -0.872309
      4          1           0        1.042086   -0.470034    0.911731
      5          1           0        1.054867    1.045351   -0.066041
      6          1           0       -1.128830   -0.692456    0.025885
 ---------------------------------------------------------------------

 SCF Done:  E(RB2PLYPD3) =  -115.545791632     A.U. after   10 cycles
 E2(B2PLYPD3) =    -0.1463569551D+00 E(B2PLYPD3) =    -0.11569214858702D+03

 The electronic state is 1-A.
 Alpha  occ. eigenvalues --  -19.71749 -10.66274  -1.17309  -0.79100  -0.59497
 Alpha  occ. eigenvalues --   -0.52187  -0.48941  -0.41071  -0.35810
 Alpha virt. eigenvalues --    0.05250   0.08515   0.12056   0.12317   0.14807
 Alpha virt. eigenvalues --    0.17020   0.18069   0.29045   0.32710   0.33505
 Alpha virt. eigenvalues --    0.37341   0.37696   0.39921   0.41214   0.43122

 Mulliken charges:
               1
     1  C    0.066338
     2  O   -0.432418
     3  H    0.053281
     4  H    0.057569
     5  H    0.067356
     6  H    0.187874
 Sum of Mulliken charges =   0.00000

 Dipole moment (field-independent basis, Debye):
    X=              0.9329    Y=             -1.4823    Z=              0.0689  Tot=              1.7528
 Quadrupole moment (field-independent basis, Debye-Ang):
   XX=            -13.0867   YY=            -12.2970   ZZ=            -13.6715
   XY=              2.0765   XZ=             -0.0258   YZ=             -0.0451

 Normal termination of Gaussian 09 at Thu Aug 27 00:14:55 2020.
