 Gaussian 09, Revision D.01,
 Gaussian 09:  ES64L-G09RevD.01 24-Apr-2013

 --------------------
 #p B2PLYPD3/Def2QZVP
 --------------------

 --------
 methanol
 --------
 Symbolic Z-matrix:
 Charge =  0 Multiplicity = 1

                         Standard orientation:
 ---------------------------------------------------------------------
 Center     Atomic      Atomic             Coordinates (Angstroms)
 Number     Number       Type             X           Y           Z
 ---------------------------------------------------------------------
      1          6           0        0.653296   -0.020079    0.009827
      2          8           0       -0.740378    0.132081   -0.012915
      3          1           0        1.058245   -0.610709   -0.843540
      4          1           0        0.993809   -0.500603    0.869827
      5          1           0        1.117916    0.966958   -0.028756
      6          1           0       -1.166719   -0.791822    0.046832
 ---------------------------------------------------------------------

 SCF Done:  E(RB2PLYPD3) =  -115.546669732     A.U. after   10 cycles
 E2(B2PLYPD3) =    -0.1480084722D+00 E(B2PLYPD3) =    -0.11569467820383D+03

 The electronic state is 1-A.
 Alpha  occ. eigenvalues --  -19.73159 -10.65093  -1.15658  -0.78445  -0.58558
 Alpha  occ. eigenvalues --   -0.51651  -0.50081  -0.40815  -0.35100
 Alpha virt. eigenvalues --    0.04513   0.07986   0.12478   0.12618   0.15040
 Alpha virt. eigenvalues --    0.17509   0.18093   0.29210   0.32601   0.33278
 Alpha virt. eigenvalues --    0.34566   0.38993   0.39573   0.41103   0.44437

 Mulliken charges:
               1
     1  C    0.073849
     2  O   -0.467528
     3  H    0.038069
     4  H    0.046655
     5  H    0.067273
     6  H    0.241682
 Sum of Mulliken charges =   0.00000

 Dipole moment (field-independent basis, Debye):
    X=              0.7799    Y=             -1.5629    Z=              0.1737  Tot=              1.7553
 Quadrupole moment (field-independent basis, Debye-Ang):
   XX=            -12.8804   YY=            -12.1711   ZZ=            -13.9328
   XY=              2.3461   XZ=             -0.1012   YZ=             -0.1200

 Normal termination of Gaussian 09 at Thu Aug 27 00:08:05 2020.
