 Gaussian 09, Revision D.01,
 Gaussian 09:  ES64L-G09RevD.01 24-Apr-2013

 --------------------
 #p B2PLYPD3/Def2QZVP
 --------------------

 --------
 methanol
 --------
 Symbolic Z-matrix:
 Charge =  0 Multiplicity = 1

                         Standard orientation:
 ---------------------------------------------------------------------
 Center     Atomic      Atomic             Coordinates (Angstroms)
 Number     Number       Type             X           Y           Z
 ---------------------------------------------------------------------
      1          6           0        0.671288   -0.017047   -0.002158
      2          8           0       -0.753529    0.131024   -0.001814
      3          1           0        1.033069   -0.547942   -0.868352
      4          1           0        1.035182   -0.540577    0.871271
      5          1           0        1.095842    0.951611    0.009495
      6          1           0       -1.163590   -0.809001    0.015046
 ---------------------------------------------------------------------

 SCF Done:  E(RB2PLYPD3) =  -115.547207464     A.U. after   10 cycles
 E2(B2PLYPD3) =    -0.1484436311D+00 E(B2PLYPD3) =    -0.11569565109479D+03

 The electronic state is 1-A.
 Alpha  occ. eigenvalues --  -19.73097 -10.65021  -1.14494  -0.78741  -0.57672
 Alpha  occ. eigenvalues --   -0.51506  -0.49827  -0.41197  -0.35270
 Alpha virt. eigenvalues --    0.04528   0.07957   0.12498   0.12552   0.14866
 Alpha virt. eigenvalues --    0.17392   0.18131   0.29166   0.32511   0.33450
 Alpha virt. eigenvalues --    0.33477   0.39142   0.39996   0.41023   0.44000

 Mulliken charges:
               1
     1  C    0.076373
     2  O   -0.481380
     3  H    0.047366
     4  H    0.045398
     5  H    0.071534
     6  H    0.240711
 Sum of Mulliken charges =   0.00000

 Dipole moment (field-independent basis, Debye):
    X=              0.9251    Y=             -1.5557    Z=              0.0297  Tot=              1.8103
 Quadrupole moment (field-independent basis, Debye-Ang):
   XX=            -12.9212   YY=            -12.1046   ZZ=            -13.8713
   XY=              2.3543   XZ=             -0.0318   YZ=             -0.0042

 Normal termination of Gaussian 09 at Wed Aug 26 20:47:03 2020.
