 Gaussian 09, Revision D.01,
 Gaussian 09:  ES64L-G09RevD.01 24-Apr-2013

 --------------------
 #p B2PLYPD3/Def2QZVP
 --------------------

 --------
 methanol
 --------
 Symbolic Z-matrix:
 Charge =  0 Multiplicity = 1

                         Standard orientation:
 ---------------------------------------------------------------------
 Center     Atomic      Atomic             Coordinates (Angstroms)
 Number     Number       Type             X           Y           Z
 ---------------------------------------------------------------------
      1          6           0        0.639706    0.002167   -0.005010
      2          8           0       -0.749324   -0.132996   -0.000274
      3          1           0        1.070696    0.482904    0.913754
      4          1           0        1.144594    0.505037   -0.850667
      5          1           0        0.993031   -0.897008   -0.009551
      6          1           0       -1.051969    0.960034   -0.021282
 ---------------------------------------------------------------------

 SCF Done:  E(RB2PLYPD3) =  -115.512383122     A.U. after   11 cycles
 E2(B2PLYPD3) =    -0.1507394677D+00 E(B2PLYPD3) =    -0.11566312259007D+03

 The electronic state is 1-A.
 Alpha  occ. eigenvalues --  -19.74642 -10.64266  -1.15008  -0.78584  -0.57246
 Alpha  occ. eigenvalues --   -0.51081  -0.50389  -0.41439  -0.35032
 Alpha virt. eigenvalues --    0.03168   0.07651   0.12422   0.12780   0.15144
 Alpha virt. eigenvalues --    0.17380   0.18669   0.27679   0.29596   0.33352
 Alpha virt. eigenvalues --    0.35292   0.37217   0.40105   0.41150   0.43623

 Mulliken charges:
               1
     1  C    0.059189
     2  O   -0.459297
     3  H    0.035416
     4  H    0.037715
     5  H    0.071863
     6  H    0.255115
 Sum of Mulliken charges =   0.00000

 Dipole moment (field-independent basis, Debye):
    X=              0.9372    Y=              1.5330    Z=             -0.0542  Tot=              1.7976
 Quadrupole moment (field-independent basis, Debye-Ang):
   XX=            -13.4573   YY=            -11.7951   ZZ=            -14.0176
   XY=             -2.2396   XZ=             -0.0483   YZ=             -0.0476

 Normal termination of Gaussian 09 at Wed Aug 26 19:13:16 2020.
