 Gaussian 09, Revision D.01,
 Gaussian 09:  ES64L-G09RevD.01 24-Apr-2013

 --------------------
 #p B2PLYPD3/Def2QZVP
 --------------------

 --------
 methanol
 --------
 Symbolic Z-matrix:
 Charge =  0 Multiplicity = 1

                         Standard orientation:
 ---------------------------------------------------------------------
 Center     Atomic      Atomic             Coordinates (Angstroms)
 Number     Number       Type             X           Y           Z
 ---------------------------------------------------------------------
      1          6           0       -0.650217   -0.006128    0.036310
      2          8           0        0.751806   -0.158166   -0.042203
      3          1           0       -1.131898    0.689979   -0.854510
      4          1           0       -0.976256    0.376665    0.863702
      5          1           0       -1.192669   -0.754695   -0.058872
      6          1           0        1.187682    0.990150    0.169441
 ---------------------------------------------------------------------

 SCF Done:  E(RB2PLYPD3) =  -115.455959665     A.U. after   12 cycles
 E2(B2PLYPD3) =    -0.1527887462D+00 E(B2PLYPD3) =    -0.11560874841118D+03

 The electronic state is 1-A.
 Alpha  occ. eigenvalues --  -19.75217 -10.63561  -1.13067  -0.80403  -0.55701
 Alpha  occ. eigenvalues --   -0.51921  -0.50020  -0.40234  -0.34642
 Alpha virt. eigenvalues --    0.01208   0.07209   0.12294   0.13165   0.14604
 Alpha virt. eigenvalues --    0.18573   0.18729   0.24718   0.29491   0.32086
 Alpha virt. eigenvalues --    0.33827   0.36788   0.40548   0.42069   0.43942

 Mulliken charges:
               1
     1  C    0.080641
     2  O   -0.477404
     3  H    0.012647
     4  H    0.045180
     5  H    0.071566
     6  H    0.267370
 Sum of Mulliken charges =   0.00000

 Dipole moment (field-independent basis, Debye):
    X=             -0.8286    Y=              1.5140    Z=              0.5796  Tot=              1.8206
 Quadrupole moment (field-independent basis, Debye-Ang):
   XX=            -12.8162   YY=            -12.0546   ZZ=            -14.0046
   XY=              2.8119   XZ=              0.2077   YZ=              0.4532

 Normal termination of Gaussian 09 at Wed Aug 26 23:51:16 2020.
