 Gaussian 09, Revision D.01,
 Gaussian 09:  ES64L-G09RevD.01 24-Apr-2013

 --------------------
 #p B2PLYPD3/Def2QZVP
 --------------------

 --------
 methanol
 --------
 Symbolic Z-matrix:
 Charge =  0 Multiplicity = 1

                         Standard orientation:
 ---------------------------------------------------------------------
 Center     Atomic      Atomic             Coordinates (Angstroms)
 Number     Number       Type             X           Y           Z
 ---------------------------------------------------------------------
      1          6           0       -0.644771   -0.015446    0.024822
      2          8           0        0.741507    0.082356   -0.043970
      3          1           0       -0.945640   -0.171287    1.074572
      4          1           0       -1.060449   -0.850218   -0.750886
      5          1           0       -1.105029    0.970371   -0.326733
      6          1           0        1.047688   -0.515039    0.205876
 ---------------------------------------------------------------------

 SCF Done:  E(RB2PLYPD3) =  -115.441507950     A.U. after   10 cycles
 E2(B2PLYPD3) =    -0.1438571006D+00 E(B2PLYPD3) =    -0.11558536505016D+03

 The electronic state is 1-A.
 Alpha  occ. eigenvalues --  -19.70240 -10.67840  -1.24695  -0.80942  -0.61767
 Alpha  occ. eigenvalues --   -0.52329  -0.50846  -0.40734  -0.35932
 Alpha virt. eigenvalues --    0.05398   0.09199   0.11692   0.12243   0.14267
 Alpha virt. eigenvalues --    0.17285   0.18028   0.28314   0.32604   0.33864
 Alpha virt. eigenvalues --    0.36047   0.38349   0.40072   0.40931   0.43615

 Mulliken charges:
               1
     1  C    0.049882
     2  O   -0.252546
     3  H    0.055557
     4  H    0.037403
     5  H    0.072107
     6  H    0.037596
 Sum of Mulliken charges =   0.00000

 Dipole moment (field-independent basis, Debye):
    X=             -0.8433    Y=             -1.0777    Z=              0.5835  Tot=              1.4876
 Quadrupole moment (field-independent basis, Debye-Ang):
   XX=            -13.2893   YY=            -12.8143   ZZ=            -13.2949
   XY=             -1.8959   XZ=              0.7281   YZ=             -0.3305

 Normal termination of Gaussian 09 at Wed Aug 26 14:28:50 2020.
