 Gaussian 09, Revision D.01,
 Gaussian 09:  ES64L-G09RevD.01 24-Apr-2013

 --------------------
 #p B2PLYPD3/Def2QZVP
 --------------------

 --------
 methanol
 --------
 Symbolic Z-matrix:
 Charge =  0 Multiplicity = 1

                         Standard orientation:
 ---------------------------------------------------------------------
 Center     Atomic      Atomic             Coordinates (Angstroms)
 Number     Number       Type             X           Y           Z
 ---------------------------------------------------------------------
      1          6           0        0.647483    0.025190   -0.031863
      2          8           0       -0.717272   -0.146940    0.011022
      3          1           0        0.893768    0.568105    0.961674
      4          1           0        1.055643    0.475664   -0.810848
      5          1           0        1.062633   -0.888350    0.057649
      6          1           0       -1.158768    0.868961   -0.105477
 ---------------------------------------------------------------------

 SCF Done:  E(RB2PLYPD3) =  -115.514526400     A.U. after   11 cycles
 E2(B2PLYPD3) =    -0.1493094491D+00 E(B2PLYPD3) =    -0.11566383584861D+03

 The electronic state is 1-A.
 Alpha  occ. eigenvalues --  -19.73583 -10.63633  -1.15346  -0.78690  -0.58178
 Alpha  occ. eigenvalues --   -0.52280  -0.50709  -0.40635  -0.34273
 Alpha virt. eigenvalues --    0.03472   0.08024   0.12179   0.13009   0.14763
 Alpha virt. eigenvalues --    0.17421   0.18525   0.28484   0.29981   0.32562
 Alpha virt. eigenvalues --    0.35644   0.38588   0.40528   0.41771   0.45655

 Mulliken charges:
               1
     1  C    0.071463
     2  O   -0.461988
     3  H    0.029572
     4  H    0.045231
     5  H    0.062527
     6  H    0.253195
 Sum of Mulliken charges =   0.00000

 Dipole moment (field-independent basis, Debye):
    X=              0.7207    Y=              1.5290    Z=             -0.3401  Tot=              1.7242
 Quadrupole moment (field-independent basis, Debye-Ang):
   XX=            -13.0799   YY=            -12.1189   ZZ=            -13.7469
   XY=             -2.5121   XZ=             -0.1078   YZ=             -0.3339

 Normal termination of Gaussian 09 at Wed Aug 26 22:37:34 2020.
