 Gaussian 09, Revision D.01,
 Gaussian 09:  ES64L-G09RevD.01 24-Apr-2013

 --------------------
 #p B2PLYPD3/Def2QZVP
 --------------------

 --------
 methanol
 --------
 Symbolic Z-matrix:
 Charge =  0 Multiplicity = 1

                         Standard orientation:
 ---------------------------------------------------------------------
 Center     Atomic      Atomic             Coordinates (Angstroms)
 Number     Number       Type             X           Y           Z
 ---------------------------------------------------------------------
      1          6           0        0.647544   -0.020222    0.011134
      2          8           0       -0.743993    0.096849   -0.004241
      3          1           0        0.942152   -0.765696   -0.843838
      4          1           0        1.105404   -0.366757    0.974893
      5          1           0        1.136303    1.028163   -0.237085
      6          1           0       -1.117183   -0.549166    0.073157
 ---------------------------------------------------------------------

 SCF Done:  E(RB2PLYPD3) =  -115.474836615     A.U. after   10 cycles
 E2(B2PLYPD3) =    -0.1444172192D+00 E(B2PLYPD3) =    -0.11561925383426D+03

 The electronic state is 1-A.
 Alpha  occ. eigenvalues --  -19.70656 -10.68147  -1.22868  -0.80540  -0.61797
 Alpha  occ. eigenvalues --   -0.51784  -0.50265  -0.40239  -0.35772
 Alpha virt. eigenvalues --    0.05339   0.08910   0.11944   0.12100   0.14580
 Alpha virt. eigenvalues --    0.17226   0.17911   0.28749   0.32522   0.34009
 Alpha virt. eigenvalues --    0.36018   0.38145   0.39572   0.40209   0.42868

 Mulliken charges:
               1
     1  C    0.051713
     2  O   -0.285669
     3  H    0.038546
     4  H    0.054875
     5  H    0.069955
     6  H    0.070579
 Sum of Mulliken charges =   0.00000

 Dipole moment (field-independent basis, Debye):
    X=              0.7612    Y=             -1.2660    Z=              0.1953  Tot=              1.4901
 Quadrupole moment (field-independent basis, Debye-Ang):
   XX=            -12.9401   YY=            -12.6873   ZZ=            -13.6850
   XY=              2.0619   XZ=             -0.0623   YZ=             -0.1556

 Normal termination of Gaussian 09 at Wed Aug 26 13:01:18 2020.
