 Gaussian 09, Revision D.01,
 Gaussian 09:  ES64L-G09RevD.01 24-Apr-2013

 --------------------
 #p B2PLYPD3/Def2QZVP
 --------------------

 --------
 methanol
 --------
 Symbolic Z-matrix:
 Charge =  0 Multiplicity = 1

                         Standard orientation:
 ---------------------------------------------------------------------
 Center     Atomic      Atomic             Coordinates (Angstroms)
 Number     Number       Type             X           Y           Z
 ---------------------------------------------------------------------
      1          6           0        0.658828   -0.029578    0.001004
      2          8           0       -0.747846    0.073743   -0.000888
      3          1           0        1.172047   -0.524745   -0.943052
      4          1           0        1.011798   -0.615218    0.947115
      5          1           0        1.114891    1.140495    0.056190
      6          1           0       -1.268941   -0.413008   -0.059172
 ---------------------------------------------------------------------

 SCF Done:  E(RB2PLYPD3) =  -115.417492151     A.U. after   11 cycles
 E2(B2PLYPD3) =    -0.1450060525D+00 E(B2PLYPD3) =    -0.11556249820382D+03

 The electronic state is 1-A.
 Alpha  occ. eigenvalues --  -19.69876 -10.70238  -1.22674  -0.82016  -0.61808
 Alpha  occ. eigenvalues --   -0.50906  -0.49137  -0.38176  -0.35887
 Alpha virt. eigenvalues --    0.05158   0.08684   0.11391   0.11994   0.14547
 Alpha virt. eigenvalues --    0.16721   0.18063   0.29002   0.31957   0.33289
 Alpha virt. eigenvalues --    0.34327   0.36840   0.38455   0.39889   0.42109

 Mulliken charges:
               1
     1  C    0.048769
     2  O   -0.254662
     3  H    0.053529
     4  H    0.057695
     5  H    0.071196
     6  H    0.023473
 Sum of Mulliken charges =   0.00000

 Dipole moment (field-independent basis, Debye):
    X=              0.5700    Y=             -1.1189    Z=             -0.1167  Tot=              1.2611
 Quadrupole moment (field-independent basis, Debye-Ang):
   XX=            -12.1739   YY=            -13.0847   ZZ=            -13.7754
   XY=              1.7507   XZ=              0.0769   YZ=              0.0345

 Normal termination of Gaussian 09 at Wed Aug 26 20:29:46 2020.
