 Gaussian 09, Revision D.01,
 Gaussian 09:  ES64L-G09RevD.01 24-Apr-2013

 --------------------
 #p B2PLYPD3/Def2QZVP
 --------------------

 --------
 methanol
 --------
 Symbolic Z-matrix:
 Charge =  0 Multiplicity = 1

                         Standard orientation:
 ---------------------------------------------------------------------
 Center     Atomic      Atomic             Coordinates (Angstroms)
 Number     Number       Type             X           Y           Z
 ---------------------------------------------------------------------
      1          6           0        0.647932   -0.030267    0.026718
      2          8           0       -0.735254    0.084312   -0.039129
      3          1           0        0.961219   -0.973623   -0.657067
      4          1           0        1.021806   -0.088157    1.013009
      5          1           0        1.148421    1.000412   -0.423818
      6          1           0       -1.137005   -0.431522    0.220601
 ---------------------------------------------------------------------

 SCF Done:  E(RB2PLYPD3) =  -115.415562147     A.U. after   11 cycles
 E2(B2PLYPD3) =    -0.1438057153D+00 E(B2PLYPD3) =    -0.11555936786255D+03

 The electronic state is 1-A.
 Alpha  occ. eigenvalues --  -19.69823 -10.68359  -1.24517  -0.81970  -0.62588
 Alpha  occ. eigenvalues --   -0.52430  -0.49908  -0.39430  -0.36011
 Alpha virt. eigenvalues --    0.05259   0.09199   0.11600   0.12068   0.14460
 Alpha virt. eigenvalues --    0.17016   0.17985   0.28614   0.32282   0.34231
 Alpha virt. eigenvalues --    0.34818   0.37255   0.40459   0.42164   0.42481

 Mulliken charges:
               1
     1  C    0.049879
     2  O   -0.237481
     3  H    0.041524
     4  H    0.064040
     5  H    0.063778
     6  H    0.018261
 Sum of Mulliken charges =   0.00000

 Dipole moment (field-independent basis, Debye):
    X=              0.6899    Y=             -1.0651    Z=              0.6992  Tot=              1.4489
 Quadrupole moment (field-independent basis, Debye-Ang):
   XX=            -12.8623   YY=            -12.9206   ZZ=            -13.4191
   XY=              1.8515   XZ=             -0.6178   YZ=             -0.2307

 Normal termination of Gaussian 09 at Wed Aug 26 22:50:09 2020.
