 Gaussian 09, Revision D.01,
 Gaussian 09:  ES64L-G09RevD.01 24-Apr-2013

 --------------------
 #p B2PLYPD3/Def2QZVP
 --------------------

 --------
 methanol
 --------
 Symbolic Z-matrix:
 Charge =  0 Multiplicity = 1

                         Standard orientation:
 ---------------------------------------------------------------------
 Center     Atomic      Atomic             Coordinates (Angstroms)
 Number     Number       Type             X           Y           Z
 ---------------------------------------------------------------------
      1          6           0        0.650553   -0.003217    0.047747
      2          8           0       -0.767031    0.075678   -0.024720
      3          1           0        1.098064   -0.830578   -0.837500
      4          1           0        0.972576   -0.392982    0.960196
      5          1           0        1.188427    1.095143   -0.257044
      6          1           0       -1.026137   -0.457709    0.045625
 ---------------------------------------------------------------------

 SCF Done:  E(RB2PLYPD3) =  -115.186188983     A.U. after   11 cycles
 E2(B2PLYPD3) =    -0.1438128313D+00 E(B2PLYPD3) =    -0.11533000181413D+03

 The electronic state is 1-A.
 Alpha  occ. eigenvalues --  -19.69457 -10.69821  -1.29883  -0.82327  -0.63642
 Alpha  occ. eigenvalues --   -0.51518  -0.49802  -0.41374  -0.36141
 Alpha virt. eigenvalues --    0.04926   0.09366   0.10701   0.11780   0.14678
 Alpha virt. eigenvalues --    0.17170   0.17645   0.28176   0.31326   0.32207
 Alpha virt. eigenvalues --    0.33240   0.35273   0.40178   0.42244   0.42943

 Mulliken charges:
               1
     1  C    0.055919
     2  O   -0.159550
     3  H    0.018869
     4  H    0.073678
     5  H    0.075187
     6  H   -0.064104
 Sum of Mulliken charges =   0.00000

 Dipole moment (field-independent basis, Debye):
    X=              1.0170    Y=             -1.0981    Z=              0.3932  Tot=              1.5475
 Quadrupole moment (field-independent basis, Debye-Ang):
   XX=            -13.2489   YY=            -12.6048   ZZ=            -13.6074
   XY=              1.8752   XZ=             -0.0994   YZ=             -0.3963

 Normal termination of Gaussian 09 at Wed Aug 26 20:20:10 2020.
