 Gaussian 09, Revision D.01,
 Gaussian 09:  ES64L-G09RevD.01 24-Apr-2013

 --------------------
 #p B2PLYPD3/Def2QZVP
 --------------------

 --------
 methanol
 --------
 Symbolic Z-matrix:
 Charge =  0 Multiplicity = 1

                         Standard orientation:
 ---------------------------------------------------------------------
 Center     Atomic      Atomic             Coordinates (Angstroms)
 Number     Number       Type             X           Y           Z
 ---------------------------------------------------------------------
      1          6           0       -0.661407   -0.026148   -0.002306
      2          8           0        0.740064   -0.079883   -0.034240
      3          1           0       -1.002782    1.038194   -0.538680
      4          1           0       -0.968156   -0.013903    1.067289
      5          1           0       -0.949245   -0.843794   -0.479754
      6          1           0        0.968115    0.615457    0.238904
 ---------------------------------------------------------------------

 SCF Done:  E(RB2PLYPD3) =  -115.487893759     A.U. after   11 cycles
 E2(B2PLYPD3) =    -0.1445724437D+00 E(B2PLYPD3) =    -0.11563246620308D+03

 The electronic state is 1-A.
 Alpha  occ. eigenvalues --  -19.70598 -10.66477  -1.22109  -0.80663  -0.60545
 Alpha  occ. eigenvalues --   -0.52504  -0.51227  -0.42552  -0.35086
 Alpha virt. eigenvalues --    0.05190   0.09229   0.11452   0.12557   0.14674
 Alpha virt. eigenvalues --    0.16784   0.17575   0.28756   0.31911   0.33075
 Alpha virt. eigenvalues --    0.35543   0.39312   0.40746   0.42162   0.45464

 Mulliken charges:
               1
     1  C    0.060446
     2  O   -0.321104
     3  H    0.020340
     4  H    0.049917
     5  H    0.089495
     6  H    0.100906
 Sum of Mulliken charges =   0.00000

 Dipole moment (field-independent basis, Debye):
    X=             -0.9902    Y=              1.0812    Z=              0.5323  Tot=              1.5598
 Quadrupole moment (field-independent basis, Debye-Ang):
   XX=            -13.8720   YY=            -12.2479   ZZ=            -13.3817
   XY=              1.8860   XZ=              0.6577   YZ=              0.5452

 Normal termination of Gaussian 09 at Wed Aug 26 22:24:17 2020.
