 Gaussian 09, Revision D.01,
 Gaussian 09:  ES64L-G09RevD.01 24-Apr-2013

 --------------------
 #p B2PLYPD3/Def2QZVP
 --------------------

 --------
 methanol
 --------
 Symbolic Z-matrix:
 Charge =  0 Multiplicity = 1

                         Standard orientation:
 ---------------------------------------------------------------------
 Center     Atomic      Atomic             Coordinates (Angstroms)
 Number     Number       Type             X           Y           Z
 ---------------------------------------------------------------------
      1          6           0        0.684245    0.028088    0.003037
      2          8           0       -0.738063   -0.160675    0.001445
      3          1           0        1.085893    0.449273    0.813655
      4          1           0        0.916825    0.605043   -0.807131
      5          1           0        1.023876   -0.901564   -0.085301
      6          1           0       -1.227555    0.964123    0.048995
 ---------------------------------------------------------------------

 SCF Done:  E(RB2PLYPD3) =  -115.491367785     A.U. after   11 cycles
 E2(B2PLYPD3) =    -0.1519524652D+00 E(B2PLYPD3) =    -0.11564332025045D+03

 The electronic state is 1-A.
 Alpha  occ. eigenvalues --  -19.74030 -10.62458  -1.11991  -0.79548  -0.56399
 Alpha  occ. eigenvalues --   -0.52949  -0.48624  -0.40642  -0.35014
 Alpha virt. eigenvalues --    0.02090   0.07752   0.12593   0.12851   0.14896
 Alpha virt. eigenvalues --    0.17041   0.18211   0.25966   0.29522   0.32839
 Alpha virt. eigenvalues --    0.34290   0.38961   0.39899   0.43140   0.44766

 Mulliken charges:
               1
     1  C    0.093501
     2  O   -0.501052
     3  H    0.046376
     4  H    0.044608
     5  H    0.069948
     6  H    0.246619
 Sum of Mulliken charges =   0.00000

 Dipole moment (field-independent basis, Debye):
    X=              0.9930    Y=              1.6757    Z=              0.0736  Tot=              1.9492
 Quadrupole moment (field-independent basis, Debye-Ang):
   XX=            -12.8731   YY=            -11.6785   ZZ=            -13.8682
   XY=             -2.4438   XZ=              0.0557   YZ=              0.0743

 Normal termination of Gaussian 09 at Wed Aug 26 18:33:59 2020.
