 Gaussian 09, Revision D.01,
 Gaussian 09:  ES64L-G09RevD.01 24-Apr-2013

 --------------------
 #p B2PLYPD3/Def2QZVP
 --------------------

 --------
 methanol
 --------
 Symbolic Z-matrix:
 Charge =  0 Multiplicity = 1

                         Standard orientation:
 ---------------------------------------------------------------------
 Center     Atomic      Atomic             Coordinates (Angstroms)
 Number     Number       Type             X           Y           Z
 ---------------------------------------------------------------------
      1          6           0       -0.674324   -0.003394   -0.039921
      2          8           0        0.729724   -0.023286    0.082110
      3          1           0       -0.838148   -0.752566   -0.852910
      4          1           0       -1.017104    1.141778   -0.150720
      5          1           0       -1.087188   -0.385562    0.975783
      6          1           0        1.150586    0.203006   -0.389509
 ---------------------------------------------------------------------

 SCF Done:  E(RB2PLYPD3) =  -115.367875171     A.U. after   11 cycles
 E2(B2PLYPD3) =    -0.1436124277D+00 E(B2PLYPD3) =    -0.11551148759894D+03

 The electronic state is 1-A.
 Alpha  occ. eigenvalues --  -19.68435 -10.68593  -1.24586  -0.82759  -0.60622
 Alpha  occ. eigenvalues --   -0.53104  -0.50351  -0.38836  -0.35844
 Alpha virt. eigenvalues --    0.05323   0.09469   0.11494   0.12173   0.13500
 Alpha virt. eigenvalues --    0.16741   0.17785   0.28665   0.32044   0.32640
 Alpha virt. eigenvalues --    0.36173   0.37761   0.40105   0.40868   0.43410

 Mulliken charges:
               1
     1  C    0.055655
     2  O   -0.227245
     3  H    0.065086
     4  H    0.048111
     5  H    0.078416
     6  H   -0.020024
 Sum of Mulliken charges =   0.00000

 Dipole moment (field-independent basis, Debye):
    X=             -0.7685    Y=              0.4122    Z=             -1.0223  Tot=              1.3437
 Quadrupole moment (field-independent basis, Debye-Ang):
   XX=            -12.9893   YY=            -13.1124   ZZ=            -12.9329
   XY=              0.7469   XZ=             -1.8953   YZ=             -0.1063

 Normal termination of Gaussian 09 at Wed Aug 26 19:08:06 2020.
