 Gaussian 09, Revision D.01,
 Gaussian 09:  ES64L-G09RevD.01 24-Apr-2013

 --------------------
 #p B2PLYPD3/Def2QZVP
 --------------------

 --------
 methanol
 --------
 Symbolic Z-matrix:
 Charge =  0 Multiplicity = 1

                         Standard orientation:
 ---------------------------------------------------------------------
 Center     Atomic      Atomic             Coordinates (Angstroms)
 Number     Number       Type             X           Y           Z
 ---------------------------------------------------------------------
      1          6           0        0.695005   -0.009089   -0.014642
      2          8           0       -0.764084    0.126765   -0.008230
      3          1           0        1.064994   -0.592605   -0.785524
      4          1           0        1.022062   -0.506126    0.863511
      5          1           0        0.986507    1.000528    0.023793
      6          1           0       -1.130919   -0.861389    0.051913
 ---------------------------------------------------------------------

 SCF Done:  E(RB2PLYPD3) =  -115.536148883     A.U. after   10 cycles
 E2(B2PLYPD3) =    -0.1495487781D+00 E(B2PLYPD3) =    -0.11568569766101D+03

 The electronic state is 1-A.
 Alpha  occ. eigenvalues --  -19.73132 -10.64472  -1.13055  -0.79189  -0.57845
 Alpha  occ. eigenvalues --   -0.51428  -0.48210  -0.42137  -0.35241
 Alpha virt. eigenvalues --    0.04261   0.07966   0.12131   0.12689   0.15033
 Alpha virt. eigenvalues --    0.16820   0.17965   0.28861   0.31717   0.32652
 Alpha virt. eigenvalues --    0.33825   0.38895   0.39347   0.41463   0.44454

 Mulliken charges:
               1
     1  C    0.083987
     2  O   -0.495779
     3  H    0.052124
     4  H    0.044518
     5  H    0.076937
     6  H    0.238213
 Sum of Mulliken charges =   0.00000

 Dipole moment (field-independent basis, Debye):
    X=              1.1149    Y=             -1.6186    Z=              0.1039  Tot=              1.9682
 Quadrupole moment (field-independent basis, Debye-Ang):
   XX=            -13.2261   YY=            -11.6794   ZZ=            -13.9511
   XY=              2.1026   XZ=             -0.1542   YZ=              0.0123

 Normal termination of Gaussian 09 at Wed Aug 26 23:27:32 2020.
