 Gaussian 09, Revision D.01,
 Gaussian 09:  ES64L-G09RevD.01 24-Apr-2013

 --------------------
 #p B2PLYPD3/Def2QZVP
 --------------------

 --------
 methanol
 --------
 Symbolic Z-matrix:
 Charge =  0 Multiplicity = 1

                         Standard orientation:
 ---------------------------------------------------------------------
 Center     Atomic      Atomic             Coordinates (Angstroms)
 Number     Number       Type             X           Y           Z
 ---------------------------------------------------------------------
      1          6           0       -0.639642    0.028928   -0.010149
      2          8           0        0.733304   -0.147572   -0.014650
      3          1           0       -1.159133    0.625278   -0.726104
      4          1           0       -0.979167    0.403944    0.902013
      5          1           0       -1.063828   -0.948932   -0.038438
      6          1           0        1.173548    0.926720    0.040622
 ---------------------------------------------------------------------

 SCF Done:  E(RB2PLYPD3) =  -115.515928237     A.U. after   11 cycles
 E2(B2PLYPD3) =    -0.1507037290D+00 E(B2PLYPD3) =    -0.11566663196592D+03

 The electronic state is 1-A.
 Alpha  occ. eigenvalues --  -19.74493 -10.63928  -1.14721  -0.78268  -0.57302
 Alpha  occ. eigenvalues --   -0.51780  -0.49921  -0.40364  -0.34941
 Alpha virt. eigenvalues --    0.02821   0.07631   0.12398   0.12995   0.15226
 Alpha virt. eigenvalues --    0.17293   0.18645   0.27159   0.29662   0.33358
 Alpha virt. eigenvalues --    0.35904   0.38315   0.39605   0.41583   0.44305

 Mulliken charges:
               1
     1  C    0.070855
     2  O   -0.465359
     3  H    0.040685
     4  H    0.041905
     5  H    0.057286
     6  H    0.254628
 Sum of Mulliken charges =   0.00000

 Dipole moment (field-independent basis, Debye):
    X=             -0.7664    Y=              1.6638    Z=              0.1273  Tot=              1.8363
 Quadrupole moment (field-independent basis, Debye-Ang):
   XX=            -12.9271   YY=            -11.9115   ZZ=            -14.0918
   XY=              2.3118   XZ=              0.1877   YZ=              0.0142

 Normal termination of Gaussian 09 at Wed Aug 26 23:40:22 2020.
