 Gaussian 09, Revision D.01,
 Gaussian 09:  ES64L-G09RevD.01 24-Apr-2013

 --------------------
 #p B2PLYPD3/Def2QZVP
 --------------------

 --------
 methanol
 --------
 Symbolic Z-matrix:
 Charge =  0 Multiplicity = 1

                         Standard orientation:
 ---------------------------------------------------------------------
 Center     Atomic      Atomic             Coordinates (Angstroms)
 Number     Number       Type             X           Y           Z
 ---------------------------------------------------------------------
      1          6           0       -0.660766    0.031108    0.005505
      2          8           0        0.736977   -0.142290   -0.004955
      3          1           0       -1.014218    0.557432   -0.837388
      4          1           0       -1.016604    0.478821    0.848021
      5          1           0       -1.045304   -0.963930   -0.031252
      6          1           0        1.144906    0.879354    0.027229
 ---------------------------------------------------------------------

 SCF Done:  E(RB2PLYPD3) =  -115.531215789     A.U. after   11 cycles
 E2(B2PLYPD3) =    -0.1494088061D+00 E(B2PLYPD3) =    -0.11568062459480D+03

 The electronic state is 1-A.
 Alpha  occ. eigenvalues --  -19.73572 -10.63760  -1.14324  -0.78692  -0.57494
 Alpha  occ. eigenvalues --   -0.52790  -0.49223  -0.40854  -0.35286
 Alpha virt. eigenvalues --    0.03772   0.07987   0.12476   0.12682   0.15075
 Alpha virt. eigenvalues --    0.17232   0.18272   0.28818   0.30278   0.33565
 Alpha virt. eigenvalues --    0.34692   0.38760   0.39814   0.42600   0.44614

 Mulliken charges:
               1
     1  C    0.079575
     2  O   -0.480495
     3  H    0.044281
     4  H    0.047281
     5  H    0.062736
     6  H    0.246623
 Sum of Mulliken charges =   0.00000

 Dipole moment (field-independent basis, Debye):
    X=             -0.9015    Y=              1.6432    Z=              0.0805  Tot=              1.8760
 Quadrupole moment (field-independent basis, Debye-Ang):
   XX=            -13.1219   YY=            -11.9118   ZZ=            -13.8119
   XY=              2.2624   XZ=              0.0270   YZ=              0.0585

 Normal termination of Gaussian 09 at Wed Aug 26 10:20:12 2020.
