 Gaussian 09, Revision D.01,
 Gaussian 09:  ES64L-G09RevD.01 24-Apr-2013

 --------------------
 #p B2PLYPD3/Def2QZVP
 --------------------

 --------
 methanol
 --------
 Symbolic Z-matrix:
 Charge =  0 Multiplicity = 1

                         Standard orientation:
 ---------------------------------------------------------------------
 Center     Atomic      Atomic             Coordinates (Angstroms)
 Number     Number       Type             X           Y           Z
 ---------------------------------------------------------------------
      1          6           0        0.667771   -0.004962   -0.005283
      2          8           0       -0.753067    0.103683    0.006306
      3          1           0        0.999878   -0.542866   -0.932960
      4          1           0        0.954025   -0.589200    0.958240
      5          1           0        1.102983    0.977969    0.014972
      6          1           0       -1.038969   -0.645592   -0.059004
 ---------------------------------------------------------------------

 SCF Done:  E(RB2PLYPD3) =  -115.517263283     A.U. after   10 cycles
 E2(B2PLYPD3) =    -0.1450640758D+00 E(B2PLYPD3) =    -0.11566232735855D+03

 The electronic state is 1-A.
 Alpha  occ. eigenvalues --  -19.70911 -10.66932  -1.20410  -0.79645  -0.60091
 Alpha  occ. eigenvalues --   -0.51667  -0.50928  -0.41737  -0.35488
 Alpha virt. eigenvalues --    0.05327   0.08954   0.11774   0.12440   0.14369
 Alpha virt. eigenvalues --    0.17439   0.17624   0.28834   0.32284   0.33072
 Alpha virt. eigenvalues --    0.36859   0.39277   0.39976   0.40491   0.43901

 Mulliken charges:
               1
     1  C    0.065023
     2  O   -0.359850
     3  H    0.046474
     4  H    0.043177
     5  H    0.080753
     6  H    0.124423
 Sum of Mulliken charges =   0.00000

 Dipole moment (field-independent basis, Debye):
    X=              1.0265    Y=             -1.3051    Z=             -0.1615  Tot=              1.6683
 Quadrupole moment (field-independent basis, Debye-Ang):
   XX=            -13.4454   YY=            -12.3190   ZZ=            -13.5715
   XY=              2.1594   XZ=              0.0523   YZ=              0.1209

 Normal termination of Gaussian 09 at Wed Aug 26 13:37:52 2020.
