 Gaussian 09, Revision D.01,
 Gaussian 09:  ES64L-G09RevD.01 24-Apr-2013

 --------------------
 #p B2PLYPD3/Def2QZVP
 --------------------

 --------
 methanol
 --------
 Symbolic Z-matrix:
 Charge =  0 Multiplicity = 1

                         Standard orientation:
 ---------------------------------------------------------------------
 Center     Atomic      Atomic             Coordinates (Angstroms)
 Number     Number       Type             X           Y           Z
 ---------------------------------------------------------------------
      1          6           0       -0.649790   -0.000210    0.024990
      2          8           0        0.762826    0.051599   -0.015317
      3          1           0       -1.227968   -0.208543    1.033451
      4          1           0       -1.030922   -0.913887   -0.808346
      5          1           0       -1.038955    1.074413   -0.423286
      6          1           0        1.093978   -0.363509    0.170779
 ---------------------------------------------------------------------

 SCF Done:  E(RB2PLYPD3) =  -115.065353858     A.U. after   11 cycles
 E2(B2PLYPD3) =    -0.1441306689D+00 E(B2PLYPD3) =    -0.11520948452733D+03

 The electronic state is 1-A.
 Alpha  occ. eigenvalues --  -19.69357 -10.71245  -1.31111  -0.83867  -0.62766
 Alpha  occ. eigenvalues --   -0.50461  -0.50078  -0.40432  -0.35914
 Alpha virt. eigenvalues --    0.04853   0.09085   0.11017   0.11470   0.14524
 Alpha virt. eigenvalues --    0.16605   0.18073   0.28348   0.30845   0.32967
 Alpha virt. eigenvalues --    0.34639   0.35354   0.36781   0.41141   0.42254

 Mulliken charges:
               1
     1  C    0.034450
     2  O   -0.093097
     3  H    0.064002
     4  H    0.032447
     5  H    0.081547
     6  H   -0.119349
 Sum of Mulliken charges =   0.00000

 Dipole moment (field-independent basis, Debye):
    X=             -0.8415    Y=             -0.8552    Z=              0.5557  Tot=              1.3222
 Quadrupole moment (field-independent basis, Debye-Ang):
   XX=            -12.9002   YY=            -12.9774   ZZ=            -13.4965
   XY=             -1.6535   XZ=              0.3425   YZ=             -0.4174

 Normal termination of Gaussian 09 at Wed Aug 26 23:48:13 2020.
