 Gaussian 09, Revision D.01,
 Gaussian 09:  ES64L-G09RevD.01 24-Apr-2013

 --------------------
 #p B2PLYPD3/Def2QZVP
 --------------------

 --------
 methanol
 --------
 Symbolic Z-matrix:
 Charge =  0 Multiplicity = 1

                         Standard orientation:
 ---------------------------------------------------------------------
 Center     Atomic      Atomic             Coordinates (Angstroms)
 Number     Number       Type             X           Y           Z
 ---------------------------------------------------------------------
      1          6           0       -0.645852    0.018154    0.016113
      2          8           0        0.762048   -0.137705   -0.026733
      3          1           0       -1.219009    0.623350   -0.780386
      4          1           0       -0.996315    0.431591    0.839683
      5          1           0       -1.111922   -0.977747   -0.021048
      6          1           0        1.105970    0.915527    0.078937
 ---------------------------------------------------------------------

 SCF Done:  E(RB2PLYPD3) =  -115.517218216     A.U. after   11 cycles
 E2(B2PLYPD3) =    -0.1507479252D+00 E(B2PLYPD3) =    -0.11566796614085D+03

 The electronic state is 1-A.
 Alpha  occ. eigenvalues --  -19.74723 -10.64995  -1.14476  -0.78576  -0.57489
 Alpha  occ. eigenvalues --   -0.50805  -0.49446  -0.41159  -0.35348
 Alpha virt. eigenvalues --    0.03456   0.07408   0.12183   0.12831   0.15171
 Alpha virt. eigenvalues --    0.17663   0.18476   0.28047   0.29857   0.32957
 Alpha virt. eigenvalues --    0.34403   0.37469   0.39006   0.40684   0.44256

 Mulliken charges:
               1
     1  C    0.072191
     2  O   -0.465748
     3  H    0.031027
     4  H    0.051386
     5  H    0.057305
     6  H    0.253839
 Sum of Mulliken charges =   0.00000

 Dipole moment (field-independent basis, Debye):
    X=             -0.9176    Y=              1.6473    Z=              0.3416  Tot=              1.9164
 Quadrupole moment (field-independent basis, Debye-Ang):
   XX=            -13.1311   YY=            -11.9372   ZZ=            -14.1763
   XY=              2.2039   XZ=              0.1335   YZ=              0.2323

 Normal termination of Gaussian 09 at Wed Aug 26 22:44:22 2020.
