 Gaussian 09, Revision D.01,
 Gaussian 09:  ES64L-G09RevD.01 24-Apr-2013

 --------------------
 #p B2PLYPD3/Def2QZVP
 --------------------

 --------
 methanol
 --------
 Symbolic Z-matrix:
 Charge =  0 Multiplicity = 1

                         Standard orientation:
 ---------------------------------------------------------------------
 Center     Atomic      Atomic             Coordinates (Angstroms)
 Number     Number       Type             X           Y           Z
 ---------------------------------------------------------------------
      1          6           0        0.659029    0.026065    0.003178
      2          8           0       -0.740396   -0.145269   -0.008732
      3          1           0        1.002534    0.439457    0.902548
      4          1           0        1.038600    0.610787   -0.819079
      5          1           0        1.113725   -0.909379   -0.068352
      6          1           0       -1.185861    0.864902    0.035669
 ---------------------------------------------------------------------

 SCF Done:  E(RB2PLYPD3) =  -115.532577076     A.U. after   11 cycles
 E2(B2PLYPD3) =    -0.1494784880D+00 E(B2PLYPD3) =    -0.11568205556437D+03

 The electronic state is 1-A.
 Alpha  occ. eigenvalues --  -19.73671 -10.64126  -1.14114  -0.78623  -0.56879
 Alpha  occ. eigenvalues --   -0.52179  -0.50075  -0.40520  -0.35159
 Alpha virt. eigenvalues --    0.03706   0.07804   0.12558   0.12812   0.14855
 Alpha virt. eigenvalues --    0.17539   0.18367   0.28738   0.30050   0.33449
 Alpha virt. eigenvalues --    0.34409   0.39213   0.40357   0.41865   0.43638

 Mulliken charges:
               1
     1  C    0.077443
     2  O   -0.484911
     3  H    0.047278
     4  H    0.042258
     5  H    0.064948
     6  H    0.252985
 Sum of Mulliken charges =   0.00000

 Dipole moment (field-independent basis, Debye):
    X=              0.8443    Y=              1.6008    Z=              0.0953  Tot=              1.8123
 Quadrupole moment (field-independent basis, Debye-Ang):
   XX=            -12.8438   YY=            -12.0996   ZZ=            -13.8501
   XY=             -2.4702   XZ=             -0.1098   YZ=              0.0555

 Normal termination of Gaussian 09 at Wed Aug 26 23:43:15 2020.
