 Gaussian 09, Revision D.01,
 Gaussian 09:  ES64L-G09RevD.01 24-Apr-2013

 --------------------
 #p B2PLYPD3/Def2QZVP
 --------------------

 --------
 methanol
 --------
 Symbolic Z-matrix:
 Charge =  0 Multiplicity = 1

                         Standard orientation:
 ---------------------------------------------------------------------
 Center     Atomic      Atomic             Coordinates (Angstroms)
 Number     Number       Type             X           Y           Z
 ---------------------------------------------------------------------
      1          6           0       -0.681139    0.002439    0.012708
      2          8           0        0.755179   -0.068491   -0.052564
      3          1           0       -0.999590    1.068614   -0.436653
      4          1           0       -0.962362   -0.161698    1.107463
      5          1           0       -1.093418   -0.796459   -0.619026
      6          1           0        1.100773    0.422840    0.292477
 ---------------------------------------------------------------------

 SCF Done:  E(RB2PLYPD3) =  -115.410363106     A.U. after   11 cycles
 E2(B2PLYPD3) =    -0.1438930954D+00 E(B2PLYPD3) =    -0.11555425620101D+03

 The electronic state is 1-A.
 Alpha  occ. eigenvalues --  -19.69186 -10.68309  -1.23633  -0.81481  -0.60693
 Alpha  occ. eigenvalues --   -0.51662  -0.50885  -0.40669  -0.35888
 Alpha virt. eigenvalues --    0.05372   0.09252   0.11503   0.12318   0.13925
 Alpha virt. eigenvalues --    0.17000   0.17623   0.28631   0.31544   0.32685
 Alpha virt. eigenvalues --    0.36240   0.38739   0.39453   0.40715   0.43246

 Mulliken charges:
               1
     1  C    0.060919
     2  O   -0.261731
     3  H    0.044799
     4  H    0.056879
     5  H    0.089499
     6  H    0.009636
 Sum of Mulliken charges =   0.00000

 Dipole moment (field-independent basis, Debye):
    X=             -1.0122    Y=              0.9109    Z=              0.7000  Tot=              1.5311
 Quadrupole moment (field-independent basis, Debye-Ang):
   XX=            -13.1442   YY=            -12.8578   ZZ=            -13.1019
   XY=              1.7380   XZ=              1.2078   YZ=              0.3815

 Normal termination of Gaussian 09 at Wed Aug 26 12:02:14 2020.
