 Gaussian 09, Revision D.01,
 Gaussian 09:  ES64L-G09RevD.01 24-Apr-2013

 --------------------
 #p B2PLYPD3/Def2QZVP
 --------------------

 --------
 methanol
 --------
 Symbolic Z-matrix:
 Charge =  0 Multiplicity = 1

                         Standard orientation:
 ---------------------------------------------------------------------
 Center     Atomic      Atomic             Coordinates (Angstroms)
 Number     Number       Type             X           Y           Z
 ---------------------------------------------------------------------
      1          6           0       -0.665760   -0.025239    0.002430
      2          8           0        0.745076    0.106046   -0.005513
      3          1           0       -1.006256   -0.530458    0.917844
      4          1           0       -1.046583   -0.576880   -0.892488
      5          1           0       -1.081907    1.044202   -0.012092
      6          1           0        1.168696   -0.633799    0.016265
 ---------------------------------------------------------------------

 SCF Done:  E(RB2PLYPD3) =  -115.537673129     A.U. after   10 cycles
 E2(B2PLYPD3) =    -0.1456238527D+00 E(B2PLYPD3) =    -0.11568329698194D+03

 The electronic state is 1-A.
 Alpha  occ. eigenvalues --  -19.71354 -10.66858  -1.18538  -0.79435  -0.60241
 Alpha  occ. eigenvalues --   -0.51749  -0.49679  -0.40481  -0.35612
 Alpha virt. eigenvalues --    0.05351   0.08589   0.12119   0.12292   0.14807
 Alpha virt. eigenvalues --    0.17026   0.17970   0.29074   0.33210   0.33448
 Alpha virt. eigenvalues --    0.37123   0.38611   0.39653   0.40433   0.42780

 Mulliken charges:
               1
     1  C    0.064387
     2  O   -0.406521
     3  H    0.052486
     4  H    0.050587
     5  H    0.071058
     6  H    0.168002
 Sum of Mulliken charges =   0.00000

 Dipole moment (field-independent basis, Debye):
    X=             -0.7898    Y=             -1.4041    Z=              0.0608  Tot=              1.6122
 Quadrupole moment (field-independent basis, Debye-Ang):
   XX=            -12.8454   YY=            -12.4648   ZZ=            -13.7215
   XY=             -2.1269   XZ=              0.0713   YZ=             -0.0302

 Normal termination of Gaussian 09 at Thu Aug 27 00:10:16 2020.
