 Gaussian 09, Revision D.01,
 Gaussian 09:  ES64L-G09RevD.01 24-Apr-2013

 --------------------
 #p B2PLYPD3/Def2QZVP
 --------------------

 --------
 methanol
 --------
 Symbolic Z-matrix:
 Charge =  0 Multiplicity = 1

                         Standard orientation:
 ---------------------------------------------------------------------
 Center     Atomic      Atomic             Coordinates (Angstroms)
 Number     Number       Type             X           Y           Z
 ---------------------------------------------------------------------
      1          6           0        0.645326   -0.022272   -0.004286
      2          8           0       -0.752116    0.097107   -0.001716
      3          1           0        0.986218   -0.695443   -0.863197
      4          1           0        1.129525   -0.367416    1.006914
      5          1           0        1.101968    1.021537   -0.180081
      6          1           0       -1.072740   -0.601902    0.075807
 ---------------------------------------------------------------------

 SCF Done:  E(RB2PLYPD3) =  -115.494718392     A.U. after   10 cycles
 E2(B2PLYPD3) =    -0.1449278845D+00 E(B2PLYPD3) =    -0.11563964627663D+03

 The electronic state is 1-A.
 Alpha  occ. eigenvalues --  -19.71241 -10.67957  -1.22348  -0.79735  -0.61265
 Alpha  occ. eigenvalues --   -0.51690  -0.50251  -0.40769  -0.35939
 Alpha virt. eigenvalues --    0.05357   0.08771   0.11930   0.12124   0.14563
 Alpha virt. eigenvalues --    0.17275   0.18220   0.28557   0.32822   0.33781
 Alpha virt. eigenvalues --    0.36206   0.38612   0.38943   0.40115   0.43057

 Mulliken charges:
               1
     1  C    0.048776
     2  O   -0.308075
     3  H    0.048734
     4  H    0.046152
     5  H    0.068822
     6  H    0.095592
 Sum of Mulliken charges =   0.00000

 Dipole moment (field-independent basis, Debye):
    X=              0.8392    Y=             -1.2914    Z=              0.1029  Tot=              1.5436
 Quadrupole moment (field-independent basis, Debye-Ang):
   XX=            -13.1560   YY=            -12.6170   ZZ=            -13.6800
   XY=              2.0348   XZ=             -0.1525   YZ=             -0.0584

 Normal termination of Gaussian 09 at Wed Aug 26 11:05:42 2020.
