 Gaussian 09, Revision D.01,
 Gaussian 09:  ES64L-G09RevD.01 24-Apr-2013

 --------------------
 #p B2PLYPD3/Def2QZVP
 --------------------

 --------
 methanol
 --------
 Symbolic Z-matrix:
 Charge =  0 Multiplicity = 1

                         Standard orientation:
 ---------------------------------------------------------------------
 Center     Atomic      Atomic             Coordinates (Angstroms)
 Number     Number       Type             X           Y           Z
 ---------------------------------------------------------------------
      1          6           0        0.651538   -0.016094    0.026141
      2          8           0       -0.743957   -0.106828   -0.029427
      3          1           0        1.016546    0.415774    0.959911
      4          1           0        0.970243    0.738313   -0.915847
      5          1           0        1.127261   -0.877409   -0.148964
      6          1           0       -1.071623    0.674508    0.183466
 ---------------------------------------------------------------------

 SCF Done:  E(RB2PLYPD3) =  -115.527407903     A.U. after   11 cycles
 E2(B2PLYPD3) =    -0.1458946093D+00 E(B2PLYPD3) =    -0.11567330251232D+03

 The electronic state is 1-A.
 Alpha  occ. eigenvalues --  -19.72054 -10.66402  -1.19180  -0.79799  -0.60177
 Alpha  occ. eigenvalues --   -0.52741  -0.50699  -0.41622  -0.34558
 Alpha virt. eigenvalues --    0.05070   0.08615   0.11571   0.12879   0.14530
 Alpha virt. eigenvalues --    0.17701   0.18055   0.28921   0.31654   0.33968
 Alpha virt. eigenvalues --    0.35225   0.38693   0.39983   0.42102   0.45153

 Mulliken charges:
               1
     1  C    0.064142
     2  O   -0.397024
     3  H    0.044605
     4  H    0.016984
     5  H    0.083472
     6  H    0.187822
 Sum of Mulliken charges =   0.00000

 Dipole moment (field-independent basis, Debye):
    X=              0.8379    Y=              1.1923    Z=              0.5453  Tot=              1.5559
 Quadrupole moment (field-independent basis, Debye-Ang):
   XX=            -13.2559   YY=            -12.5146   ZZ=            -13.6692
   XY=             -2.3815   XZ=             -0.2841   YZ=              0.4847

 Normal termination of Gaussian 09 at Wed Aug 26 22:54:26 2020.
