 Gaussian 09, Revision D.01,
 Gaussian 09:  ES64L-G09RevD.01 24-Apr-2013

 --------------------
 #p B2PLYPD3/Def2QZVP
 --------------------

 --------
 methanol
 --------
 Symbolic Z-matrix:
 Charge =  0 Multiplicity = 1

                         Standard orientation:
 ---------------------------------------------------------------------
 Center     Atomic      Atomic             Coordinates (Angstroms)
 Number     Number       Type             X           Y           Z
 ---------------------------------------------------------------------
      1          6           0        0.662393   -0.022837   -0.003521
      2          8           0       -0.749633    0.097498    0.002125
      3          1           0        1.021565   -0.596527   -0.894270
      4          1           0        1.089401   -0.508261    0.929298
      5          1           0        1.058708    1.073710   -0.048753
      6          1           0       -1.146969   -0.611882    0.017851
 ---------------------------------------------------------------------

 SCF Done:  E(RB2PLYPD3) =  -115.520353897     A.U. after   10 cycles
 E2(B2PLYPD3) =    -0.1453227923D+00 E(B2PLYPD3) =    -0.11566567668880D+03

 The electronic state is 1-A.
 Alpha  occ. eigenvalues --  -19.71174 -10.67532  -1.19908  -0.79644  -0.60817
 Alpha  occ. eigenvalues --   -0.51417  -0.49522  -0.40632  -0.35778
 Alpha virt. eigenvalues --    0.05359   0.08680   0.11916   0.12217   0.14867
 Alpha virt. eigenvalues --    0.16924   0.18012   0.28968   0.33066   0.33456
 Alpha virt. eigenvalues --    0.36798   0.38751   0.39621   0.39880   0.42136

 Mulliken charges:
               1
     1  C    0.056811
     2  O   -0.364604
     3  H    0.052525
     4  H    0.051039
     5  H    0.070732
     6  H    0.133498
 Sum of Mulliken charges =   0.00000

 Dipole moment (field-independent basis, Debye):
    X=              0.7987    Y=             -1.3685    Z=              0.0127  Tot=              1.5845
 Quadrupole moment (field-independent basis, Debye-Ang):
   XX=            -12.9239   YY=            -12.4823   ZZ=            -13.7549
   XY=              2.0152   XZ=             -0.0065   YZ=              0.0007

 Normal termination of Gaussian 09 at Thu Aug 27 00:07:45 2020.
