 Gaussian 09, Revision D.01,
 Gaussian 09:  ES64L-G09RevD.01 24-Apr-2013

 --------------------
 #p B2PLYPD3/Def2QZVP
 --------------------

 --------
 methanol
 --------
 Symbolic Z-matrix:
 Charge =  0 Multiplicity = 1

                         Standard orientation:
 ---------------------------------------------------------------------
 Center     Atomic      Atomic             Coordinates (Angstroms)
 Number     Number       Type             X           Y           Z
 ---------------------------------------------------------------------
      1          6           0       -0.666659    0.021227   -0.017683
      2          8           0        0.736745   -0.180503    0.014743
      3          1           0       -1.143322    0.397141   -0.721339
      4          1           0       -0.998079    0.704606    0.739948
      5          1           0       -1.022985   -0.886505    0.089446
      6          1           0        1.270382    1.101415   -0.119902
 ---------------------------------------------------------------------

 SCF Done:  E(RB2PLYPD3) =  -115.428256077     A.U. after   11 cycles
 E2(B2PLYPD3) =    -0.1558356853D+00 E(B2PLYPD3) =    -0.11558409176224D+03

 The electronic state is 1-A.
 Alpha  occ. eigenvalues --  -19.75596 -10.62056  -1.11952  -0.80586  -0.56526
 Alpha  occ. eigenvalues --   -0.51597  -0.48460  -0.40020  -0.34792
 Alpha virt. eigenvalues --   -0.01261   0.07377   0.12341   0.13231   0.15030
 Alpha virt. eigenvalues --    0.17183   0.18520   0.22313   0.29643   0.32851
 Alpha virt. eigenvalues --    0.34798   0.37535   0.38870   0.41900   0.46631

 Mulliken charges:
               1
     1  C    0.091099
     2  O   -0.471944
     3  H    0.048467
     4  H    0.031345
     5  H    0.065023
     6  H    0.236010
 Sum of Mulliken charges =   0.00000

 Dipole moment (field-independent basis, Debye):
    X=             -0.9738    Y=              1.7168    Z=             -0.2991  Tot=              1.9963
 Quadrupole moment (field-independent basis, Debye-Ang):
   XX=            -12.7437   YY=            -11.3645   ZZ=            -14.2994
   XY=              2.4337   XZ=              0.0233   YZ=             -0.2249

 Normal termination of Gaussian 09 at Wed Aug 26 23:24:10 2020.
