 Gaussian 09, Revision D.01,
 Gaussian 09:  ES64L-G09RevD.01 24-Apr-2013

 --------------------
 #p B2PLYPD3/Def2QZVP
 --------------------

 --------
 methanol
 --------
 Symbolic Z-matrix:
 Charge =  0 Multiplicity = 1

                         Standard orientation:
 ---------------------------------------------------------------------
 Center     Atomic      Atomic             Coordinates (Angstroms)
 Number     Number       Type             X           Y           Z
 ---------------------------------------------------------------------
      1          6           0       -0.671881    0.011301    0.004989
      2          8           0        0.748487   -0.133764   -0.004607
      3          1           0       -1.023176    0.572477   -0.856018
      4          1           0       -0.999970    0.510897    0.873919
      5          1           0       -1.055195   -0.934384   -0.026667
      6          1           0        1.121728    0.853318    0.015683
 ---------------------------------------------------------------------

 SCF Done:  E(RB2PLYPD3) =  -115.540096786     A.U. after   11 cycles
 E2(B2PLYPD3) =    -0.1488182497D+00 E(B2PLYPD3) =    -0.11568891503559D+03

 The electronic state is 1-A.
 Alpha  occ. eigenvalues --  -19.73181 -10.64278  -1.14262  -0.78889  -0.57555
 Alpha  occ. eigenvalues --   -0.51842  -0.49884  -0.41538  -0.35109
 Alpha virt. eigenvalues --    0.04224   0.08078   0.12485   0.12603   0.14880
 Alpha virt. eigenvalues --    0.17352   0.18012   0.29149   0.31563   0.33345
 Alpha virt. eigenvalues --    0.33744   0.39059   0.40671   0.41343   0.44084

 Mulliken charges:
               1
     1  C    0.080899
     2  O   -0.484410
     3  H    0.041777
     4  H    0.045980
     5  H    0.072575
     6  H    0.243179
 Sum of Mulliken charges =   0.00000

 Dipole moment (field-independent basis, Debye):
    X=             -0.9881    Y=              1.5719    Z=              0.0587  Tot=              1.8576
 Quadrupole moment (field-independent basis, Debye-Ang):
   XX=            -13.1954   YY=            -11.8943   ZZ=            -13.8230
   XY=              2.3157   XZ=              0.0330   YZ=              0.0525

 Normal termination of Gaussian 09 at Wed Aug 26 21:34:12 2020.
