 Gaussian 09, Revision D.01,
 Gaussian 09:  ES64L-G09RevD.01 24-Apr-2013

 --------------------
 #p B2PLYPD3/Def2QZVP
 --------------------

 --------
 methanol
 --------
 Symbolic Z-matrix:
 Charge =  0 Multiplicity = 1

                         Standard orientation:
 ---------------------------------------------------------------------
 Center     Atomic      Atomic             Coordinates (Angstroms)
 Number     Number       Type             X           Y           Z
 ---------------------------------------------------------------------
      1          6           0        0.691736   -0.011534    0.023368
      2          8           0       -0.764750    0.064686   -0.006975
      3          1           0        1.059714   -0.804110   -0.834437
      4          1           0        1.027395   -0.392833    0.981116
      5          1           0        1.056957    1.155224   -0.239655
      6          1           0       -1.176484   -0.406567    0.008568
 ---------------------------------------------------------------------

 SCF Done:  E(RB2PLYPD3) =  -115.264726001     A.U. after   11 cycles
 E2(B2PLYPD3) =    -0.1441189247D+00 E(B2PLYPD3) =    -0.11540884492608D+03

 The electronic state is 1-A.
 Alpha  occ. eigenvalues --  -19.68177 -10.70199  -1.25580  -0.82698  -0.61951
 Alpha  occ. eigenvalues --   -0.50957  -0.48879  -0.39603  -0.36248
 Alpha virt. eigenvalues --    0.04991   0.09358   0.10909   0.11825   0.14336
 Alpha virt. eigenvalues --    0.16580   0.17329   0.28759   0.30581   0.32450
 Alpha virt. eigenvalues --    0.34043   0.36063   0.40446   0.40716   0.41619

 Mulliken charges:
               1
     1  C    0.061155
     2  O   -0.209755
     3  H    0.044372
     4  H    0.076662
     5  H    0.086356
     6  H   -0.058789
 Sum of Mulliken charges =   0.00000

 Dipole moment (field-independent basis, Debye):
    X=              0.9987    Y=             -1.1008    Z=              0.1600  Tot=              1.4949
 Quadrupole moment (field-independent basis, Debye-Ang):
   XX=            -12.7562   YY=            -12.5445   ZZ=            -13.5638
   XY=              1.7221   XZ=              0.0561   YZ=             -0.1804

 Normal termination of Gaussian 09 at Wed Aug 26 22:23:23 2020.
