 Gaussian 09, Revision D.01,
 Gaussian 09:  ES64L-G09RevD.01 24-Apr-2013

 --------------------
 #p B2PLYPD3/Def2QZVP
 --------------------

 --------
 methanol
 --------
 Symbolic Z-matrix:
 Charge =  0 Multiplicity = 1

                         Standard orientation:
 ---------------------------------------------------------------------
 Center     Atomic      Atomic             Coordinates (Angstroms)
 Number     Number       Type             X           Y           Z
 ---------------------------------------------------------------------
      1          6           0        0.661829   -0.021689   -0.002784
      2          8           0       -0.749331    0.076179   -0.019441
      3          1           0        1.006267   -0.888333   -0.715842
      4          1           0        1.150093   -0.121680    1.097339
      5          1           0        1.039893    0.993885   -0.403433
      6          1           0       -1.172580   -0.463169    0.194164
 ---------------------------------------------------------------------

 SCF Done:  E(RB2PLYPD3) =  -115.436159621     A.U. after   11 cycles
 E2(B2PLYPD3) =    -0.1445354856D+00 E(B2PLYPD3) =    -0.11558069510670D+03

 The electronic state is 1-A.
 Alpha  occ. eigenvalues --  -19.70042 -10.69143  -1.23085  -0.81392  -0.61138
 Alpha  occ. eigenvalues --   -0.51233  -0.49935  -0.39738  -0.35897
 Alpha virt. eigenvalues --    0.05330   0.08873   0.11725   0.11980   0.14389
 Alpha virt. eigenvalues --    0.16671   0.18225   0.28666   0.32448   0.33266
 Alpha virt. eigenvalues --    0.35520   0.38133   0.38432   0.40395   0.42181

 Mulliken charges:
               1
     1  C    0.044771
     2  O   -0.258231
     3  H    0.053219
     4  H    0.047624
     5  H    0.081440
     6  H    0.031177
 Sum of Mulliken charges =   0.00000

 Dipole moment (field-independent basis, Debye):
    X=              0.7297    Y=             -1.0700    Z=              0.3781  Tot=              1.3492
 Quadrupole moment (field-independent basis, Debye-Ang):
   XX=            -12.7632   YY=            -12.8729   ZZ=            -13.5530
   XY=              1.8693   XZ=             -0.6462   YZ=             -0.2004

 Normal termination of Gaussian 09 at Wed Aug 26 11:08:38 2020.
