 Gaussian 09, Revision D.01,
 Gaussian 09:  ES64L-G09RevD.01 24-Apr-2013

 --------------------
 #p B2PLYPD3/Def2QZVP
 --------------------

 --------
 methanol
 --------
 Symbolic Z-matrix:
 Charge =  0 Multiplicity = 1

                         Standard orientation:
 ---------------------------------------------------------------------
 Center     Atomic      Atomic             Coordinates (Angstroms)
 Number     Number       Type             X           Y           Z
 ---------------------------------------------------------------------
      1          6           0        0.666068    0.020475   -0.024286
      2          8           0       -0.728823   -0.164360    0.024397
      3          1           0        1.042726    0.613209    0.830357
      4          1           0        0.912236    0.455840   -0.822918
      5          1           0        1.088426   -0.847248    0.024095
      6          1           0       -1.209214    0.970230   -0.080997
 ---------------------------------------------------------------------

 SCF Done:  E(RB2PLYPD3) =  -115.477703701     A.U. after   11 cycles
 E2(B2PLYPD3) =    -0.1516356328D+00 E(B2PLYPD3) =    -0.11562933933334D+03

 The electronic state is 1-A.
 Alpha  occ. eigenvalues --  -19.74137 -10.62196  -1.12907  -0.79717  -0.56787
 Alpha  occ. eigenvalues --   -0.52300  -0.50111  -0.40416  -0.34772
 Alpha virt. eigenvalues --    0.01761   0.07753   0.12704   0.12896   0.14865
 Alpha virt. eigenvalues --    0.17590   0.18171   0.25523   0.29571   0.33008
 Alpha virt. eigenvalues --    0.34560   0.38923   0.41254   0.41626   0.45178

 Mulliken charges:
               1
     1  C    0.091269
     2  O   -0.493955
     3  H    0.035931
     4  H    0.047504
     5  H    0.066892
     6  H    0.252359
 Sum of Mulliken charges =   0.00000

 Dipole moment (field-independent basis, Debye):
    X=              0.9077    Y=              1.6411    Z=             -0.2935  Tot=              1.8982
 Quadrupole moment (field-independent basis, Debye-Ang):
   XX=            -12.8976   YY=            -11.7497   ZZ=            -13.8232
   XY=             -2.5915   XZ=              0.1419   YZ=             -0.2206

 Normal termination of Gaussian 09 at Wed Aug 26 13:15:40 2020.
