 Gaussian 09, Revision D.01,
 Gaussian 09:  ES64L-G09RevD.01 24-Apr-2013

 --------------------
 #p B2PLYPD3/Def2QZVP
 --------------------

 --------
 methanol
 --------
 Symbolic Z-matrix:
 Charge =  0 Multiplicity = 1

                         Standard orientation:
 ---------------------------------------------------------------------
 Center     Atomic      Atomic             Coordinates (Angstroms)
 Number     Number       Type             X           Y           Z
 ---------------------------------------------------------------------
      1          6           0        0.661525    0.034465   -0.001967
      2          8           0       -0.745977   -0.142540   -0.008989
      3          1           0        1.007394    0.442902    0.897374
      4          1           0        1.017390    0.610395   -0.816554
      5          1           0        1.144812   -0.947804   -0.049964
      6          1           0       -1.170934    0.828040    0.052861
 ---------------------------------------------------------------------

 SCF Done:  E(RB2PLYPD3) =  -115.540632225     A.U. after   11 cycles
 E2(B2PLYPD3) =    -0.1488880129D+00 E(B2PLYPD3) =    -0.11568952023767D+03

 The electronic state is 1-A.
 Alpha  occ. eigenvalues --  -19.73407 -10.64631  -1.14449  -0.78572  -0.57306
 Alpha  occ. eigenvalues --   -0.52521  -0.49474  -0.40532  -0.35404
 Alpha virt. eigenvalues --    0.04206   0.07849   0.12483   0.12667   0.14784
 Alpha virt. eigenvalues --    0.17582   0.18334   0.29041   0.31168   0.33522
 Alpha virt. eigenvalues --    0.33974   0.38790   0.40061   0.42063   0.43909

 Mulliken charges:
               1
     1  C    0.076953
     2  O   -0.482083
     3  H    0.049062
     4  H    0.048220
     5  H    0.060888
     6  H    0.246961
 Sum of Mulliken charges =   0.00000

 Dipole moment (field-independent basis, Debye):
    X=              0.8775    Y=              1.6228    Z=              0.1213  Tot=              1.8488
 Quadrupole moment (field-independent basis, Debye-Ang):
   XX=            -12.8829   YY=            -12.1777   ZZ=            -13.8214
   XY=             -2.3788   XZ=             -0.1284   YZ=              0.0350

 Normal termination of Gaussian 09 at Wed Aug 26 23:59:43 2020.
