 Gaussian 09, Revision D.01,
 Gaussian 09:  ES64L-G09RevD.01 24-Apr-2013

 --------------------
 #p B2PLYPD3/Def2QZVP
 --------------------

 --------
 methanol
 --------
 Symbolic Z-matrix:
 Charge =  0 Multiplicity = 1

                         Standard orientation:
 ---------------------------------------------------------------------
 Center     Atomic      Atomic             Coordinates (Angstroms)
 Number     Number       Type             X           Y           Z
 ---------------------------------------------------------------------
      1          6           0       -0.629194   -0.056598    0.016998
      2          8           0        0.760498    0.088647   -0.021439
      3          1           0       -0.973964   -0.453198    0.960465
      4          1           0       -1.099290   -0.626389   -0.896590
      5          1           0       -1.220518    1.170856   -0.062974
      6          1           0        0.984957   -0.460857    0.068619
 ---------------------------------------------------------------------

 SCF Done:  E(RB2PLYPD3) =  -115.194435614     A.U. after   11 cycles
 E2(B2PLYPD3) =    -0.1438853886D+00 E(B2PLYPD3) =    -0.11533832100306D+03

 The electronic state is 1-A.
 Alpha  occ. eigenvalues --  -19.69955 -10.69633  -1.31139  -0.81658  -0.63856
 Alpha  occ. eigenvalues --   -0.53100  -0.49997  -0.39572  -0.37254
 Alpha virt. eigenvalues --    0.04738   0.09339   0.10554   0.11845   0.14493
 Alpha virt. eigenvalues --    0.17541   0.18115   0.27677   0.30461   0.33166
 Alpha virt. eigenvalues --    0.33661   0.37406   0.40101   0.40912   0.43858

 Mulliken charges:
               1
     1  C    0.035598
     2  O   -0.143962
     3  H    0.071076
     4  H    0.057481
     5  H    0.038690
     6  H   -0.058883
 Sum of Mulliken charges =   0.00000

 Dipole moment (field-independent basis, Debye):
    X=             -0.9309    Y=             -1.3710    Z=              0.2922  Tot=              1.6827
 Quadrupole moment (field-independent basis, Debye-Ang):
   XX=            -13.3618   YY=            -12.8657   ZZ=            -13.4288
   XY=             -1.5190   XZ=              0.2595   YZ=             -0.1486

 Normal termination of Gaussian 09 at Wed Aug 26 23:52:38 2020.
