 Gaussian 09, Revision D.01,
 Gaussian 09:  ES64L-G09RevD.01 24-Apr-2013

 --------------------
 #p B2PLYPD3/Def2QZVP
 --------------------

 --------
 methanol
 --------
 Symbolic Z-matrix:
 Charge =  0 Multiplicity = 1

                         Standard orientation:
 ---------------------------------------------------------------------
 Center     Atomic      Atomic             Coordinates (Angstroms)
 Number     Number       Type             X           Y           Z
 ---------------------------------------------------------------------
      1          6           0       -0.646751   -0.038207   -0.000871
      2          8           0        0.733168    0.141749   -0.015605
      3          1           0       -0.997939   -0.408258    0.888261
      4          1           0       -1.018826   -0.680630   -0.769234
      5          1           0       -1.156747    0.980382   -0.075785
      6          1           0        1.188675   -0.796247    0.086819
 ---------------------------------------------------------------------

 SCF Done:  E(RB2PLYPD3) =  -115.539065091     A.U. after   11 cycles
 E2(B2PLYPD3) =    -0.1483582554D+00 E(B2PLYPD3) =    -0.11568742334615D+03

 The electronic state is 1-A.
 Alpha  occ. eigenvalues --  -19.73360 -10.64769  -1.15563  -0.78370  -0.58400
 Alpha  occ. eigenvalues --   -0.52584  -0.49536  -0.40113  -0.35247
 Alpha virt. eigenvalues --    0.04264   0.07844   0.12357   0.12795   0.15049
 Alpha virt. eigenvalues --    0.17487   0.18318   0.29123   0.31523   0.33430
 Alpha virt. eigenvalues --    0.34998   0.37742   0.40082   0.42164   0.44514

 Mulliken charges:
               1
     1  C    0.075438
     2  O   -0.469868
     3  H    0.047618
     4  H    0.043811
     5  H    0.056321
     6  H    0.246679
 Sum of Mulliken charges =   0.00000

 Dipole moment (field-independent basis, Debye):
    X=             -0.7184    Y=             -1.6445    Z=              0.2329  Tot=              1.8096
 Quadrupole moment (field-independent basis, Debye-Ang):
   XX=            -12.7835   YY=            -12.2216   ZZ=            -13.9202
   XY=             -2.3230   XZ=              0.1824   YZ=             -0.0767

 Normal termination of Gaussian 09 at Wed Aug 26 11:54:27 2020.
