 Gaussian 09, Revision D.01,
 Gaussian 09:  ES64L-G09RevD.01 24-Apr-2013

 --------------------
 #p B2PLYPD3/Def2QZVP
 --------------------

 --------
 methanol
 --------
 Symbolic Z-matrix:
 Charge =  0 Multiplicity = 1

                         Standard orientation:
 ---------------------------------------------------------------------
 Center     Atomic      Atomic             Coordinates (Angstroms)
 Number     Number       Type             X           Y           Z
 ---------------------------------------------------------------------
      1          6           0        0.681080    0.026568   -0.003763
      2          8           0       -0.746197   -0.147792    0.002332
      3          1           0        1.025889    0.525170    0.840731
      4          1           0        0.971360    0.562908   -0.824909
      5          1           0        1.089395   -0.939748   -0.020163
      6          1           0       -1.203546    0.874602    0.008266
 ---------------------------------------------------------------------

 SCF Done:  E(RB2PLYPD3) =  -115.526773281     A.U. after   11 cycles
 E2(B2PLYPD3) =    -0.1499180017D+00 E(B2PLYPD3) =    -0.11567669128278D+03

 The electronic state is 1-A.
 Alpha  occ. eigenvalues --  -19.73429 -10.63719  -1.12837  -0.79067  -0.56702
 Alpha  occ. eigenvalues --   -0.52403  -0.49184  -0.40919  -0.35120
 Alpha virt. eigenvalues --    0.03615   0.07829   0.12508   0.12742   0.14893
 Alpha virt. eigenvalues --    0.17314   0.18009   0.28745   0.29986   0.33241
 Alpha virt. eigenvalues --    0.33601   0.39500   0.39727   0.42321   0.44265

 Mulliken charges:
               1
     1  C    0.089628
     2  O   -0.502287
     3  H    0.046700
     4  H    0.047566
     5  H    0.069383
     6  H    0.249011
 Sum of Mulliken charges =   0.00000

 Dipole moment (field-independent basis, Debye):
    X=              0.9569    Y=              1.6549    Z=             -0.0042  Tot=              1.9117
 Quadrupole moment (field-independent basis, Debye-Ang):
   XX=            -12.8568   YY=            -11.8913   ZZ=            -13.8644
   XY=             -2.4198   XZ=              0.0155   YZ=             -0.0104

 Normal termination of Gaussian 09 at Wed Aug 26 10:33:37 2020.
