 Gaussian 09, Revision D.01,
 Gaussian 09:  ES64L-G09RevD.01 24-Apr-2013

 --------------------
 #p B2PLYPD3/Def2QZVP
 --------------------

 --------
 methanol
 --------
 Symbolic Z-matrix:
 Charge =  0 Multiplicity = 1

                         Standard orientation:
 ---------------------------------------------------------------------
 Center     Atomic      Atomic             Coordinates (Angstroms)
 Number     Number       Type             X           Y           Z
 ---------------------------------------------------------------------
      1          6           0        0.672674   -0.027811   -0.005707
      2          8           0       -0.738054    0.062867    0.001548
      3          1           0        0.992872   -0.699453   -0.862146
      4          1           0        1.088462   -0.467590    0.961802
      5          1           0        0.992617    1.223127   -0.114866
      6          1           0       -1.205565   -0.392151    0.037071
 ---------------------------------------------------------------------

 SCF Done:  E(RB2PLYPD3) =  -115.321848152     A.U. after   11 cycles
 E2(B2PLYPD3) =    -0.1440365754D+00 E(B2PLYPD3) =    -0.11546588472699D+03

 The electronic state is 1-A.
 Alpha  occ. eigenvalues --  -19.68489 -10.69853  -1.24973  -0.83323  -0.62244
 Alpha  occ. eigenvalues --   -0.51693  -0.48779  -0.38475  -0.36045
 Alpha virt. eigenvalues --    0.04975   0.09380   0.10742   0.12122   0.14634
 Alpha virt. eigenvalues --    0.16403   0.17505   0.28852   0.31992   0.33000
 Alpha virt. eigenvalues --    0.33775   0.38585   0.39149   0.39966   0.42287

 Mulliken charges:
               1
     1  C    0.049016
     2  O   -0.204025
     3  H    0.060454
     4  H    0.059532
     5  H    0.074921
     6  H   -0.039898
 Sum of Mulliken charges =   0.00000

 Dipole moment (field-independent basis, Debye):
    X=              0.6802    Y=             -1.1614    Z=              0.0888  Tot=              1.3489
 Quadrupole moment (field-independent basis, Debye-Ang):
   XX=            -12.6729   YY=            -12.6215   ZZ=            -13.6435
   XY=              1.4845   XZ=             -0.0195   YZ=              0.0020

 Normal termination of Gaussian 09 at Wed Aug 26 23:49:06 2020.
