 Gaussian 09, Revision D.01,
 Gaussian 09:  ES64L-G09RevD.01 24-Apr-2013

 --------------------
 #p B2PLYPD3/Def2QZVP
 --------------------

 --------
 methanol
 --------
 Symbolic Z-matrix:
 Charge =  0 Multiplicity = 1

                         Standard orientation:
 ---------------------------------------------------------------------
 Center     Atomic      Atomic             Coordinates (Angstroms)
 Number     Number       Type             X           Y           Z
 ---------------------------------------------------------------------
      1          6           0       -0.674917   -0.021471    0.000077
      2          8           0        0.746243    0.094983   -0.009527
      3          1           0       -1.039922   -0.423182    0.981741
      4          1           0       -0.979038   -0.681883   -0.871470
      5          1           0       -1.063459    1.039103   -0.119090
      6          1           0        1.161982   -0.565075    0.084574
 ---------------------------------------------------------------------

 SCF Done:  E(RB2PLYPD3) =  -115.506341966     A.U. after   10 cycles
 E2(B2PLYPD3) =    -0.1447487097D+00 E(B2PLYPD3) =    -0.11565109067581D+03

 The electronic state is 1-A.
 Alpha  occ. eigenvalues --  -19.70313 -10.67433  -1.20146  -0.80374  -0.60469
 Alpha  occ. eigenvalues --   -0.51802  -0.49968  -0.40365  -0.35704
 Alpha virt. eigenvalues --    0.05442   0.08907   0.12037   0.12146   0.14514
 Alpha virt. eigenvalues --    0.16855   0.17845   0.29011   0.32527   0.33224
 Alpha virt. eigenvalues --    0.37469   0.38867   0.39851   0.40105   0.42646

 Mulliken charges:
               1
     1  C    0.062690
     2  O   -0.349830
     3  H    0.053317
     4  H    0.052663
     5  H    0.078233
     6  H    0.102928
 Sum of Mulliken charges =   0.00000

 Dipole moment (field-independent basis, Debye):
    X=             -0.8439    Y=             -1.2828    Z=              0.1961  Tot=              1.5480
 Quadrupole moment (field-independent basis, Debye-Ang):
   XX=            -12.8888   YY=            -12.5414   ZZ=            -13.5638
   XY=             -2.0759   XZ=              0.2056   YZ=             -0.0956

 Normal termination of Gaussian 09 at Wed Aug 26 13:40:22 2020.
