 Gaussian 09, Revision D.01,
 Gaussian 09:  ES64L-G09RevD.01 24-Apr-2013

 --------------------
 #p B2PLYPD3/Def2QZVP
 --------------------

 --------
 methanol
 --------
 Symbolic Z-matrix:
 Charge =  0 Multiplicity = 1

                         Standard orientation:
 ---------------------------------------------------------------------
 Center     Atomic      Atomic             Coordinates (Angstroms)
 Number     Number       Type             X           Y           Z
 ---------------------------------------------------------------------
      1          6           0       -0.674830    0.011218    0.005188
      2          8           0        0.747456   -0.132493   -0.012954
      3          1           0       -1.059738    0.589553   -0.861714
      4          1           0       -1.012849    0.502030    0.878132
      5          1           0       -1.047791   -0.933479   -0.003560
      6          1           0        1.189704    0.834533    0.059644
 ---------------------------------------------------------------------

 SCF Done:  E(RB2PLYPD3) =  -115.537910007     A.U. after   11 cycles
 E2(B2PLYPD3) =    -0.1490389302D+00 E(B2PLYPD3) =    -0.11568694893739D+03

 The electronic state is 1-A.
 Alpha  occ. eigenvalues --  -19.73238 -10.64556  -1.13864  -0.78831  -0.57357
 Alpha  occ. eigenvalues --   -0.51257  -0.50106  -0.41150  -0.35014
 Alpha virt. eigenvalues --    0.04168   0.07899   0.12509   0.12647   0.14935
 Alpha virt. eigenvalues --    0.17171   0.18143   0.29125   0.31434   0.33354
 Alpha virt. eigenvalues --    0.33590   0.38835   0.40489   0.40745   0.43961

 Mulliken charges:
               1
     1  C    0.077687
     2  O   -0.489553
     3  H    0.043297
     4  H    0.046193
     5  H    0.075406
     6  H    0.246970
 Sum of Mulliken charges =   0.00000

 Dipole moment (field-independent basis, Debye):
    X=             -0.8862    Y=              1.5442    Z=              0.1775  Tot=              1.7893
 Quadrupole moment (field-independent basis, Debye-Ang):
   XX=            -12.8881   YY=            -12.0192   ZZ=            -13.8822
   XY=              2.4039   XZ=              0.1254   YZ=              0.1015

 Normal termination of Gaussian 09 at Thu Aug 27 00:09:38 2020.
