 Gaussian 09, Revision D.01,
 Gaussian 09:  ES64L-G09RevD.01 24-Apr-2013

 --------------------
 #p B2PLYPD3/Def2QZVP
 --------------------

 --------
 methanol
 --------
 Symbolic Z-matrix:
 Charge =  0 Multiplicity = 1

                         Standard orientation:
 ---------------------------------------------------------------------
 Center     Atomic      Atomic             Coordinates (Angstroms)
 Number     Number       Type             X           Y           Z
 ---------------------------------------------------------------------
      1          6           0        0.659148    0.042677    0.004042
      2          8           0       -0.736887   -0.175707   -0.006187
      3          1           0        0.936658    0.483359    0.821724
      4          1           0        1.004995    0.580745   -0.766802
      5          1           0        1.205666   -0.886026   -0.036194
      6          1           0       -1.207116    0.971512    0.006515
 ---------------------------------------------------------------------

 SCF Done:  E(RB2PLYPD3) =  -115.487602472     A.U. after   11 cycles
 E2(B2PLYPD3) =    -0.1518678675D+00 E(B2PLYPD3) =    -0.11563947033963D+03

 The electronic state is 1-A.
 Alpha  occ. eigenvalues --  -19.74429 -10.62631  -1.12760  -0.79453  -0.55337
 Alpha  occ. eigenvalues --   -0.53605  -0.49321  -0.39949  -0.35265
 Alpha virt. eigenvalues --    0.01663   0.07552   0.12698   0.12914   0.14740
 Alpha virt. eigenvalues --    0.18095   0.18196   0.25206   0.29592   0.33383
 Alpha virt. eigenvalues --    0.34357   0.39091   0.40216   0.43305   0.43632

 Mulliken charges:
               1
     1  C    0.100162
     2  O   -0.493586
     3  H    0.046434
     4  H    0.040805
     5  H    0.053663
     6  H    0.252522
 Sum of Mulliken charges =   0.00000

 Dipole moment (field-independent basis, Debye):
    X=              0.9389    Y=              1.7890    Z=              0.0454  Tot=              2.0210
 Quadrupole moment (field-independent basis, Debye-Ang):
   XX=            -12.8098   YY=            -11.8299   ZZ=            -13.9071
   XY=             -2.5003   XZ=             -0.0590   YZ=              0.0214

 Normal termination of Gaussian 09 at Wed Aug 26 15:43:53 2020.
