 Gaussian 09, Revision D.01,
 Gaussian 09:  ES64L-G09RevD.01 24-Apr-2013

 --------------------
 #p B2PLYPD3/Def2QZVP
 --------------------

 --------
 methanol
 --------
 Symbolic Z-matrix:
 Charge =  0 Multiplicity = 1

                         Standard orientation:
 ---------------------------------------------------------------------
 Center     Atomic      Atomic             Coordinates (Angstroms)
 Number     Number       Type             X           Y           Z
 ---------------------------------------------------------------------
      1          6           0        0.653894   -0.021559   -0.000816
      2          8           0       -0.749052    0.106074    0.005969
      3          1           0        1.011064   -0.548410   -0.918593
      4          1           0        1.072155   -0.520603    0.924828
      5          1           0        1.076959    1.021420   -0.035701
      6          1           0       -1.091124   -0.671640   -0.013396
 ---------------------------------------------------------------------

 SCF Done:  E(RB2PLYPD3) =  -115.537512927     A.U. after   10 cycles
 E2(B2PLYPD3) =    -0.1456991334D+00 E(B2PLYPD3) =    -0.11568321206021D+03

 The electronic state is 1-A.
 Alpha  occ. eigenvalues --  -19.71773 -10.66812  -1.19456  -0.79106  -0.60308
 Alpha  occ. eigenvalues --   -0.51760  -0.50049  -0.41023  -0.35746
 Alpha virt. eigenvalues --    0.05312   0.08628   0.12138   0.12261   0.14740
 Alpha virt. eigenvalues --    0.17243   0.18159   0.28869   0.33211   0.33657
 Alpha virt. eigenvalues --    0.37054   0.38569   0.39903   0.40131   0.43210

 Mulliken charges:
               1
     1  C    0.058426
     2  O   -0.389788
     3  H    0.048342
     4  H    0.048849
     5  H    0.068342
     6  H    0.165829
 Sum of Mulliken charges =   0.00000

 Dipole moment (field-independent basis, Debye):
    X=              0.8601    Y=             -1.3949    Z=             -0.0566  Tot=              1.6398
 Quadrupole moment (field-independent basis, Debye-Ang):
   XX=            -13.1643   YY=            -12.4262   ZZ=            -13.6956
   XY=              2.0928   XZ=              0.0698   YZ=              0.0195

 Normal termination of Gaussian 09 at Wed Aug 26 10:21:50 2020.
