 Gaussian 09, Revision D.01,
 Gaussian 09:  ES64L-G09RevD.01 24-Apr-2013

 --------------------
 #p B2PLYPD3/Def2QZVP
 --------------------

 --------
 methanol
 --------
 Symbolic Z-matrix:
 Charge =  0 Multiplicity = 1

                         Standard orientation:
 ---------------------------------------------------------------------
 Center     Atomic      Atomic             Coordinates (Angstroms)
 Number     Number       Type             X           Y           Z
 ---------------------------------------------------------------------
      1          6           0       -0.671655   -0.023290    0.006962
      2          8           0        0.747679    0.096542   -0.015421
      3          1           0       -1.005181   -0.401282    0.972859
      4          1           0       -1.038410   -0.703630   -0.836997
      5          1           0       -1.060211    1.061954   -0.131788
      6          1           0        1.152300   -0.589640    0.077521
 ---------------------------------------------------------------------

 SCF Done:  E(RB2PLYPD3) =  -115.514901784     A.U. after   10 cycles
 E2(B2PLYPD3) =    -0.1450381202D+00 E(B2PLYPD3) =    -0.11565993990415D+03

 The electronic state is 1-A.
 Alpha  occ. eigenvalues --  -19.70678 -10.67349  -1.19822  -0.79994  -0.60620
 Alpha  occ. eigenvalues --   -0.51744  -0.49542  -0.40554  -0.35772
 Alpha virt. eigenvalues --    0.05390   0.08832   0.11921   0.12187   0.14718
 Alpha virt. eigenvalues --    0.16861   0.17867   0.29027   0.32882   0.33162
 Alpha virt. eigenvalues --    0.37037   0.38537   0.39800   0.40543   0.42529

 Mulliken charges:
               1
     1  C    0.062135
     2  O   -0.363040
     3  H    0.057474
     4  H    0.049638
     5  H    0.073442
     6  H    0.120352
 Sum of Mulliken charges =   0.00000

 Dipole moment (field-independent basis, Debye):
    X=             -0.8397    Y=             -1.3368    Z=              0.2340  Tot=              1.5959
 Quadrupole moment (field-independent basis, Debye-Ang):
   XX=            -12.9452   YY=            -12.4725   ZZ=            -13.6353
   XY=             -2.0221   XZ=              0.2303   YZ=             -0.1201

 Normal termination of Gaussian 09 at Wed Aug 26 16:14:05 2020.
