 Gaussian 09, Revision D.01,
 Gaussian 09:  ES64L-G09RevD.01 24-Apr-2013

 --------------------
 #p B2PLYPD3/Def2QZVP
 --------------------

 --------
 methanol
 --------
 Symbolic Z-matrix:
 Charge =  0 Multiplicity = 1

                         Standard orientation:
 ---------------------------------------------------------------------
 Center     Atomic      Atomic             Coordinates (Angstroms)
 Number     Number       Type             X           Y           Z
 ---------------------------------------------------------------------
      1          6           0        0.666258   -0.018756    0.004985
      2          8           0       -0.741466    0.109236   -0.011776
      3          1           0        0.978793   -0.680577   -0.858119
      4          1           0        1.042720   -0.423430    0.937826
      5          1           0        1.058819    1.008330   -0.111300
      6          1           0       -1.146149   -0.665676    0.095892
 ---------------------------------------------------------------------

 SCF Done:  E(RB2PLYPD3) =  -115.545552321     A.U. after   10 cycles
 E2(B2PLYPD3) =    -0.1458833901D+00 E(B2PLYPD3) =    -0.11569143571149D+03

 The electronic state is 1-A.
 Alpha  occ. eigenvalues --  -19.71569 -10.66255  -1.17954  -0.79266  -0.59816
 Alpha  occ. eigenvalues --   -0.51856  -0.50032  -0.40862  -0.35376
 Alpha virt. eigenvalues --    0.05272   0.08602   0.12228   0.12324   0.14809
 Alpha virt. eigenvalues --    0.17039   0.17941   0.29115   0.32902   0.33836
 Alpha virt. eigenvalues --    0.37186   0.38849   0.39564   0.40851   0.43279

 Mulliken charges:
               1
     1  C    0.067211
     2  O   -0.424289
     3  H    0.045015
     4  H    0.051235
     5  H    0.073932
     6  H    0.186896
 Sum of Mulliken charges =   0.00000

 Dipole moment (field-independent basis, Debye):
    X=              0.8163    Y=             -1.3956    Z=              0.2401  Tot=              1.6345
 Quadrupole moment (field-independent basis, Debye-Ang):
   XX=            -13.0017   YY=            -12.3563   ZZ=            -13.6906
   XY=              2.1806   XZ=             -0.1677   YZ=             -0.1496

 Normal termination of Gaussian 09 at Thu Aug 27 00:07:33 2020.
