 Gaussian 09, Revision D.01,
 Gaussian 09:  ES64L-G09RevD.01 24-Apr-2013

 --------------------
 #p B2PLYPD3/Def2QZVP
 --------------------

 --------
 methanol
 --------
 Symbolic Z-matrix:
 Charge =  0 Multiplicity = 1

                         Standard orientation:
 ---------------------------------------------------------------------
 Center     Atomic      Atomic             Coordinates (Angstroms)
 Number     Number       Type             X           Y           Z
 ---------------------------------------------------------------------
      1          6           0        0.648704    0.020518    0.009309
      2          8           0       -0.744329   -0.139613   -0.015146
      3          1           0        1.042105    0.402833    0.859798
      4          1           0        1.052105    0.667633   -0.787822
      5          1           0        1.089251   -0.958860   -0.090944
      6          1           0       -1.121057    0.882184    0.084286
 ---------------------------------------------------------------------

 SCF Done:  E(RB2PLYPD3) =  -115.531132448     A.U. after   11 cycles
 E2(B2PLYPD3) =    -0.1495224284D+00 E(B2PLYPD3) =    -0.11568065487614D+03

 The electronic state is 1-A.
 Alpha  occ. eigenvalues --  -19.73982 -10.64371  -1.14859  -0.78531  -0.57793
 Alpha  occ. eigenvalues --   -0.51778  -0.49684  -0.41055  -0.35201
 Alpha virt. eigenvalues --    0.03731   0.07834   0.12398   0.12765   0.15164
 Alpha virt. eigenvalues --    0.17496   0.18311   0.28797   0.30202   0.33480
 Alpha virt. eigenvalues --    0.34894   0.38519   0.39382   0.41633   0.44692

 Mulliken charges:
               1
     1  C    0.077856
     2  O   -0.470498
     3  H    0.046304
     4  H    0.034893
     5  H    0.061279
     6  H    0.250167
 Sum of Mulliken charges =   0.00000

 Dipole moment (field-independent basis, Debye):
    X=              0.8808    Y=              1.6307    Z=              0.2474  Tot=              1.8698
 Quadrupole moment (field-independent basis, Debye-Ang):
   XX=            -13.1286   YY=            -11.9234   ZZ=            -13.9923
   XY=             -2.2594   XZ=             -0.1003   YZ=              0.1626

 Normal termination of Gaussian 09 at Wed Aug 26 11:17:23 2020.
