 Gaussian 09, Revision D.01,
 Gaussian 09:  ES64L-G09RevD.01 24-Apr-2013

 --------------------
 #p B2PLYPD3/Def2QZVP
 --------------------

 --------
 methanol
 --------
 Symbolic Z-matrix:
 Charge =  0 Multiplicity = 1

                         Standard orientation:
 ---------------------------------------------------------------------
 Center     Atomic      Atomic             Coordinates (Angstroms)
 Number     Number       Type             X           Y           Z
 ---------------------------------------------------------------------
      1          6           0        0.680616    0.027427   -0.002445
      2          8           0       -0.751250   -0.150936    0.004963
      3          1           0        1.026750    0.500050    0.837979
      4          1           0        1.026654    0.545220   -0.786264
      5          1           0        1.029848   -0.958036   -0.046716
      6          1           0       -1.156942    0.955688   -0.030035
 ---------------------------------------------------------------------

 SCF Done:  E(RB2PLYPD3) =  -115.508818248     A.U. after   11 cycles
 E2(B2PLYPD3) =    -0.1514111513D+00 E(B2PLYPD3) =    -0.11566022939914D+03

 The electronic state is 1-A.
 Alpha  occ. eigenvalues --  -19.74077 -10.63249  -1.12316  -0.79295  -0.56556
 Alpha  occ. eigenvalues --   -0.52548  -0.48216  -0.41227  -0.35326
 Alpha virt. eigenvalues --    0.02807   0.07763   0.12334   0.12829   0.15014
 Alpha virt. eigenvalues --    0.17127   0.18146   0.27038   0.29603   0.33398
 Alpha virt. eigenvalues --    0.33751   0.38954   0.39495   0.42661   0.44806

 Mulliken charges:
               1
     1  C    0.091411
     2  O   -0.497036
     3  H    0.047926
     4  H    0.045152
     5  H    0.066419
     6  H    0.246128
 Sum of Mulliken charges =   0.00000

 Dipole moment (field-independent basis, Debye):
    X=              1.0705    Y=              1.7018    Z=             -0.0767  Tot=              2.0120
 Quadrupole moment (field-independent basis, Debye-Ang):
   XX=            -13.1576   YY=            -11.6379   ZZ=            -13.9084
   XY=             -2.2358   XZ=              0.0330   YZ=             -0.0441

 Normal termination of Gaussian 09 at Wed Aug 26 15:32:07 2020.
