 Gaussian 09, Revision D.01,
 Gaussian 09:  ES64L-G09RevD.01 24-Apr-2013

 --------------------
 #p B2PLYPD3/Def2QZVP
 --------------------

 --------
 methanol
 --------
 Symbolic Z-matrix:
 Charge =  0 Multiplicity = 1

                         Standard orientation:
 ---------------------------------------------------------------------
 Center     Atomic      Atomic             Coordinates (Angstroms)
 Number     Number       Type             X           Y           Z
 ---------------------------------------------------------------------
      1          6           0        0.656937    0.019934    0.012649
      2          8           0       -0.742769   -0.150475   -0.021751
      3          1           0        1.032607    0.345900    0.907443
      4          1           0        1.073182    0.675729   -0.800736
      5          1           0        1.096754   -0.861272   -0.116205
      6          1           0       -1.202012    0.923843    0.107611
 ---------------------------------------------------------------------

 SCF Done:  E(RB2PLYPD3) =  -115.509096095     A.U. after   11 cycles
 E2(B2PLYPD3) =    -0.1509842500D+00 E(B2PLYPD3) =    -0.11566008034505D+03

 The electronic state is 1-A.
 Alpha  occ. eigenvalues --  -19.74339 -10.63750  -1.13435  -0.78977  -0.56048
 Alpha  occ. eigenvalues --   -0.51626  -0.50375  -0.40381  -0.35112
 Alpha virt. eigenvalues --    0.02707   0.07587   0.12532   0.12971   0.14880
 Alpha virt. eigenvalues --    0.17513   0.18637   0.26887   0.29457   0.33512
 Alpha virt. eigenvalues --    0.34502   0.38228   0.40902   0.41464   0.43612

 Mulliken charges:
               1
     1  C    0.077711
     2  O   -0.485490
     3  H    0.048189
     4  H    0.035710
     5  H    0.065638
     6  H    0.258242
 Sum of Mulliken charges =   0.00000

 Dipole moment (field-independent basis, Debye):
    X=              0.8470    Y=              1.5693    Z=              0.2807  Tot=              1.8052
 Quadrupole moment (field-independent basis, Debye-Ang):
   XX=            -12.7966   YY=            -12.0439   ZZ=            -13.9005
   XY=             -2.5677   XZ=             -0.2123   YZ=              0.1955

 Normal termination of Gaussian 09 at Wed Aug 26 10:31:38 2020.
