 Gaussian 09, Revision D.01,
 Gaussian 09:  ES64L-G09RevD.01 24-Apr-2013

 --------------------
 #p B2PLYPD3/Def2QZVP
 --------------------

 --------
 methanol
 --------
 Symbolic Z-matrix:
 Charge =  0 Multiplicity = 1

                         Standard orientation:
 ---------------------------------------------------------------------
 Center     Atomic      Atomic             Coordinates (Angstroms)
 Number     Number       Type             X           Y           Z
 ---------------------------------------------------------------------
      1          6           0       -0.660588   -0.018555    0.014128
      2          8           0        0.748657    0.109696   -0.025112
      3          1           0       -1.017237   -0.352803    0.971564
      4          1           0       -1.090472   -0.699194   -0.835482
      5          1           0       -1.069517    0.981948   -0.138054
      6          1           0        1.151498   -0.696192    0.118101
 ---------------------------------------------------------------------

 SCF Done:  E(RB2PLYPD3) =  -115.547745611     A.U. after   10 cycles
 E2(B2PLYPD3) =    -0.1466524728D+00 E(B2PLYPD3) =    -0.11569439808361D+03

 The electronic state is 1-A.
 Alpha  occ. eigenvalues --  -19.72280 -10.66364  -1.17339  -0.78922  -0.59394
 Alpha  occ. eigenvalues --   -0.51385  -0.50107  -0.40794  -0.35505
 Alpha virt. eigenvalues --    0.05183   0.08279   0.12149   0.12488   0.14788
 Alpha virt. eigenvalues --    0.17145   0.18320   0.28943   0.33190   0.33668
 Alpha virt. eigenvalues --    0.36059   0.38398   0.39530   0.40625   0.43683

 Mulliken charges:
               1
     1  C    0.062394
     2  O   -0.435573
     3  H    0.054674
     4  H    0.040646
     5  H    0.071726
     6  H    0.206133
 Sum of Mulliken charges =   0.00000

 Dipole moment (field-independent basis, Debye):
    X=             -0.8053    Y=             -1.3739    Z=              0.3442  Tot=              1.6293
 Quadrupole moment (field-independent basis, Debye-Ang):
   XX=            -12.9320   YY=            -12.4702   ZZ=            -13.7167
   XY=             -2.2239   XZ=              0.3203   YZ=             -0.2160

 Normal termination of Gaussian 09 at Wed Aug 26 23:23:38 2020.
