 Gaussian 09, Revision D.01,
 Gaussian 09:  ES64L-G09RevD.01 24-Apr-2013

 --------------------
 #p B2PLYPD3/Def2QZVP
 --------------------

 --------
 methanol
 --------
 Symbolic Z-matrix:
 Charge =  0 Multiplicity = 1

                         Standard orientation:
 ---------------------------------------------------------------------
 Center     Atomic      Atomic             Coordinates (Angstroms)
 Number     Number       Type             X           Y           Z
 ---------------------------------------------------------------------
      1          6           0        0.644891    0.004102    0.001507
      2          8           0       -0.737188   -0.163570   -0.005641
      3          1           0        1.068525    0.456958    0.845585
      4          1           0        1.188596    0.571275   -0.756667
      5          1           0        0.960369   -0.857645   -0.049353
      6          1           0       -1.189336    1.113358   -0.003483
 ---------------------------------------------------------------------

 SCF Done:  E(RB2PLYPD3) =  -115.444801176     A.U. after   11 cycles
 E2(B2PLYPD3) =    -0.1549817729D+00 E(B2PLYPD3) =    -0.11559978294881D+03

 The electronic state is 1-A.
 Alpha  occ. eigenvalues --  -19.75716 -10.62634  -1.13358  -0.79429  -0.56648
 Alpha  occ. eigenvalues --   -0.50760  -0.49842  -0.40343  -0.34682
 Alpha virt. eigenvalues --   -0.00632   0.07359   0.12607   0.13074   0.15284
 Alpha virt. eigenvalues --    0.17130   0.18612   0.22806   0.29547   0.33514
 Alpha virt. eigenvalues --    0.35456   0.37238   0.39518   0.41444   0.44040

 Mulliken charges:
               1
     1  C    0.062305
     2  O   -0.462576
     3  H    0.039538
     4  H    0.032054
     5  H    0.083483
     6  H    0.245197
 Sum of Mulliken charges =   0.00000

 Dipole moment (field-independent basis, Debye):
    X=              0.9120    Y=              1.6483    Z=              0.0413  Tot=              1.8842
 Quadrupole moment (field-independent basis, Debye-Ang):
   XX=            -13.0539   YY=            -11.3906   ZZ=            -14.2902
   XY=             -2.3712   XZ=             -0.0194   YZ=              0.0527

 Normal termination of Gaussian 09 at Wed Aug 26 21:58:03 2020.
