 Gaussian 09, Revision D.01,
 Gaussian 09:  ES64L-G09RevD.01 24-Apr-2013

 --------------------
 #p B2PLYPD3/Def2QZVP
 --------------------

 --------
 methanol
 --------
 Symbolic Z-matrix:
 Charge =  0 Multiplicity = 1

                         Standard orientation:
 ---------------------------------------------------------------------
 Center     Atomic      Atomic             Coordinates (Angstroms)
 Number     Number       Type             X           Y           Z
 ---------------------------------------------------------------------
      1          6           0        0.669166   -0.020535    0.002493
      2          8           0       -0.747493    0.128142   -0.003980
      3          1           0        1.031274   -0.553730   -0.866194
      4          1           0        0.971026   -0.562206    0.869392
      5          1           0        1.107129    0.981800    0.013737
      6          1           0       -1.144477   -0.767786   -0.000053
 ---------------------------------------------------------------------

 SCF Done:  E(RB2PLYPD3) =  -115.551570996     A.U. after   10 cycles
 E2(B2PLYPD3) =    -0.1475065364D+00 E(B2PLYPD3) =    -0.11569907753246D+03

 The electronic state is 1-A.
 Alpha  occ. eigenvalues --  -19.72566 -10.65274  -1.15544  -0.78708  -0.58455
 Alpha  occ. eigenvalues --   -0.51958  -0.49710  -0.41153  -0.35264
 Alpha virt. eigenvalues --    0.04826   0.08208   0.12382   0.12484   0.14866
 Alpha virt. eigenvalues --    0.17399   0.17884   0.29252   0.33109   0.33425
 Alpha virt. eigenvalues --    0.34482   0.39036   0.39875   0.41174   0.44328

 Mulliken charges:
               1
     1  C    0.076903
     2  O   -0.469825
     3  H    0.046183
     4  H    0.047481
     5  H    0.070498
     6  H    0.228760
 Sum of Mulliken charges =   0.00000

 Dipole moment (field-independent basis, Debye):
    X=              0.9071    Y=             -1.5514    Z=              0.0235  Tot=              1.7973
 Quadrupole moment (field-independent basis, Debye-Ang):
   XX=            -13.0265   YY=            -12.1217   ZZ=            -13.8228
   XY=              2.2915   XZ=             -0.0406   YZ=             -0.0129

 Normal termination of Gaussian 09 at Thu Aug 27 00:15:32 2020.
