 Gaussian 09, Revision D.01,
 Gaussian 09:  ES64L-G09RevD.01 24-Apr-2013

 --------------------
 #p B2PLYPD3/Def2QZVP
 --------------------

 --------
 methanol
 --------
 Symbolic Z-matrix:
 Charge =  0 Multiplicity = 1

                         Standard orientation:
 ---------------------------------------------------------------------
 Center     Atomic      Atomic             Coordinates (Angstroms)
 Number     Number       Type             X           Y           Z
 ---------------------------------------------------------------------
      1          6           0       -0.690911    0.024545   -0.012554
      2          8           0        0.743715   -0.168539   -0.007450
      3          1           0       -1.135605    0.495793   -0.775057
      4          1           0       -0.898261    0.584291    0.836344
      5          1           0       -1.047097   -0.876991    0.099250
      6          1           0        1.276710    0.997948   -0.025609
 ---------------------------------------------------------------------

 SCF Done:  E(RB2PLYPD3) =  -115.474870027     A.U. after   11 cycles
 E2(B2PLYPD3) =    -0.1533735936D+00 E(B2PLYPD3) =    -0.11562824362084D+03

 The electronic state is 1-A.
 Alpha  occ. eigenvalues --  -19.74434 -10.62600  -1.11179  -0.79677  -0.55892
 Alpha  occ. eigenvalues --   -0.52193  -0.48622  -0.40359  -0.34880
 Alpha virt. eigenvalues --    0.01109   0.07556   0.12577   0.12915   0.14669
 Alpha virt. eigenvalues --    0.17100   0.18358   0.24583   0.29420   0.32335
 Alpha virt. eigenvalues --    0.34380   0.38475   0.40107   0.42572   0.44570

 Mulliken charges:
               1
     1  C    0.091333
     2  O   -0.501916
     3  H    0.048949
     4  H    0.043489
     5  H    0.071101
     6  H    0.247044
 Sum of Mulliken charges =   0.00000

 Dipole moment (field-independent basis, Debye):
    X=             -0.9910    Y=              1.6856    Z=             -0.0168  Tot=              1.9554
 Quadrupole moment (field-independent basis, Debye-Ang):
   XX=            -12.6735   YY=            -11.6782   ZZ=            -13.9827
   XY=              2.5521   XZ=              0.1476   YZ=             -0.1000

 Normal termination of Gaussian 09 at Wed Aug 26 19:59:41 2020.
