 Gaussian 09, Revision D.01,
 Gaussian 09:  ES64L-G09RevD.01 24-Apr-2013

 --------------------
 #p B2PLYPD3/Def2QZVP
 --------------------

 --------
 methanol
 --------
 Symbolic Z-matrix:
 Charge =  0 Multiplicity = 1

                         Standard orientation:
 ---------------------------------------------------------------------
 Center     Atomic      Atomic             Coordinates (Angstroms)
 Number     Number       Type             X           Y           Z
 ---------------------------------------------------------------------
      1          6           0        0.661773    0.028659   -0.008424
      2          8           0       -0.734966   -0.146256    0.001261
      3          1           0        0.989382    0.507325    0.873603
      4          1           0        1.000890    0.571884   -0.802406
      5          1           0        1.088788   -0.948742   -0.024928
      6          1           0       -1.169968    0.867627   -0.005813
 ---------------------------------------------------------------------

 SCF Done:  E(RB2PLYPD3) =  -115.531359094     A.U. after   11 cycles
 E2(B2PLYPD3) =    -0.1493052830D+00 E(B2PLYPD3) =    -0.11568066437679D+03

 The electronic state is 1-A.
 Alpha  occ. eigenvalues --  -19.73468 -10.63795  -1.14197  -0.78661  -0.57430
 Alpha  occ. eigenvalues --   -0.52549  -0.49567  -0.40799  -0.35054
 Alpha virt. eigenvalues --    0.03723   0.07949   0.12511   0.12741   0.15012
 Alpha virt. eigenvalues --    0.17395   0.18098   0.28905   0.30193   0.33364
 Alpha virt. eigenvalues --    0.34604   0.39261   0.39812   0.42316   0.44544

 Mulliken charges:
               1
     1  C    0.083874
     2  O   -0.485340
     3  H    0.043369
     4  H    0.044422
     5  H    0.064788
     6  H    0.248887
 Sum of Mulliken charges =   0.00000

 Dipole moment (field-independent basis, Debye):
    X=              0.8663    Y=              1.6518    Z=             -0.0373  Tot=              1.8655
 Quadrupole moment (field-independent basis, Debye-Ang):
   XX=            -12.9934   YY=            -11.9295   ZZ=            -13.8602
   XY=             -2.3642   XZ=             -0.0348   YZ=             -0.0548

 Normal termination of Gaussian 09 at Wed Aug 26 14:19:02 2020.
