 Gaussian 09, Revision D.01,
 Gaussian 09:  ES64L-G09RevD.01 24-Apr-2013

 --------------------
 #p B2PLYPD3/Def2QZVP
 --------------------

 --------
 methanol
 --------
 Symbolic Z-matrix:
 Charge =  0 Multiplicity = 1

                         Standard orientation:
 ---------------------------------------------------------------------
 Center     Atomic      Atomic             Coordinates (Angstroms)
 Number     Number       Type             X           Y           Z
 ---------------------------------------------------------------------
      1          6           0        0.656886   -0.027365   -0.004440
      2          8           0       -0.736630    0.093507   -0.001684
      3          1           0        0.995683   -0.622230   -0.869613
      4          1           0        0.925569   -0.493981    0.988734
      5          1           0        1.075467    1.080872   -0.058604
      6          1           0       -1.044994   -0.548531   -0.020402
 ---------------------------------------------------------------------

 SCF Done:  E(RB2PLYPD3) =  -115.439161564     A.U. after   10 cycles
 E2(B2PLYPD3) =    -0.1436071673D+00 E(B2PLYPD3) =    -0.11558276873108D+03

 The electronic state is 1-A.
 Alpha  occ. eigenvalues --  -19.69670 -10.67434  -1.24366  -0.80975  -0.61782
 Alpha  occ. eigenvalues --   -0.52832  -0.49998  -0.41006  -0.35901
 Alpha virt. eigenvalues --    0.05371   0.09436   0.11796   0.12010   0.14532
 Alpha virt. eigenvalues --    0.16984   0.17580   0.28703   0.32711   0.33592
 Alpha virt. eigenvalues --    0.36475   0.38829   0.40243   0.41111   0.43378

 Mulliken charges:
               1
     1  C    0.056963
     2  O   -0.257716
     3  H    0.052000
     4  H    0.050291
     5  H    0.068857
     6  H    0.029606
 Sum of Mulliken charges =   0.00000

 Dipole moment (field-independent basis, Debye):
    X=              0.8854    Y=             -1.3120    Z=             -0.0632  Tot=              1.5841
 Quadrupole moment (field-independent basis, Debye-Ang):
   XX=            -13.4039   YY=            -12.3987   ZZ=            -13.4549
   XY=              1.8987   XZ=             -0.0760   YZ=              0.0741

 Normal termination of Gaussian 09 at Wed Aug 26 13:38:22 2020.
