 Gaussian 09, Revision D.01,
 Gaussian 09:  ES64L-G09RevD.01 24-Apr-2013

 --------------------
 #p B2PLYPD3/Def2QZVP
 --------------------

 --------
 methanol
 --------
 Symbolic Z-matrix:
 Charge =  0 Multiplicity = 1

                         Standard orientation:
 ---------------------------------------------------------------------
 Center     Atomic      Atomic             Coordinates (Angstroms)
 Number     Number       Type             X           Y           Z
 ---------------------------------------------------------------------
      1          6           0        0.677106    0.045934   -0.007927
      2          8           0       -0.737756   -0.175387    0.001747
      3          1           0        0.975768    0.451228    0.855478
      4          1           0        0.930222    0.572877   -0.769003
      5          1           0        1.146646   -0.876964   -0.059775
      6          1           0       -1.213221    0.980351    0.006880
 ---------------------------------------------------------------------

 SCF Done:  E(RB2PLYPD3) =  -115.482508878     A.U. after   11 cycles
 E2(B2PLYPD3) =    -0.1521782757D+00 E(B2PLYPD3) =    -0.11563468715331D+03

 The electronic state is 1-A.
 Alpha  occ. eigenvalues --  -19.74159 -10.62182  -1.11936  -0.79745  -0.55488
 Alpha  occ. eigenvalues --   -0.53940  -0.48864  -0.40102  -0.35237
 Alpha virt. eigenvalues --    0.01680   0.07679   0.12624   0.12852   0.14635
 Alpha virt. eigenvalues --    0.17686   0.18169   0.25224   0.29488   0.33405
 Alpha virt. eigenvalues --    0.33579   0.39671   0.40341   0.43277   0.44421

 Mulliken charges:
               1
     1  C    0.103307
     2  O   -0.503759
     3  H    0.048032
     4  H    0.047599
     5  H    0.057450
     6  H    0.247371
 Sum of Mulliken charges =   0.00000

 Dipole moment (field-independent basis, Debye):
    X=              1.0323    Y=              1.7413    Z=             -0.0133  Tot=              2.0244
 Quadrupole moment (field-independent basis, Debye-Ang):
   XX=            -12.8936   YY=            -11.7704   ZZ=            -13.7573
   XY=             -2.5238   XZ=             -0.0112   YZ=             -0.0498

 Normal termination of Gaussian 09 at Wed Aug 26 11:32:48 2020.
