 Gaussian 09, Revision D.01,
 Gaussian 09:  ES64L-G09RevD.01 24-Apr-2013

 --------------------
 #p B2PLYPD3/Def2QZVP
 --------------------

 --------
 methanol
 --------
 Symbolic Z-matrix:
 Charge =  0 Multiplicity = 1

                         Standard orientation:
 ---------------------------------------------------------------------
 Center     Atomic      Atomic             Coordinates (Angstroms)
 Number     Number       Type             X           Y           Z
 ---------------------------------------------------------------------
      1          6           0        0.664768    0.028977   -0.002767
      2          8           0       -0.733479   -0.148771    0.004811
      3          1           0        1.026002    0.506197    0.863236
      4          1           0        0.950270    0.574615   -0.831734
      5          1           0        1.103475   -0.925079   -0.052144
      6          1           0       -1.200520    0.860572   -0.001245
 ---------------------------------------------------------------------

 SCF Done:  E(RB2PLYPD3) =  -115.530294394     A.U. after   11 cycles
 E2(B2PLYPD3) =    -0.1493904825D+00 E(B2PLYPD3) =    -0.11567968487632D+03

 The electronic state is 1-A.
 Alpha  occ. eigenvalues --  -19.73407 -10.63744  -1.13905  -0.78674  -0.57015
 Alpha  occ. eigenvalues --   -0.52611  -0.49843  -0.40505  -0.35008
 Alpha virt. eigenvalues --    0.03640   0.07894   0.12653   0.12702   0.14912
 Alpha virt. eigenvalues --    0.17435   0.18107   0.28811   0.29995   0.33299
 Alpha virt. eigenvalues --    0.34408   0.39604   0.40048   0.42330   0.44061

 Mulliken charges:
               1
     1  C    0.083623
     2  O   -0.490703
     3  H    0.045247
     4  H    0.044230
     5  H    0.066410
     6  H    0.251192
 Sum of Mulliken charges =   0.00000

 Dipole moment (field-independent basis, Debye):
    X=              0.8383    Y=              1.6344    Z=             -0.0341  Tot=              1.8371
 Quadrupole moment (field-independent basis, Debye-Ang):
   XX=            -12.8444   YY=            -12.0114   ZZ=            -13.8314
   XY=             -2.4662   XZ=              0.0398   YZ=             -0.0158

 Normal termination of Gaussian 09 at Wed Aug 26 23:18:20 2020.
