 Gaussian 09, Revision D.01,
 Gaussian 09:  ES64L-G09RevD.01 24-Apr-2013

 --------------------
 #p B2PLYPD3/Def2QZVP
 --------------------

 --------
 methanol
 --------
 Symbolic Z-matrix:
 Charge =  0 Multiplicity = 1

                         Standard orientation:
 ---------------------------------------------------------------------
 Center     Atomic      Atomic             Coordinates (Angstroms)
 Number     Number       Type             X           Y           Z
 ---------------------------------------------------------------------
      1          6           0       -0.680740   -0.056531    0.028758
      2          8           0        0.759228    0.081952   -0.030641
      3          1           0       -0.912540   -0.345742    1.004410
      4          1           0       -1.036646   -0.721907   -0.861924
      5          1           0       -1.169264    1.148962   -0.176454
      6          1           0        1.129065   -0.397750    0.106551
 ---------------------------------------------------------------------

 SCF Done:  E(RB2PLYPD3) =  -115.252245111     A.U. after   11 cycles
 E2(B2PLYPD3) =    -0.1438439826D+00 E(B2PLYPD3) =    -0.11539608909391D+03

 The electronic state is 1-A.
 Alpha  occ. eigenvalues --  -19.68355 -10.69407  -1.26672  -0.82626  -0.62157
 Alpha  occ. eigenvalues --   -0.53265  -0.48156  -0.39310  -0.36843
 Alpha virt. eigenvalues --    0.04942   0.09434   0.10904   0.11742   0.14017
 Alpha virt. eigenvalues --    0.16881   0.17829   0.28526   0.30981   0.31947
 Alpha virt. eigenvalues --    0.33070   0.37591   0.40428   0.42043   0.42811

 Mulliken charges:
               1
     1  C    0.055262
     2  O   -0.197286
     3  H    0.077774
     4  H    0.067097
     5  H    0.058736
     6  H   -0.061584
 Sum of Mulliken charges =   0.00000

 Dipole moment (field-independent basis, Debye):
    X=             -0.9879    Y=             -1.2354    Z=              0.4265  Tot=              1.6383
 Quadrupole moment (field-independent basis, Debye-Ang):
   XX=            -12.9429   YY=            -12.8781   ZZ=            -13.1639
   XY=             -1.6786   XZ=              0.4846   YZ=             -0.1353

 Normal termination of Gaussian 09 at Wed Aug 26 23:54:07 2020.
