 Gaussian 09, Revision D.01,
 Gaussian 09:  ES64L-G09RevD.01 24-Apr-2013

 --------------------
 #p B2PLYPD3/Def2QZVP
 --------------------

 --------
 methanol
 --------
 Symbolic Z-matrix:
 Charge =  0 Multiplicity = 1

                         Standard orientation:
 ---------------------------------------------------------------------
 Center     Atomic      Atomic             Coordinates (Angstroms)
 Number     Number       Type             X           Y           Z
 ---------------------------------------------------------------------
      1          6           0        0.665104    0.029147    0.005762
      2          8           0       -0.744305   -0.142779   -0.007932
      3          1           0        1.026130    0.457071    0.863727
      4          1           0        1.030286    0.628600   -0.804912
      5          1           0        1.116456   -0.957292   -0.070270
      6          1           0       -1.209059    0.838967    0.040342
 ---------------------------------------------------------------------

 SCF Done:  E(RB2PLYPD3) =  -115.535265674     A.U. after   11 cycles
 E2(B2PLYPD3) =    -0.1493005714D+00 E(B2PLYPD3) =    -0.11568456624510D+03

 The electronic state is 1-A.
 Alpha  occ. eigenvalues --  -19.73530 -10.64431  -1.13923  -0.78671  -0.57315
 Alpha  occ. eigenvalues --   -0.51973  -0.49423  -0.40649  -0.35222
 Alpha virt. eigenvalues --    0.03938   0.07763   0.12469   0.12769   0.15020
 Alpha virt. eigenvalues --    0.17404   0.18215   0.29039   0.30555   0.33571
 Alpha virt. eigenvalues --    0.34022   0.38804   0.39551   0.41949   0.44318

 Mulliken charges:
               1
     1  C    0.080340
     2  O   -0.487998
     3  H    0.049598
     4  H    0.043138
     5  H    0.064830
     6  H    0.250092
 Sum of Mulliken charges =   0.00000

 Dipole moment (field-independent basis, Debye):
    X=              0.8368    Y=              1.6356    Z=              0.1213  Tot=              1.8412
 Quadrupole moment (field-independent basis, Debye-Ang):
   XX=            -12.7304   YY=            -12.0823   ZZ=            -13.9359
   XY=             -2.3964   XZ=             -0.0653   YZ=              0.0760

 Normal termination of Gaussian 09 at Thu Aug 27 00:07:53 2020.
