 Gaussian 09, Revision D.01,
 Gaussian 09:  ES64L-G09RevD.01 24-Apr-2013

 --------------------
 #p B2PLYPD3/Def2QZVP
 --------------------

 --------
 methanol
 --------
 Symbolic Z-matrix:
 Charge =  0 Multiplicity = 1

                         Standard orientation:
 ---------------------------------------------------------------------
 Center     Atomic      Atomic             Coordinates (Angstroms)
 Number     Number       Type             X           Y           Z
 ---------------------------------------------------------------------
      1          6           0       -0.675230   -0.020405    0.006765
      2          8           0        0.749921    0.103647   -0.017245
      3          1           0       -0.965661   -0.451412    0.972088
      4          1           0       -1.061050   -0.637392   -0.875591
      5          1           0       -1.071243    1.015687   -0.062814
      6          1           0        1.149969   -0.633627    0.063689
 ---------------------------------------------------------------------

 SCF Done:  E(RB2PLYPD3) =  -115.534746727     A.U. after   10 cycles
 E2(B2PLYPD3) =    -0.1455810546D+00 E(B2PLYPD3) =    -0.11568032778135D+03

 The electronic state is 1-A.
 Alpha  occ. eigenvalues --  -19.71100 -10.66837  -1.18433  -0.79587  -0.59729
 Alpha  occ. eigenvalues --   -0.51746  -0.49964  -0.40734  -0.35622
 Alpha virt. eigenvalues --    0.05381   0.08656   0.12072   0.12311   0.14544
 Alpha virt. eigenvalues --    0.17008   0.17966   0.29028   0.32665   0.33190
 Alpha virt. eigenvalues --    0.37331   0.39139   0.39483   0.40232   0.43285

 Mulliken charges:
               1
     1  C    0.066117
     2  O   -0.405194
     3  H    0.054438
     4  H    0.049700
     5  H    0.076114
     6  H    0.158825
 Sum of Mulliken charges =   0.00000

 Dipole moment (field-independent basis, Debye):
    X=             -0.8833    Y=             -1.3518    Z=              0.1988  Tot=              1.6270
 Quadrupole moment (field-independent basis, Debye-Ang):
   XX=            -12.9710   YY=            -12.4587   ZZ=            -13.6044
   XY=             -2.1597   XZ=              0.2549   YZ=             -0.1014

 Normal termination of Gaussian 09 at Thu Aug 27 00:04:22 2020.
