 Gaussian 09, Revision D.01,
 Gaussian 09:  ES64L-G09RevD.01 24-Apr-2013

 --------------------
 #p B2PLYPD3/Def2QZVP
 --------------------

 --------
 methanol
 --------
 Symbolic Z-matrix:
 Charge =  0 Multiplicity = 1

                         Standard orientation:
 ---------------------------------------------------------------------
 Center     Atomic      Atomic             Coordinates (Angstroms)
 Number     Number       Type             X           Y           Z
 ---------------------------------------------------------------------
      1          6           0       -0.649562    0.017291    0.002489
      2          8           0        0.759691   -0.082450   -0.023348
      3          1           0       -0.977984    0.943536   -0.650420
      4          1           0       -1.114984    0.055175    1.070573
      5          1           0       -1.095409   -0.950385   -0.456125
      6          1           0        1.008227    0.507526    0.207819
 ---------------------------------------------------------------------

 SCF Done:  E(RB2PLYPD3) =  -115.391853542     A.U. after   11 cycles
 E2(B2PLYPD3) =    -0.1440131158D+00 E(B2PLYPD3) =    -0.11553586665778D+03

 The electronic state is 1-A.
 Alpha  occ. eigenvalues --  -19.70153 -10.68597  -1.26125  -0.80633  -0.61863
 Alpha  occ. eigenvalues --   -0.51832  -0.50314  -0.41407  -0.36303
 Alpha virt. eigenvalues --    0.05318   0.09123   0.11630   0.12022   0.14384
 Alpha virt. eigenvalues --    0.17215   0.18042   0.28205   0.32398   0.33282
 Alpha virt. eigenvalues --    0.35754   0.38090   0.38564   0.40532   0.43482

 Mulliken charges:
               1
     1  C    0.047212
     2  O   -0.227691
     3  H    0.045877
     4  H    0.050614
     5  H    0.073148
     6  H    0.010840
 Sum of Mulliken charges =   0.00000

 Dipole moment (field-independent basis, Debye):
    X=             -1.0024    Y=              1.1195    Z=              0.4408  Tot=              1.5660
 Quadrupole moment (field-independent basis, Debye-Ang):
   XX=            -13.3804   YY=            -12.6306   ZZ=            -13.4716
   XY=              1.8186   XZ=              0.5767   YZ=              0.2650

 Normal termination of Gaussian 09 at Wed Aug 26 15:04:57 2020.
