 Gaussian 09, Revision D.01,
 Gaussian 09:  ES64L-G09RevD.01 24-Apr-2013

 --------------------
 #p B2PLYPD3/Def2QZVP
 --------------------

 --------
 methanol
 --------
 Symbolic Z-matrix:
 Charge =  0 Multiplicity = 1

                         Standard orientation:
 ---------------------------------------------------------------------
 Center     Atomic      Atomic             Coordinates (Angstroms)
 Number     Number       Type             X           Y           Z
 ---------------------------------------------------------------------
      1          6           0        0.669185    0.025864   -0.007719
      2          8           0       -0.738393   -0.148225    0.006978
      3          1           0        1.023970    0.561995    0.832438
      4          1           0        0.975154    0.527431   -0.828650
      5          1           0        1.085745   -0.938908    0.005275
      6          1           0       -1.192833    0.880096   -0.018572
 ---------------------------------------------------------------------

 SCF Done:  E(RB2PLYPD3) =  -115.525726698     A.U. after   11 cycles
 E2(B2PLYPD3) =    -0.1497676783D+00 E(B2PLYPD3) =    -0.11567549437650D+03

 The electronic state is 1-A.
 Alpha  occ. eigenvalues --  -19.73543 -10.63603  -1.13500  -0.78887  -0.57069
 Alpha  occ. eigenvalues --   -0.52372  -0.49485  -0.40836  -0.35037
 Alpha virt. eigenvalues --    0.03499   0.07868   0.12545   0.12772   0.15011
 Alpha virt. eigenvalues --    0.17366   0.18047   0.28603   0.29899   0.33420
 Alpha virt. eigenvalues --    0.34172   0.39415   0.39719   0.42237   0.44479

 Mulliken charges:
               1
     1  C    0.087573
     2  O   -0.493610
     3  H    0.042510
     4  H    0.045849
     5  H    0.067469
     6  H    0.250208
 Sum of Mulliken charges =   0.00000

 Dipole moment (field-independent basis, Debye):
    X=              0.8937    Y=              1.6555    Z=             -0.0815  Tot=              1.8831
 Quadrupole moment (field-independent basis, Debye-Ang):
   XX=            -12.8977   YY=            -11.8861   ZZ=            -13.8858
   XY=             -2.4073   XZ=              0.0433   YZ=             -0.0645

 Normal termination of Gaussian 09 at Thu Aug 27 00:10:42 2020.
