 Gaussian 09, Revision D.01,
 Gaussian 09:  ES64L-G09RevD.01 24-Apr-2013

 --------------------
 #p B2PLYPD3/Def2QZVP
 --------------------

 --------
 methanol
 --------
 Symbolic Z-matrix:
 Charge =  0 Multiplicity = 1

                         Standard orientation:
 ---------------------------------------------------------------------
 Center     Atomic      Atomic             Coordinates (Angstroms)
 Number     Number       Type             X           Y           Z
 ---------------------------------------------------------------------
      1          6           0        0.658985   -0.015733    0.002202
      2          8           0       -0.753415    0.095448   -0.000327
      3          1           0        1.006685   -0.616319   -0.913256
      4          1           0        1.069324   -0.462522    0.970275
      5          1           0        1.063017    1.028391   -0.094383
      6          1           0       -1.065610   -0.618735    0.026769
 ---------------------------------------------------------------------

 SCF Done:  E(RB2PLYPD3) =  -115.503485823     A.U. after   10 cycles
 E2(B2PLYPD3) =    -0.1448494853D+00 E(B2PLYPD3) =    -0.11564833530805D+03

 The electronic state is 1-A.
 Alpha  occ. eigenvalues --  -19.70936 -10.67463  -1.21490  -0.79807  -0.60783
 Alpha  occ. eigenvalues --   -0.51600  -0.50234  -0.41307  -0.35907
 Alpha virt. eigenvalues --    0.05388   0.08900   0.11920   0.12199   0.14569
 Alpha virt. eigenvalues --    0.17141   0.18022   0.28732   0.32924   0.33238
 Alpha virt. eigenvalues --    0.36851   0.39040   0.39451   0.40208   0.43028

 Mulliken charges:
               1
     1  C    0.055386
     2  O   -0.326990
     3  H    0.046777
     4  H    0.050752
     5  H    0.074216
     6  H    0.099859
 Sum of Mulliken charges =   0.00000

 Dipole moment (field-independent basis, Debye):
    X=              0.9292    Y=             -1.3032    Z=              0.0482  Tot=              1.6013
 Quadrupole moment (field-independent basis, Debye-Ang):
   XX=            -13.2659   YY=            -12.4563   ZZ=            -13.6012
   XY=              2.0236   XZ=             -0.0263   YZ=             -0.0541

 Normal termination of Gaussian 09 at Wed Aug 26 23:57:26 2020.
