 Gaussian 09, Revision D.01,
 Gaussian 09:  ES64L-G09RevD.01 24-Apr-2013

 --------------------
 #p B2PLYPD3/Def2QZVP
 --------------------

 --------
 methanol
 --------
 Symbolic Z-matrix:
 Charge =  0 Multiplicity = 1

                         Standard orientation:
 ---------------------------------------------------------------------
 Center     Atomic      Atomic             Coordinates (Angstroms)
 Number     Number       Type             X           Y           Z
 ---------------------------------------------------------------------
      1          6           0        0.659484    0.041644   -0.003108
      2          8           0       -0.749446   -0.150138   -0.013934
      3          1           0        0.989575    0.429590    0.873970
      4          1           0        1.021573    0.612926   -0.794438
      5          1           0        1.177154   -0.954591   -0.028524
      6          1           0       -1.149640    0.863316    0.079108
 ---------------------------------------------------------------------

 SCF Done:  E(RB2PLYPD3) =  -115.529581793     A.U. after   11 cycles
 E2(B2PLYPD3) =    -0.1496137156D+00 E(B2PLYPD3) =    -0.11567919550889D+03

 The electronic state is 1-A.
 Alpha  occ. eigenvalues --  -19.73778 -10.64339  -1.14060  -0.78744  -0.56832
 Alpha  occ. eigenvalues --   -0.53049  -0.49037  -0.40430  -0.35577
 Alpha virt. eigenvalues --    0.03837   0.07729   0.12426   0.12694   0.14747
 Alpha virt. eigenvalues --    0.17731   0.18432   0.28781   0.30076   0.33612
 Alpha virt. eigenvalues --    0.33927   0.37964   0.40333   0.42575   0.43745

 Mulliken charges:
               1
     1  C    0.082211
     2  O   -0.483853
     3  H    0.049316
     4  H    0.049283
     5  H    0.053543
     6  H    0.249499
 Sum of Mulliken charges =   0.00000

 Dipole moment (field-independent basis, Debye):
    X=              0.9356    Y=              1.6970    Z=              0.1934  Tot=              1.9475
 Quadrupole moment (field-independent basis, Debye-Ang):
   XX=            -12.9877   YY=            -12.0977   ZZ=            -13.8370
   XY=             -2.3190   XZ=             -0.1668   YZ=              0.0546

 Normal termination of Gaussian 09 at Wed Aug 26 15:43:25 2020.
