 Gaussian 09, Revision D.01,
 Gaussian 09:  ES64L-G09RevD.01 24-Apr-2013

 --------------------
 #p B2PLYPD3/Def2QZVP
 --------------------

 --------
 methanol
 --------
 Symbolic Z-matrix:
 Charge =  0 Multiplicity = 1

                         Standard orientation:
 ---------------------------------------------------------------------
 Center     Atomic      Atomic             Coordinates (Angstroms)
 Number     Number       Type             X           Y           Z
 ---------------------------------------------------------------------
      1          6           0        0.650249    0.009897    0.016105
      2          8           0       -0.755438   -0.035677   -0.075137
      3          1           0        0.836314   -0.405694    1.073831
      4          1           0        1.177525    1.156649   -0.185365
      5          1           0        1.240079   -0.791070   -0.690348
      6          1           0       -1.111905    0.266150    0.306346
 ---------------------------------------------------------------------

 SCF Done:  E(RB2PLYPD3) =  -115.201010976     A.U. after   11 cycles
 E2(B2PLYPD3) =    -0.1441090957D+00 E(B2PLYPD3) =    -0.11534512007177D+03

 The electronic state is 1-A.
 Alpha  occ. eigenvalues --  -19.69129 -10.70587  -1.28885  -0.83220  -0.62176
 Alpha  occ. eigenvalues --   -0.51513  -0.50434  -0.39116  -0.36194
 Alpha virt. eigenvalues --    0.04948   0.09025   0.11097   0.12037   0.13720
 Alpha virt. eigenvalues --    0.17035   0.18149   0.28147   0.31274   0.32318
 Alpha virt. eigenvalues --    0.34032   0.34872   0.39171   0.40814   0.43963

 Mulliken charges:
               1
     1  C    0.048101
     2  O   -0.151860
     3  H    0.053370
     4  H    0.043333
     5  H    0.078032
     6  H   -0.070976
 Sum of Mulliken charges =   0.00000

 Dipole moment (field-independent basis, Debye):
    X=              0.8546    Y=              0.5328    Z=              0.9129  Tot=              1.3593
 Quadrupole moment (field-independent basis, Debye-Ang):
   XX=            -12.8214   YY=            -13.1342   ZZ=            -13.4012
   XY=             -1.1948   XZ=             -1.6359   YZ=              0.2371

 Normal termination of Gaussian 09 at Wed Aug 26 21:22:58 2020.
