 Gaussian 09, Revision D.01,
 Gaussian 09:  ES64L-G09RevD.01 24-Apr-2013

 --------------------
 #p B2PLYPD3/Def2QZVP
 --------------------

 --------
 methanol
 --------
 Symbolic Z-matrix:
 Charge =  0 Multiplicity = 1

                         Standard orientation:
 ---------------------------------------------------------------------
 Center     Atomic      Atomic             Coordinates (Angstroms)
 Number     Number       Type             X           Y           Z
 ---------------------------------------------------------------------
      1          6           0       -0.667625    0.008675   -0.012759
      2          8           0        0.743130   -0.135866    0.005184
      3          1           0       -1.042385    0.516720   -0.877608
      4          1           0       -1.039528    0.596209    0.879001
      5          1           0       -1.094988   -0.899199    0.053451
      6          1           0        1.237610    0.821151   -0.019763
 ---------------------------------------------------------------------

 SCF Done:  E(RB2PLYPD3) =  -115.534067343     A.U. after   11 cycles
 E2(B2PLYPD3) =    -0.1491065749D+00 E(B2PLYPD3) =    -0.11568317391758D+03

 The electronic state is 1-A.
 Alpha  occ. eigenvalues --  -19.73380 -10.64763  -1.13976  -0.78748  -0.57169
 Alpha  occ. eigenvalues --   -0.51220  -0.50589  -0.40592  -0.34796
 Alpha virt. eigenvalues --    0.03997   0.07752   0.12508   0.12829   0.14875
 Alpha virt. eigenvalues --    0.17412   0.18226   0.29141   0.30686   0.33264
 Alpha virt. eigenvalues --    0.33993   0.38440   0.40596   0.41132   0.43458

 Mulliken charges:
               1
     1  C    0.077058
     2  O   -0.489289
     3  H    0.046967
     4  H    0.034974
     5  H    0.076388
     6  H    0.253901
 Sum of Mulliken charges =   0.00000

 Dipole moment (field-independent basis, Debye):
    X=             -0.7613    Y=              1.5185    Z=             -0.0916  Tot=              1.7011
 Quadrupole moment (field-independent basis, Debye-Ang):
   XX=            -12.5900   YY=            -12.1851   ZZ=            -13.9591
   XY=              2.5711   XZ=             -0.0001   YZ=             -0.1128

 Normal termination of Gaussian 09 at Wed Aug 26 16:01:00 2020.
