 Gaussian 09, Revision D.01,
 Gaussian 09:  ES64L-G09RevD.01 24-Apr-2013

 --------------------
 #p B2PLYPD3/Def2QZVP
 --------------------

 --------
 methanol
 --------
 Symbolic Z-matrix:
 Charge =  0 Multiplicity = 1

                         Standard orientation:
 ---------------------------------------------------------------------
 Center     Atomic      Atomic             Coordinates (Angstroms)
 Number     Number       Type             X           Y           Z
 ---------------------------------------------------------------------
      1          6           0       -0.678884   -0.022386    0.005850
      2          8           0        0.756121    0.095946   -0.017878
      3          1           0       -1.000650   -0.369959    1.009829
      4          1           0       -1.052251   -0.699227   -0.843553
      5          1           0       -1.066045    1.030140   -0.145539
      6          1           0        1.143281   -0.594207    0.087186
 ---------------------------------------------------------------------

 SCF Done:  E(RB2PLYPD3) =  -115.513914832     A.U. after   10 cycles
 E2(B2PLYPD3) =    -0.1451752962D+00 E(B2PLYPD3) =    -0.11565909012790D+03

 The electronic state is 1-A.
 Alpha  occ. eigenvalues --  -19.70638 -10.67446  -1.19586  -0.79941  -0.60090
 Alpha  occ. eigenvalues --   -0.51641  -0.49682  -0.40717  -0.35889
 Alpha virt. eigenvalues --    0.05422   0.08777   0.11949   0.12190   0.14440
 Alpha virt. eigenvalues --    0.16916   0.18011   0.28927   0.32190   0.33230
 Alpha virt. eigenvalues --    0.37135   0.38824   0.39715   0.40122   0.42740

 Mulliken charges:
               1
     1  C    0.061983
     2  O   -0.365384
     3  H    0.057743
     4  H    0.052875
     5  H    0.076398
     6  H    0.116385
 Sum of Mulliken charges =   0.00000

 Dipole moment (field-independent basis, Debye):
    X=             -0.9292    Y=             -1.3034    Z=              0.2356  Tot=              1.6179
 Quadrupole moment (field-independent basis, Debye-Ang):
   XX=            -12.9768   YY=            -12.5294   ZZ=            -13.5441
   XY=             -2.0672   XZ=              0.3135   YZ=             -0.1168

 Normal termination of Gaussian 09 at Thu Aug 27 00:12:00 2020.
