 Gaussian 09, Revision D.01,
 Gaussian 09:  ES64L-G09RevD.01 24-Apr-2013

 --------------------
 #p B2PLYPD3/Def2QZVP
 --------------------

 --------
 methanol
 --------
 Symbolic Z-matrix:
 Charge =  0 Multiplicity = 1

                         Standard orientation:
 ---------------------------------------------------------------------
 Center     Atomic      Atomic             Coordinates (Angstroms)
 Number     Number       Type             X           Y           Z
 ---------------------------------------------------------------------
      1          6           0       -0.668438   -0.049625   -0.009034
      2          8           0        0.769980    0.151650    0.010579
      3          1           0       -1.078441   -0.561657    0.832340
      4          1           0       -1.153362   -0.468998   -0.789175
      5          1           0       -1.171959    0.999105    0.008922
      6          1           0        1.254552   -0.883898   -0.082510
 ---------------------------------------------------------------------

 SCF Done:  E(RB2PLYPD3) =  -115.510981702     A.U. after   11 cycles
 E2(B2PLYPD3) =    -0.1517418567D+00 E(B2PLYPD3) =    -0.11566272355905D+03

 The electronic state is 1-A.
 Alpha  occ. eigenvalues --  -19.74781 -10.65303  -1.12510  -0.78784  -0.56136
 Alpha  occ. eigenvalues --   -0.51333  -0.48011  -0.40116  -0.35820
 Alpha virt. eigenvalues --    0.03183   0.07078   0.12076   0.12870   0.14944
 Alpha virt. eigenvalues --    0.17435   0.18792   0.27364   0.29355   0.32539
 Alpha virt. eigenvalues --    0.34596   0.36235   0.39644   0.41187   0.43890

 Mulliken charges:
               1
     1  C    0.070253
     2  O   -0.484406
     3  H    0.053382
     4  H    0.057678
     5  H    0.047870
     6  H    0.255223
 Sum of Mulliken charges =   0.00000

 Dipole moment (field-independent basis, Debye):
    X=             -0.8634    Y=             -1.7376    Z=             -0.2028  Tot=              1.9508
 Quadrupole moment (field-independent basis, Debye-Ang):
   XX=            -12.4357   YY=            -12.2461   ZZ=            -14.1559
   XY=             -2.3405   XZ=             -0.0758   YZ=              0.1095

 Normal termination of Gaussian 09 at Wed Aug 26 23:53:31 2020.
