 Gaussian 09, Revision D.01,
 Gaussian 09:  ES64L-G09RevD.01 24-Apr-2013

 --------------------
 #p B2PLYPD3/Def2QZVP
 --------------------

 --------
 methanol
 --------
 Symbolic Z-matrix:
 Charge =  0 Multiplicity = 1

                         Standard orientation:
 ---------------------------------------------------------------------
 Center     Atomic      Atomic             Coordinates (Angstroms)
 Number     Number       Type             X           Y           Z
 ---------------------------------------------------------------------
      1          6           0        0.668282   -0.024932    0.006802
      2          8           0       -0.750397    0.114076   -0.006393
      3          1           0        1.020190   -0.576134   -0.891162
      4          1           0        0.975765   -0.526724    0.904259
      5          1           0        1.107476    1.020882   -0.018901
      6          1           0       -1.109943   -0.681038    0.016133
 ---------------------------------------------------------------------

 SCF Done:  E(RB2PLYPD3) =  -115.543787794     A.U. after   10 cycles
 E2(B2PLYPD3) =    -0.1459436053D+00 E(B2PLYPD3) =    -0.11568973139902D+03

 The electronic state is 1-A.
 Alpha  occ. eigenvalues --  -19.71596 -10.66309  -1.18051  -0.79153  -0.59723
 Alpha  occ. eigenvalues --   -0.52203  -0.49580  -0.41114  -0.35660
 Alpha virt. eigenvalues --    0.05272   0.08620   0.12193   0.12250   0.14695
 Alpha virt. eigenvalues --    0.17302   0.17856   0.29078   0.32957   0.33237
 Alpha virt. eigenvalues --    0.37154   0.38217   0.39905   0.40946   0.43724

 Mulliken charges:
               1
     1  C    0.070056
     2  O   -0.421515
     3  H    0.048584
     4  H    0.053666
     5  H    0.069144
     6  H    0.180064
 Sum of Mulliken charges =   0.00000

 Dipole moment (field-independent basis, Debye):
    X=              0.9315    Y=             -1.4607    Z=              0.0744  Tot=              1.7341
 Quadrupole moment (field-independent basis, Debye-Ang):
   XX=            -13.1365   YY=            -12.3095   ZZ=            -13.6706
   XY=              2.1488   XZ=             -0.0580   YZ=             -0.0567

 Normal termination of Gaussian 09 at Wed Aug 26 15:48:11 2020.
