 Gaussian 09, Revision D.01,
 Gaussian 09:  ES64L-G09RevD.01 24-Apr-2013

 --------------------
 #p B2PLYPD3/Def2QZVP
 --------------------

 --------
 methanol
 --------
 Symbolic Z-matrix:
 Charge =  0 Multiplicity = 1

                         Standard orientation:
 ---------------------------------------------------------------------
 Center     Atomic      Atomic             Coordinates (Angstroms)
 Number     Number       Type             X           Y           Z
 ---------------------------------------------------------------------
      1          6           0        0.678078    0.025642   -0.001093
      2          8           0       -0.727394   -0.161360   -0.000117
      3          1           0        1.033831    0.432569    0.879667
      4          1           0        0.923781    0.632841   -0.803221
      5          1           0        1.060739   -0.852226   -0.107830
      6          1           0       -1.267666    0.923844    0.038877
 ---------------------------------------------------------------------

 SCF Done:  E(RB2PLYPD3) =  -115.496048359     A.U. after   11 cycles
 E2(B2PLYPD3) =    -0.1511719887D+00 E(B2PLYPD3) =    -0.11564722034736D+03

 The electronic state is 1-A.
 Alpha  occ. eigenvalues --  -19.73709 -10.62536  -1.12480  -0.79325  -0.56112
 Alpha  occ. eigenvalues --   -0.52739  -0.50020  -0.40113  -0.34757
 Alpha virt. eigenvalues --    0.02263   0.07795   0.12713   0.12933   0.14795
 Alpha virt. eigenvalues --    0.17232   0.18178   0.26327   0.29538   0.33179
 Alpha virt. eigenvalues --    0.34250   0.38994   0.41300   0.42736   0.43990

 Mulliken charges:
               1
     1  C    0.089031
     2  O   -0.504132
     3  H    0.046681
     4  H    0.043006
     5  H    0.072329
     6  H    0.253084
 Sum of Mulliken charges =   0.00000

 Dipole moment (field-independent basis, Debye):
    X=              0.8575    Y=              1.6279    Z=              0.0428  Tot=              1.8404
 Quadrupole moment (field-independent basis, Debye-Ang):
   XX=            -12.6423   YY=            -11.8887   ZZ=            -13.7975
   XY=             -2.6407   XZ=             -0.0235   YZ=              0.0512

 Normal termination of Gaussian 09 at Wed Aug 26 12:11:48 2020.
