 Gaussian 09, Revision D.01,
 Gaussian 09:  ES64L-G09RevD.01 24-Apr-2013

 --------------------
 #p B2PLYPD3/Def2QZVP
 --------------------

 --------
 methanol
 --------
 Symbolic Z-matrix:
 Charge =  0 Multiplicity = 1

                         Standard orientation:
 ---------------------------------------------------------------------
 Center     Atomic      Atomic             Coordinates (Angstroms)
 Number     Number       Type             X           Y           Z
 ---------------------------------------------------------------------
      1          6           0        0.651564    0.043201    0.013642
      2          8           0       -0.735895   -0.166001   -0.014882
      3          1           0        1.033316    0.406010    0.802050
      4          1           0        1.016918    0.600154   -0.799291
      5          1           0        1.105947   -0.920260   -0.050917
      6          1           0       -1.178402    0.982901    0.085361
 ---------------------------------------------------------------------

 SCF Done:  E(RB2PLYPD3) =  -115.487042847     A.U. after   11 cycles
 E2(B2PLYPD3) =    -0.1520092013D+00 E(B2PLYPD3) =    -0.11563905204864D+03

 The electronic state is 1-A.
 Alpha  occ. eigenvalues --  -19.74707 -10.62774  -1.13309  -0.79449  -0.56040
 Alpha  occ. eigenvalues --   -0.53161  -0.49217  -0.40001  -0.35426
 Alpha virt. eigenvalues --    0.01757   0.07603   0.12578   0.12870   0.15046
 Alpha virt. eigenvalues --    0.17531   0.18600   0.25285   0.29422   0.33702
 Alpha virt. eigenvalues --    0.35111   0.38356   0.39581   0.42677   0.45212

 Mulliken charges:
               1
     1  C    0.088916
     2  O   -0.480006
     3  H    0.047969
     4  H    0.041629
     5  H    0.051434
     6  H    0.250058
 Sum of Mulliken charges =   0.00000

 Dipole moment (field-independent basis, Debye):
    X=              0.9259    Y=              1.7281    Z=              0.2333  Tot=              1.9744
 Quadrupole moment (field-independent basis, Debye-Ang):
   XX=            -12.9787   YY=            -11.8087   ZZ=            -13.9044
   XY=             -2.3582   XZ=             -0.0639   YZ=              0.1401

 Normal termination of Gaussian 09 at Wed Aug 26 11:43:38 2020.
