 Gaussian 09, Revision D.01,
 Gaussian 09:  ES64L-G09RevD.01 24-Apr-2013

 --------------------
 #p B2PLYPD3/Def2QZVP
 --------------------

 --------
 methanol
 --------
 Symbolic Z-matrix:
 Charge =  0 Multiplicity = 1

                         Standard orientation:
 ---------------------------------------------------------------------
 Center     Atomic      Atomic             Coordinates (Angstroms)
 Number     Number       Type             X           Y           Z
 ---------------------------------------------------------------------
      1          6           0        0.663420    0.036690    0.001872
      2          8           0       -0.733286   -0.165712   -0.001976
      3          1           0        1.007550    0.424066    0.839190
      4          1           0        0.945149    0.610212   -0.772758
      5          1           0        1.087958   -0.909486   -0.091686
      6          1           0       -1.154896    0.980768    0.029830
 ---------------------------------------------------------------------

 SCF Done:  E(RB2PLYPD3) =  -115.494511768     A.U. after   11 cycles
 E2(B2PLYPD3) =    -0.1515484463D+00 E(B2PLYPD3) =    -0.11564606021384D+03

 The electronic state is 1-A.
 Alpha  occ. eigenvalues --  -19.74192 -10.62417  -1.13024  -0.79299  -0.56188
 Alpha  occ. eigenvalues --   -0.53717  -0.49004  -0.40441  -0.35207
 Alpha virt. eigenvalues --    0.02043   0.07813   0.12564   0.12843   0.14909
 Alpha virt. eigenvalues --    0.17509   0.18173   0.25806   0.29519   0.33381
 Alpha virt. eigenvalues --    0.34652   0.39279   0.39964   0.43732   0.44414

 Mulliken charges:
               1
     1  C    0.100170
     2  O   -0.490405
     3  H    0.044197
     4  H    0.040309
     5  H    0.058537
     6  H    0.247192
 Sum of Mulliken charges =   0.00000

 Dipole moment (field-independent basis, Debye):
    X=              1.0052    Y=              1.7288    Z=              0.0578  Tot=              2.0006
 Quadrupole moment (field-independent basis, Debye-Ang):
   XX=            -13.1611   YY=            -11.6580   ZZ=            -13.8224
   XY=             -2.3596   XZ=             -0.0001   YZ=              0.0290

 Normal termination of Gaussian 09 at Wed Aug 26 15:47:42 2020.
