 Gaussian 09, Revision D.01,
 Gaussian 09:  ES64L-G09RevD.01 24-Apr-2013

 --------------------
 #p B2PLYPD3/Def2QZVP
 --------------------

 --------
 methanol
 --------
 Symbolic Z-matrix:
 Charge =  0 Multiplicity = 1

                         Standard orientation:
 ---------------------------------------------------------------------
 Center     Atomic      Atomic             Coordinates (Angstroms)
 Number     Number       Type             X           Y           Z
 ---------------------------------------------------------------------
      1          6           0       -0.667296   -0.000656    0.004536
      2          8           0        0.771681   -0.044575   -0.044207
      3          1           0       -1.094972    1.235374   -0.101459
      4          1           0       -1.103889   -0.529936    0.967702
      5          1           0       -1.099071   -0.641757   -0.833843
      6          1           0        1.128262    0.296856    0.294045
 ---------------------------------------------------------------------

 SCF Done:  E(RB2PLYPD3) =  -115.190393960     A.U. after   11 cycles
 E2(B2PLYPD3) =    -0.1442050129D+00 E(B2PLYPD3) =    -0.11533459897277D+03

 The electronic state is 1-A.
 Alpha  occ. eigenvalues --  -19.69053 -10.70782  -1.28279  -0.83057  -0.61981
 Alpha  occ. eigenvalues --   -0.50749  -0.50079  -0.39970  -0.36317
 Alpha virt. eigenvalues --    0.04909   0.09182   0.10734   0.12114   0.13958
 Alpha virt. eigenvalues --    0.16715   0.18196   0.28221   0.30836   0.31596
 Alpha virt. eigenvalues --    0.33865   0.36860   0.37880   0.41154   0.42709

 Mulliken charges:
               1
     1  C    0.048065
     2  O   -0.163177
     3  H    0.037100
     4  H    0.060342
     5  H    0.094588
     6  H   -0.076917
 Sum of Mulliken charges =   0.00000

 Dipole moment (field-independent basis, Debye):
    X=             -0.9684    Y=              0.5870    Z=              0.7228  Tot=              1.3434
 Quadrupole moment (field-independent basis, Debye-Ang):
   XX=            -12.8044   YY=            -13.0148   ZZ=            -13.3829
   XY=              1.4959   XZ=              1.3002   YZ=              0.3549

 Normal termination of Gaussian 09 at Wed Aug 26 23:52:47 2020.
