 Gaussian 09, Revision D.01,
 Gaussian 09:  ES64L-G09RevD.01 24-Apr-2013

 --------------------
 #p B2PLYPD3/Def2QZVP
 --------------------

 --------
 methanol
 --------
 Symbolic Z-matrix:
 Charge =  0 Multiplicity = 1

                         Standard orientation:
 ---------------------------------------------------------------------
 Center     Atomic      Atomic             Coordinates (Angstroms)
 Number     Number       Type             X           Y           Z
 ---------------------------------------------------------------------
      1          6           0       -0.654799   -0.012995    0.010528
      2          8           0        0.740584    0.091150   -0.013522
      3          1           0       -1.029056   -0.473245    0.943276
      4          1           0       -0.957550   -0.698505   -0.897060
      5          1           0       -1.101016    1.055843   -0.106944
      6          1           0        1.091742   -0.535325    0.105736
 ---------------------------------------------------------------------

 SCF Done:  E(RB2PLYPD3) =  -115.456006728     A.U. after   10 cycles
 E2(B2PLYPD3) =    -0.1439112127D+00 E(B2PLYPD3) =    -0.11559991794080D+03

 The electronic state is 1-A.
 Alpha  occ. eigenvalues --  -19.70053 -10.67851  -1.23512  -0.80983  -0.61847
 Alpha  occ. eigenvalues --   -0.51725  -0.50505  -0.40924  -0.35567
 Alpha virt. eigenvalues --    0.05357   0.09214   0.11966   0.11972   0.14670
 Alpha virt. eigenvalues --    0.17083   0.17546   0.28825   0.32440   0.33897
 Alpha virt. eigenvalues --    0.36927   0.38022   0.40018   0.40552   0.42747

 Mulliken charges:
               1
     1  C    0.057297
     2  O   -0.270297
     3  H    0.050499
     4  H    0.040327
     5  H    0.076620
     6  H    0.045554
 Sum of Mulliken charges =   0.00000

 Dipole moment (field-independent basis, Debye):
    X=             -0.8214    Y=             -1.2316    Z=              0.3157  Tot=              1.5137
 Quadrupole moment (field-independent basis, Debye-Ang):
   XX=            -13.1374   YY=            -12.4965   ZZ=            -13.6150
   XY=             -2.0002   XZ=              0.1774   YZ=             -0.2142

 Normal termination of Gaussian 09 at Wed Aug 26 11:38:51 2020.
