 Gaussian 09, Revision D.01,
 Gaussian 09:  ES64L-G09RevD.01 24-Apr-2013

 --------------------
 #p B2PLYPD3/Def2QZVP
 --------------------

 --------
 methanol
 --------
 Symbolic Z-matrix:
 Charge =  0 Multiplicity = 1

                         Standard orientation:
 ---------------------------------------------------------------------
 Center     Atomic      Atomic             Coordinates (Angstroms)
 Number     Number       Type             X           Y           Z
 ---------------------------------------------------------------------
      1          6           0        0.659908    0.011348   -0.011326
      2          8           0       -0.759676   -0.190580    0.017147
      3          1           0        1.162839    0.550433    0.706995
      4          1           0        0.946476    0.529307   -0.689526
      5          1           0        1.115441   -0.867212   -0.052376
      6          1           0       -1.106795    1.244024   -0.034315
 ---------------------------------------------------------------------

 SCF Done:  E(RB2PLYPD3) =  -115.394353620     A.U. after   12 cycles
 E2(B2PLYPD3) =    -0.1581646612D+00 E(B2PLYPD3) =    -0.11555251828118D+03

 The electronic state is 1-A.
 Alpha  occ. eigenvalues --  -19.76306 -10.61439  -1.11413  -0.81796  -0.56063
 Alpha  occ. eigenvalues --   -0.51154  -0.48874  -0.39871  -0.35195
 Alpha virt. eigenvalues --   -0.03197   0.07230   0.12219   0.13444   0.14708
 Alpha virt. eigenvalues --    0.18019   0.18181   0.21330   0.29847   0.32768
 Alpha virt. eigenvalues --    0.34117   0.38196   0.39123   0.41988   0.45035

 Mulliken charges:
               1
     1  C    0.101572
     2  O   -0.467658
     3  H    0.029993
     4  H    0.057309
     5  H    0.053058
     6  H    0.225726
 Sum of Mulliken charges =   0.00000

 Dipole moment (field-independent basis, Debye):
    X=              1.2940    Y=              1.8383    Z=             -0.1841  Tot=              2.2556
 Quadrupole moment (field-independent basis, Debye-Ang):
   XX=            -13.3647   YY=            -10.8761   ZZ=            -14.3775
   XY=             -2.1269   XZ=              0.0451   YZ=             -0.1389

 Normal termination of Gaussian 09 at Wed Aug 26 23:30:44 2020.
