 Gaussian 09, Revision D.01,
 Gaussian 09:  ES64L-G09RevD.01 24-Apr-2013

 --------------------
 #p B2PLYPD3/Def2QZVP
 --------------------

 --------
 methanol
 --------
 Symbolic Z-matrix:
 Charge =  0 Multiplicity = 1

                         Standard orientation:
 ---------------------------------------------------------------------
 Center     Atomic      Atomic             Coordinates (Angstroms)
 Number     Number       Type             X           Y           Z
 ---------------------------------------------------------------------
      1          6           0        0.645648    0.032785    0.015378
      2          8           0       -0.737023   -0.167023   -0.014107
      3          1           0        0.988506    0.419817    0.818798
      4          1           0        1.036758    0.625346   -0.777092
      5          1           0        1.144471   -0.901826   -0.074486
      6          1           0       -1.147444    0.996140    0.053364
 ---------------------------------------------------------------------

 SCF Done:  E(RB2PLYPD3) =  -115.489210841     A.U. after   11 cycles
 E2(B2PLYPD3) =    -0.1519306862D+00 E(B2PLYPD3) =    -0.11564114152743D+03

 The electronic state is 1-A.
 Alpha  occ. eigenvalues --  -19.74752 -10.62921  -1.13598  -0.79209  -0.56095
 Alpha  occ. eigenvalues --   -0.52775  -0.49672  -0.40134  -0.35256
 Alpha virt. eigenvalues --    0.01638   0.07596   0.12627   0.12884   0.14945
 Alpha virt. eigenvalues --    0.17918   0.18385   0.25176   0.29514   0.33540
 Alpha virt. eigenvalues --    0.35110   0.38783   0.39713   0.42502   0.44431

 Mulliken charges:
               1
     1  C    0.092871
     2  O   -0.479532
     3  H    0.045918
     4  H    0.034935
     5  H    0.052828
     6  H    0.252980
 Sum of Mulliken charges =   0.00000

 Dipole moment (field-independent basis, Debye):
    X=              0.9362    Y=              1.7441    Z=              0.1874  Tot=              1.9883
 Quadrupole moment (field-independent basis, Debye-Ang):
   XX=            -13.0914   YY=            -11.7394   ZZ=            -13.9677
   XY=             -2.3776   XZ=             -0.0583   YZ=              0.1353

 Normal termination of Gaussian 09 at Wed Aug 26 11:12:11 2020.
