 Gaussian 09, Revision D.01,
 Gaussian 09:  ES64L-G09RevD.01 24-Apr-2013

 --------------------
 #p B2PLYPD3/Def2QZVP
 --------------------

 --------
 methanol
 --------
 Symbolic Z-matrix:
 Charge =  0 Multiplicity = 1

                         Standard orientation:
 ---------------------------------------------------------------------
 Center     Atomic      Atomic             Coordinates (Angstroms)
 Number     Number       Type             X           Y           Z
 ---------------------------------------------------------------------
      1          6           0        0.672863    0.019974    0.000235
      2          8           0       -0.747242   -0.133758   -0.005333
      3          1           0        1.009231    0.485725    0.890947
      4          1           0        0.976353    0.567203   -0.876962
      5          1           0        1.073103   -0.930637   -0.020669
      6          1           0       -1.117925    0.827933    0.047939
 ---------------------------------------------------------------------

 SCF Done:  E(RB2PLYPD3) =  -115.544154210     A.U. after   10 cycles
 E2(B2PLYPD3) =    -0.1483730851D+00 E(B2PLYPD3) =    -0.11569252729522D+03

 The electronic state is 1-A.
 Alpha  occ. eigenvalues --  -19.72909 -10.64376  -1.14575  -0.78919  -0.57451
 Alpha  occ. eigenvalues --   -0.52480  -0.49835  -0.41262  -0.35253
 Alpha virt. eigenvalues --    0.04471   0.08166   0.12350   0.12675   0.14677
 Alpha virt. eigenvalues --    0.17393   0.18107   0.29126   0.32168   0.33304
 Alpha virt. eigenvalues --    0.33772   0.39234   0.40699   0.41717   0.44055

 Mulliken charges:
               1
     1  C    0.078315
     2  O   -0.482084
     3  H    0.046984
     4  H    0.047519
     5  H    0.070014
     6  H    0.239252
 Sum of Mulliken charges =   0.00000

 Dipole moment (field-independent basis, Debye):
    X=              0.9937    Y=              1.5502    Z=              0.1040  Tot=              1.8443
 Quadrupole moment (field-independent basis, Debye-Ang):
   XX=            -13.2008   YY=            -12.0307   ZZ=            -13.6880
   XY=             -2.3348   XZ=             -0.0618   YZ=              0.0589

 Normal termination of Gaussian 09 at Thu Aug 27 00:10:27 2020.
