 Gaussian 09, Revision D.01,
 Gaussian 09:  ES64L-G09RevD.01 24-Apr-2013

 --------------------
 #p B2PLYPD3/Def2QZVP
 --------------------

 --------
 methanol
 --------
 Symbolic Z-matrix:
 Charge =  0 Multiplicity = 1

                         Standard orientation:
 ---------------------------------------------------------------------
 Center     Atomic      Atomic             Coordinates (Angstroms)
 Number     Number       Type             X           Y           Z
 ---------------------------------------------------------------------
      1          6           0       -0.661831    0.009957    0.006013
      2          8           0        0.752541   -0.140306   -0.006851
      3          1           0       -1.076081    0.564384   -0.851185
      4          1           0       -1.017141    0.490664    0.883271
      5          1           0       -1.083375   -0.896575   -0.028338
      6          1           0        1.127250    0.904233    0.014984
 ---------------------------------------------------------------------

 SCF Done:  E(RB2PLYPD3) =  -115.527512524     A.U. after   11 cycles
 E2(B2PLYPD3) =    -0.1499613163D+00 E(B2PLYPD3) =    -0.11567747384005D+03

 The electronic state is 1-A.
 Alpha  occ. eigenvalues --  -19.73948 -10.64197  -1.13865  -0.78867  -0.56790
 Alpha  occ. eigenvalues --   -0.51465  -0.50156  -0.41282  -0.35145
 Alpha virt. eigenvalues --    0.03601   0.07780   0.12497   0.12777   0.14857
 Alpha virt. eigenvalues --    0.17607   0.18326   0.28555   0.29991   0.33382
 Alpha virt. eigenvalues --    0.33991   0.38580   0.40750   0.41260   0.43490

 Mulliken charges:
               1
     1  C    0.078087
     2  O   -0.482946
     3  H    0.038390
     4  H    0.044290
     5  H    0.069483
     6  H    0.252695
 Sum of Mulliken charges =   0.00000

 Dipole moment (field-independent basis, Debye):
    X=             -0.9683    Y=              1.5809    Z=              0.0701  Tot=              1.8552
 Quadrupole moment (field-independent basis, Debye-Ang):
   XX=            -13.1127   YY=            -11.9173   ZZ=            -13.9145
   XY=              2.3997   XZ=              0.0521   YZ=              0.0605

 Normal termination of Gaussian 09 at Thu Aug 27 00:12:18 2020.
