 Gaussian 09, Revision D.01,
 Gaussian 09:  ES64L-G09RevD.01 24-Apr-2013

 --------------------
 #p B2PLYPD3/Def2QZVP
 --------------------

 --------
 methanol
 --------
 Symbolic Z-matrix:
 Charge =  0 Multiplicity = 1

                         Standard orientation:
 ---------------------------------------------------------------------
 Center     Atomic      Atomic             Coordinates (Angstroms)
 Number     Number       Type             X           Y           Z
 ---------------------------------------------------------------------
      1          6           0       -0.642358   -0.039213    0.009448
      2          8           0        0.732764    0.072516   -0.015264
      3          1           0       -1.050794   -0.331210    1.051646
      4          1           0       -0.902247   -0.830027   -0.838012
      5          1           0       -1.214690    1.103399   -0.272378
      6          1           0        1.159768   -0.287009    0.124169
 ---------------------------------------------------------------------

 SCF Done:  E(RB2PLYPD3) =  -115.110084883     A.U. after   11 cycles
 E2(B2PLYPD3) =    -0.1435149872D+00 E(B2PLYPD3) =    -0.11525359987035D+03

 The electronic state is 1-A.
 Alpha  occ. eigenvalues --  -19.68490 -10.70721  -1.29891  -0.85659  -0.62637
 Alpha  occ. eigenvalues --   -0.52533  -0.49907  -0.37856  -0.36227
 Alpha virt. eigenvalues --    0.04811   0.09460   0.11306   0.11710   0.14012
 Alpha virt. eigenvalues --    0.16950   0.17598   0.28513   0.31881   0.32248
 Alpha virt. eigenvalues --    0.33768   0.37809   0.38399   0.40916   0.42660

 Mulliken charges:
               1
     1  C    0.051497
     2  O   -0.109754
     3  H    0.056128
     4  H    0.055502
     5  H    0.063215
     6  H   -0.116588
 Sum of Mulliken charges =   0.00000

 Dipole moment (field-independent basis, Debye):
    X=             -0.6090    Y=             -0.9810    Z=              0.4078  Tot=              1.2245
 Quadrupole moment (field-independent basis, Debye-Ang):
   XX=            -12.6211   YY=            -13.1380   ZZ=            -13.3702
   XY=             -1.6118   XZ=              0.3698   YZ=             -0.0847

 Normal termination of Gaussian 09 at Wed Aug 26 22:52:02 2020.
