 Gaussian 09, Revision D.01,
 Gaussian 09:  ES64L-G09RevD.01 24-Apr-2013

 --------------------
 #p B2PLYPD3/Def2QZVP
 --------------------

 --------
 methanol
 --------
 Symbolic Z-matrix:
 Charge =  0 Multiplicity = 1

                         Standard orientation:
 ---------------------------------------------------------------------
 Center     Atomic      Atomic             Coordinates (Angstroms)
 Number     Number       Type             X           Y           Z
 ---------------------------------------------------------------------
      1          6           0       -0.662896   -0.036565   -0.004053
      2          8           0        0.745289    0.142798   -0.009328
      3          1           0       -0.994372   -0.450917    0.891947
      4          1           0       -1.013177   -0.614561   -0.805769
      5          1           0       -1.151188    0.961351   -0.040887
      6          1           0        1.173799   -0.818865    0.053644
 ---------------------------------------------------------------------

 SCF Done:  E(RB2PLYPD3) =  -115.540588859     A.U. after   11 cycles
 E2(B2PLYPD3) =    -0.1487483777D+00 E(B2PLYPD3) =    -0.11568933723632D+03

 The electronic state is 1-A.
 Alpha  occ. eigenvalues --  -19.73300 -10.64641  -1.14487  -0.78613  -0.57459
 Alpha  occ. eigenvalues --   -0.52661  -0.49293  -0.40534  -0.35405
 Alpha virt. eigenvalues --    0.04271   0.07869   0.12441   0.12662   0.14812
 Alpha virt. eigenvalues --    0.17555   0.18267   0.29108   0.31388   0.33497
 Alpha virt. eigenvalues --    0.33934   0.38436   0.40140   0.42225   0.44083

 Mulliken charges:
               1
     1  C    0.078964
     2  O   -0.482608
     3  H    0.048941
     4  H    0.049094
     5  H    0.060202
     6  H    0.245407
 Sum of Mulliken charges =   0.00000

 Dipole moment (field-independent basis, Debye):
    X=             -0.8751    Y=             -1.6396    Z=              0.1244  Tot=              1.8627
 Quadrupole moment (field-independent basis, Debye-Ang):
   XX=            -12.8772   YY=            -12.1646   ZZ=            -13.8272
   XY=             -2.3558   XZ=              0.1372   YZ=             -0.0244

 Normal termination of Gaussian 09 at Wed Aug 26 13:17:06 2020.
