 Gaussian 09, Revision D.01,
 Gaussian 09:  ES64L-G09RevD.01 24-Apr-2013

 --------------------
 #p B2PLYPD3/Def2QZVP
 --------------------

 --------
 methanol
 --------
 Symbolic Z-matrix:
 Charge =  0 Multiplicity = 1

                         Standard orientation:
 ---------------------------------------------------------------------
 Center     Atomic      Atomic             Coordinates (Angstroms)
 Number     Number       Type             X           Y           Z
 ---------------------------------------------------------------------
      1          6           0       -0.671630   -0.007700    0.011961
      2          8           0        0.759770    0.104826   -0.013695
      3          1           0       -1.045385   -0.443720    0.946553
      4          1           0       -1.052270   -0.666727   -0.878121
      5          1           0       -1.082275    0.990811   -0.104615
      6          1           0        1.131555   -0.672774    0.073978
 ---------------------------------------------------------------------

 SCF Done:  E(RB2PLYPD3) =  -115.540468027     A.U. after   10 cycles
 E2(B2PLYPD3) =    -0.1461547260D+00 E(B2PLYPD3) =    -0.11568662275314D+03

 The electronic state is 1-A.
 Alpha  occ. eigenvalues --  -19.71748 -10.66876  -1.17906  -0.79282  -0.59613
 Alpha  occ. eigenvalues --   -0.50898  -0.50242  -0.41351  -0.35523
 Alpha virt. eigenvalues --    0.05286   0.08450   0.12066   0.12371   0.14703
 Alpha virt. eigenvalues --    0.17211   0.17993   0.29018   0.32539   0.33167
 Alpha virt. eigenvalues --    0.36658   0.38843   0.39527   0.40227   0.43120

 Mulliken charges:
               1
     1  C    0.066628
     2  O   -0.417906
     3  H    0.053582
     4  H    0.040397
     5  H    0.078914
     6  H    0.178385
 Sum of Mulliken charges =   0.00000

 Dipole moment (field-independent basis, Debye):
    X=             -0.9277    Y=             -1.3557    Z=              0.2266  Tot=              1.6582
 Quadrupole moment (field-independent basis, Debye-Ang):
   XX=            -13.0037   YY=            -12.3819   ZZ=            -13.7542
   XY=             -2.2011   XZ=              0.1532   YZ=             -0.1815

 Normal termination of Gaussian 09 at Wed Aug 26 10:45:22 2020.
