 Gaussian 09, Revision D.01,
 Gaussian 09:  ES64L-G09RevD.01 24-Apr-2013

 --------------------
 #p B2PLYPD3/Def2QZVP
 --------------------

 --------
 methanol
 --------
 Symbolic Z-matrix:
 Charge =  0 Multiplicity = 1

                         Standard orientation:
 ---------------------------------------------------------------------
 Center     Atomic      Atomic             Coordinates (Angstroms)
 Number     Number       Type             X           Y           Z
 ---------------------------------------------------------------------
      1          6           0        0.664818    0.069882    0.006716
      2          8           0       -0.722883   -0.198832    0.004148
      3          1           0        1.023779    0.483222    0.772732
      4          1           0        0.985429    0.533517   -0.758145
      5          1           0        1.174093   -0.871660   -0.065988
      6          1           0       -1.389142    1.026288   -0.022075
 ---------------------------------------------------------------------

 SCF Done:  E(RB2PLYPD3) =  -115.433255561     A.U. after   12 cycles
 E2(B2PLYPD3) =    -0.1549528220D+00 E(B2PLYPD3) =    -0.11558820838303D+03

 The electronic state is 1-A.
 Alpha  occ. eigenvalues --  -19.75143 -10.61656  -1.11746  -0.80473  -0.54468
 Alpha  occ. eigenvalues --   -0.53976  -0.48904  -0.38526  -0.35528
 Alpha virt. eigenvalues --   -0.01149   0.07300   0.12684   0.13169   0.14916
 Alpha virt. eigenvalues --    0.17497   0.18621   0.22281   0.29420   0.33982
 Alpha virt. eigenvalues --    0.34616   0.38077   0.39983   0.43922   0.44932

 Mulliken charges:
               1
     1  C    0.100527
     2  O   -0.488471
     3  H    0.051663
     4  H    0.048869
     5  H    0.048760
     6  H    0.238653
 Sum of Mulliken charges =   0.00000

 Dipole moment (field-independent basis, Debye):
    X=              0.8546    Y=              1.7833    Z=             -0.0496  Tot=              1.9782
 Quadrupole moment (field-independent basis, Debye-Ang):
   XX=            -12.1364   YY=            -11.9329   ZZ=            -13.9494
   XY=             -2.6230   XZ=              0.0539   YZ=             -0.0049

 Normal termination of Gaussian 09 at Wed Aug 26 23:54:12 2020.
