 Gaussian 09, Revision D.01,
 Gaussian 09:  ES64L-G09RevD.01 24-Apr-2013

 --------------------
 #p B2PLYPD3/Def2QZVP
 --------------------

 --------
 methanol
 --------
 Symbolic Z-matrix:
 Charge =  0 Multiplicity = 1

                         Standard orientation:
 ---------------------------------------------------------------------
 Center     Atomic      Atomic             Coordinates (Angstroms)
 Number     Number       Type             X           Y           Z
 ---------------------------------------------------------------------
      1          6           0        0.678513   -0.021590    0.008221
      2          8           0       -0.751265    0.125621   -0.017468
      3          1           0        1.060511   -0.624352   -0.846355
      4          1           0        0.998678   -0.453453    0.898709
      5          1           0        1.063908    0.977550   -0.041521
      6          1           0       -1.184059   -0.775175    0.079584
 ---------------------------------------------------------------------

 SCF Done:  E(RB2PLYPD3) =  -115.548004447     A.U. after   10 cycles
 E2(B2PLYPD3) =    -0.1480932620D+00 E(B2PLYPD3) =    -0.11569609770950D+03

 The electronic state is 1-A.
 Alpha  occ. eigenvalues --  -19.72715 -10.65172  -1.14553  -0.78850  -0.57930
 Alpha  occ. eigenvalues --   -0.51687  -0.49493  -0.41040  -0.35323
 Alpha virt. eigenvalues --    0.04740   0.08035   0.12399   0.12495   0.14878
 Alpha virt. eigenvalues --    0.17096   0.18136   0.29139   0.33041   0.33431
 Alpha virt. eigenvalues --    0.33763   0.38974   0.39643   0.40968   0.44428

 Mulliken charges:
               1
     1  C    0.075108
     2  O   -0.482194
     3  H    0.047157
     4  H    0.052773
     5  H    0.072470
     6  H    0.234687
 Sum of Mulliken charges =   0.00000

 Dipole moment (field-independent basis, Debye):
    X=              0.9038    Y=             -1.5229    Z=              0.2363  Tot=              1.7866
 Quadrupole moment (field-independent basis, Debye-Ang):
   XX=            -12.8797   YY=            -12.1690   ZZ=            -13.7885
   XY=              2.3057   XZ=             -0.1930   YZ=             -0.1347

 Normal termination of Gaussian 09 at Wed Aug 26 10:26:44 2020.
