 Gaussian 09, Revision D.01,
 Gaussian 09:  ES64L-G09RevD.01 24-Apr-2013

 --------------------
 #p B2PLYPD3/Def2QZVP
 --------------------

 --------
 methanol
 --------
 Symbolic Z-matrix:
 Charge =  0 Multiplicity = 1

                         Standard orientation:
 ---------------------------------------------------------------------
 Center     Atomic      Atomic             Coordinates (Angstroms)
 Number     Number       Type             X           Y           Z
 ---------------------------------------------------------------------
      1          6           0       -0.683627   -0.023454    0.011450
      2          8           0        0.754978    0.072461   -0.042360
      3          1           0       -0.951418   -0.039401    1.115037
      4          1           0       -1.076891   -0.929275   -0.627246
      5          1           0       -1.061136    0.986192   -0.424296
      6          1           0        1.151379   -0.456480    0.206681
 ---------------------------------------------------------------------

 SCF Done:  E(RB2PLYPD3) =  -115.425822060     A.U. after   11 cycles
 E2(B2PLYPD3) =    -0.1443082595D+00 E(B2PLYPD3) =    -0.11557013031951D+03

 The electronic state is 1-A.
 Alpha  occ. eigenvalues --  -19.69282 -10.68692  -1.22686  -0.81235  -0.60624
 Alpha  occ. eigenvalues --   -0.51680  -0.49691  -0.40007  -0.36094
 Alpha virt. eigenvalues --    0.05357   0.09111   0.11648   0.12005   0.14031
 Alpha virt. eigenvalues --    0.16672   0.17975   0.28797   0.31529   0.33071
 Alpha virt. eigenvalues --    0.36279   0.37686   0.39447   0.40473   0.42628

 Mulliken charges:
               1
     1  C    0.055372
     2  O   -0.269987
     3  H    0.060024
     4  H    0.057586
     5  H    0.080227
     6  H    0.016778
 Sum of Mulliken charges =   0.00000

 Dipole moment (field-independent basis, Debye):
    X=             -0.9300    Y=             -1.0653    Z=              0.5468  Tot=              1.5162
 Quadrupole moment (field-independent basis, Debye-Ang):
   XX=            -12.9398   YY=            -12.7422   ZZ=            -13.3385
   XY=             -1.7621   XZ=              0.9091   YZ=             -0.2016

 Normal termination of Gaussian 09 at Wed Aug 26 14:30:22 2020.
