 Gaussian 09, Revision D.01,
 Gaussian 09:  ES64L-G09RevD.01 24-Apr-2013

 --------------------
 #p B2PLYPD3/Def2QZVP
 --------------------

 --------
 methanol
 --------
 Symbolic Z-matrix:
 Charge =  0 Multiplicity = 1

                         Standard orientation:
 ---------------------------------------------------------------------
 Center     Atomic      Atomic             Coordinates (Angstroms)
 Number     Number       Type             X           Y           Z
 ---------------------------------------------------------------------
      1          6           0        0.654487   -0.015498    0.011172
      2          8           0       -0.745922    0.099470   -0.013184
      3          1           0        1.043923   -0.699664   -0.844907
      4          1           0        1.006740   -0.431443    0.956074
      5          1           0        1.100492    1.037870   -0.128358
      6          1           0       -1.110700   -0.609535    0.055632
 ---------------------------------------------------------------------

 SCF Done:  E(RB2PLYPD3) =  -115.514800348     A.U. after   10 cycles
 E2(B2PLYPD3) =    -0.1448803689D+00 E(B2PLYPD3) =    -0.11565968071728D+03

 The electronic state is 1-A.
 Alpha  occ. eigenvalues --  -19.71080 -10.67283  -1.20844  -0.79861  -0.61166
 Alpha  occ. eigenvalues --   -0.51606  -0.50188  -0.40897  -0.35651
 Alpha virt. eigenvalues --    0.05362   0.08841   0.12013   0.12228   0.14821
 Alpha virt. eigenvalues --    0.17194   0.17814   0.28941   0.32953   0.33694
 Alpha virt. eigenvalues --    0.36983   0.38388   0.39615   0.40635   0.42821

 Mulliken charges:
               1
     1  C    0.061520
     2  O   -0.348200
     3  H    0.039131
     4  H    0.053388
     5  H    0.072227
     6  H    0.121933
 Sum of Mulliken charges =   0.00000

 Dipole moment (field-independent basis, Debye):
    X=              0.8192    Y=             -1.3368    Z=              0.2004  Tot=              1.5806
 Quadrupole moment (field-independent basis, Debye-Ang):
   XX=            -13.0490   YY=            -12.4529   ZZ=            -13.7285
   XY=              2.0644   XZ=             -0.1469   YZ=             -0.1454

 Normal termination of Gaussian 09 at Thu Aug 27 00:06:30 2020.
