 Gaussian 09, Revision D.01,
 Gaussian 09:  ES64L-G09RevD.01 24-Apr-2013

 --------------------
 #p B2PLYPD3/Def2QZVP
 --------------------

 --------
 methanol
 --------
 Symbolic Z-matrix:
 Charge =  0 Multiplicity = 1

                         Standard orientation:
 ---------------------------------------------------------------------
 Center     Atomic      Atomic             Coordinates (Angstroms)
 Number     Number       Type             X           Y           Z
 ---------------------------------------------------------------------
      1          6           0       -0.664116   -0.020090    0.002949
      2          8           0        0.754949    0.098249   -0.012068
      3          1           0       -1.033250   -0.466546    0.957017
      4          1           0       -1.019690   -0.637926   -0.895341
      5          1           0       -1.106354    1.036223   -0.064021
      6          1           0        1.104400   -0.597205    0.081193
 ---------------------------------------------------------------------

 SCF Done:  E(RB2PLYPD3) =  -115.505884906     A.U. after   10 cycles
 E2(B2PLYPD3) =    -0.1448885411D+00 E(B2PLYPD3) =    -0.11565077344675D+03

 The electronic state is 1-A.
 Alpha  occ. eigenvalues --  -19.70828 -10.67523  -1.20881  -0.79897  -0.60796
 Alpha  occ. eigenvalues --   -0.51630  -0.49929  -0.40978  -0.35915
 Alpha virt. eigenvalues --    0.05394   0.08857   0.12010   0.12127   0.14570
 Alpha virt. eigenvalues --    0.17189   0.17919   0.28865   0.32698   0.33257
 Alpha virt. eigenvalues --    0.36952   0.38580   0.39836   0.39948   0.42892

 Mulliken charges:
               1
     1  C    0.060109
     2  O   -0.338990
     3  H    0.052171
     4  H    0.049896
     5  H    0.073155
     6  H    0.103659
 Sum of Mulliken charges =   0.00000

 Dipole moment (field-independent basis, Debye):
    X=             -0.9191    Y=             -1.3184    Z=              0.2124  Tot=              1.6211
 Quadrupole moment (field-independent basis, Debye-Ang):
   XX=            -13.0706   YY=            -12.5125   ZZ=            -13.6175
   XY=             -2.0558   XZ=              0.1951   YZ=             -0.1117

 Normal termination of Gaussian 09 at Thu Aug 27 00:12:43 2020.
