 Gaussian 09, Revision D.01,
 Gaussian 09:  ES64L-G09RevD.01 24-Apr-2013

 --------------------
 #p B2PLYPD3/Def2QZVP
 --------------------

 --------
 methanol
 --------
 Symbolic Z-matrix:
 Charge =  0 Multiplicity = 1

                         Standard orientation:
 ---------------------------------------------------------------------
 Center     Atomic      Atomic             Coordinates (Angstroms)
 Number     Number       Type             X           Y           Z
 ---------------------------------------------------------------------
      1          6           0       -0.671072   -0.018436    0.006034
      2          8           0        0.749133    0.098886   -0.011075
      3          1           0       -1.030712   -0.438570    0.938875
      4          1           0       -1.036786   -0.662135   -0.854803
      5          1           0       -1.021249    1.062322   -0.096892
      6          1           0        1.122117   -0.642088    0.065214
 ---------------------------------------------------------------------

 SCF Done:  E(RB2PLYPD3) =  -115.530772868     A.U. after   10 cycles
 E2(B2PLYPD3) =    -0.1454712710D+00 E(B2PLYPD3) =    -0.11567624413880D+03

 The electronic state is 1-A.
 Alpha  occ. eigenvalues --  -19.71149 -10.66846  -1.19061  -0.79547  -0.60403
 Alpha  occ. eigenvalues --   -0.51639  -0.49429  -0.41172  -0.35693
 Alpha virt. eigenvalues --    0.05341   0.08759   0.11958   0.12244   0.14905
 Alpha virt. eigenvalues --    0.16843   0.17879   0.29064   0.32944   0.33304
 Alpha virt. eigenvalues --    0.37570   0.38427   0.39817   0.40602   0.42571

 Mulliken charges:
               1
     1  C    0.062986
     2  O   -0.389138
     3  H    0.055520
     4  H    0.047998
     5  H    0.073386
     6  H    0.149248
 Sum of Mulliken charges =   0.00000

 Dipole moment (field-independent basis, Debye):
    X=             -0.8812    Y=             -1.3896    Z=              0.1916  Tot=              1.6566
 Quadrupole moment (field-independent basis, Debye-Ang):
   XX=            -13.1184   YY=            -12.3017   ZZ=            -13.6936
   XY=             -1.9985   XZ=              0.1416   YZ=             -0.1171

 Normal termination of Gaussian 09 at Wed Aug 26 23:57:19 2020.
