 Gaussian 09, Revision D.01,
 Gaussian 09:  ES64L-G09RevD.01 24-Apr-2013

 --------------------
 #p B2PLYPD3/Def2QZVP
 --------------------

 --------
 methanol
 --------
 Symbolic Z-matrix:
 Charge =  0 Multiplicity = 1

                         Standard orientation:
 ---------------------------------------------------------------------
 Center     Atomic      Atomic             Coordinates (Angstroms)
 Number     Number       Type             X           Y           Z
 ---------------------------------------------------------------------
      1          6           0        0.693183   -0.023724   -0.003374
      2          8           0       -0.739353    0.091375   -0.012983
      3          1           0        1.061996   -0.607452   -0.847607
      4          1           0        0.930283   -0.556354    0.919721
      5          1           0        0.992540    1.129228    0.020571
      6          1           0       -1.229093   -0.554077    0.031422
 ---------------------------------------------------------------------

 SCF Done:  E(RB2PLYPD3) =  -115.510985726     A.U. after   10 cycles
 E2(B2PLYPD3) =    -0.1452825434D+00 E(B2PLYPD3) =    -0.11565626826909D+03

 The electronic state is 1-A.
 Alpha  occ. eigenvalues --  -19.69954 -10.67336  -1.18391  -0.80383  -0.60443
 Alpha  occ. eigenvalues --   -0.51845  -0.48935  -0.39720  -0.35389
 Alpha virt. eigenvalues --    0.05370   0.08824   0.11476   0.12390   0.14797
 Alpha virt. eigenvalues --    0.16454   0.17514   0.29199   0.32030   0.33273
 Alpha virt. eigenvalues --    0.36258   0.39275   0.40066   0.40383   0.42697

 Mulliken charges:
               1
     1  C    0.068724
     2  O   -0.390262
     3  H    0.060194
     4  H    0.054485
     5  H    0.080217
     6  H    0.126642
 Sum of Mulliken charges =   0.00000

 Dipole moment (field-independent basis, Debye):
    X=              0.7791    Y=             -1.3532    Z=              0.1038  Tot=              1.5649
 Quadrupole moment (field-independent basis, Debye-Ang):
   XX=            -12.7225   YY=            -12.3437   ZZ=            -13.7118
   XY=              1.9160   XZ=             -0.2428   YZ=              0.0053

 Normal termination of Gaussian 09 at Wed Aug 26 19:41:32 2020.
