 Gaussian 09, Revision D.01,
 Gaussian 09:  ES64L-G09RevD.01 24-Apr-2013

 --------------------
 #p B2PLYPD3/Def2QZVP
 --------------------

 --------
 methanol
 --------
 Symbolic Z-matrix:
 Charge =  0 Multiplicity = 1

                         Standard orientation:
 ---------------------------------------------------------------------
 Center     Atomic      Atomic             Coordinates (Angstroms)
 Number     Number       Type             X           Y           Z
 ---------------------------------------------------------------------
      1          6           0        0.656798    0.029140    0.009538
      2          8           0       -0.746401   -0.164197   -0.016453
      3          1           0        0.981725    0.385365    0.865329
      4          1           0        1.041521    0.604347   -0.799364
      5          1           0        1.134321   -0.855675   -0.063360
      6          1           0       -1.127142    1.004701    0.071793
 ---------------------------------------------------------------------

 SCF Done:  E(RB2PLYPD3) =  -115.491035716     A.U. after   11 cycles
 E2(B2PLYPD3) =    -0.1521161030D+00 E(B2PLYPD3) =    -0.11564315181900D+03

 The electronic state is 1-A.
 Alpha  occ. eigenvalues --  -19.74643 -10.62756  -1.12892  -0.79542  -0.55352
 Alpha  occ. eigenvalues --   -0.53008  -0.49699  -0.40297  -0.35396
 Alpha virt. eigenvalues --    0.01797   0.07627   0.12579   0.12909   0.14653
 Alpha virt. eigenvalues --    0.17940   0.18569   0.25365   0.29394   0.33542
 Alpha virt. eigenvalues --    0.34282   0.39025   0.40836   0.42441   0.43580

 Mulliken charges:
               1
     1  C    0.093354
     2  O   -0.487344
     3  H    0.045643
     4  H    0.040343
     5  H    0.054732
     6  H    0.253272
 Sum of Mulliken charges =   0.00000

 Dipole moment (field-independent basis, Debye):
    X=              1.0537    Y=              1.6781    Z=              0.1949  Tot=              1.9910
 Quadrupole moment (field-independent basis, Debye-Ang):
   XX=            -13.1549   YY=            -11.7773   ZZ=            -13.8175
   XY=             -2.4315   XZ=             -0.1349   YZ=              0.1160

 Normal termination of Gaussian 09 at Wed Aug 26 16:21:43 2020.
