 Gaussian 09, Revision D.01,
 Gaussian 09:  ES64L-G09RevD.01 24-Apr-2013

 --------------------
 #p B2PLYPD3/Def2QZVP
 --------------------

 --------
 methanol
 --------
 Symbolic Z-matrix:
 Charge =  0 Multiplicity = 1

                         Standard orientation:
 ---------------------------------------------------------------------
 Center     Atomic      Atomic             Coordinates (Angstroms)
 Number     Number       Type             X           Y           Z
 ---------------------------------------------------------------------
      1          6           0       -0.687872   -0.020112    0.020988
      2          8           0        0.757395    0.091538   -0.027801
      3          1           0       -0.957279   -0.325212    1.009273
      4          1           0       -1.069672   -0.749023   -0.828443
      5          1           0       -1.048980    1.039406   -0.196793
      6          1           0        1.144004   -0.576800    0.112440
 ---------------------------------------------------------------------

 SCF Done:  E(RB2PLYPD3) =  -115.501792736     A.U. after   10 cycles
 E2(B2PLYPD3) =    -0.1451276325D+00 E(B2PLYPD3) =    -0.11564692036828D+03

 The electronic state is 1-A.
 Alpha  occ. eigenvalues --  -19.70271 -10.67570  -1.19680  -0.80171  -0.60071
 Alpha  occ. eigenvalues --   -0.51803  -0.49366  -0.40720  -0.35882
 Alpha virt. eigenvalues --    0.05402   0.08834   0.11831   0.12073   0.14385
 Alpha virt. eigenvalues --    0.16797   0.17881   0.28926   0.31646   0.33038
 Alpha virt. eigenvalues --    0.36776   0.38218   0.39904   0.40850   0.42865

 Mulliken charges:
               1
     1  C    0.063417
     2  O   -0.356759
     3  H    0.065299
     4  H    0.049392
     5  H    0.078405
     6  H    0.100245
 Sum of Mulliken charges =   0.00000

 Dipole moment (field-independent basis, Debye):
    X=             -0.9635    Y=             -1.2675    Z=              0.3678  Tot=              1.6341
 Quadrupole moment (field-independent basis, Debye-Ang):
   XX=            -13.0409   YY=            -12.5277   ZZ=            -13.4594
   XY=             -2.0243   XZ=              0.4005   YZ=             -0.2192

 Normal termination of Gaussian 09 at Wed Aug 26 11:24:10 2020.
