 Gaussian 09, Revision D.01,
 Gaussian 09:  ES64L-G09RevD.01 24-Apr-2013

 --------------------
 #p B2PLYPD3/Def2QZVP
 --------------------

 --------
 methanol
 --------
 Symbolic Z-matrix:
 Charge =  0 Multiplicity = 1

                         Standard orientation:
 ---------------------------------------------------------------------
 Center     Atomic      Atomic             Coordinates (Angstroms)
 Number     Number       Type             X           Y           Z
 ---------------------------------------------------------------------
      1          6           0        0.694391   -0.006213   -0.007627
      2          8           0       -0.759804    0.088497   -0.000748
      3          1           0        1.016868   -0.554617   -0.961933
      4          1           0        0.987214   -0.565982    0.989281
      5          1           0        1.051571    1.002680    0.025809
      6          1           0       -1.143565   -0.552777   -0.001410
 ---------------------------------------------------------------------

 SCF Done:  E(RB2PLYPD3) =  -115.472620519     A.U. after   11 cycles
 E2(B2PLYPD3) =    -0.1446292241D+00 E(B2PLYPD3) =    -0.11561724974282D+03

 The electronic state is 1-A.
 Alpha  occ. eigenvalues --  -19.69639 -10.67910  -1.20695  -0.80905  -0.59857
 Alpha  occ. eigenvalues --   -0.51260  -0.50777  -0.40682  -0.35673
 Alpha virt. eigenvalues --    0.05411   0.08971   0.11614   0.12381   0.14034
 Alpha virt. eigenvalues --    0.16819   0.17723   0.28880   0.30998   0.32920
 Alpha virt. eigenvalues --    0.36573   0.38753   0.39979   0.40668   0.42863

 Mulliken charges:
               1
     1  C    0.065020
     2  O   -0.322859
     3  H    0.057125
     4  H    0.049225
     5  H    0.091309
     6  H    0.060180
 Sum of Mulliken charges =   0.00000

 Dipole moment (field-independent basis, Debye):
    X=              1.0182    Y=             -1.1985    Z=             -0.0295  Tot=              1.5729
 Quadrupole moment (field-independent basis, Debye-Ang):
   XX=            -13.0221   YY=            -12.5140   ZZ=            -13.4513
   XY=              2.1476   XZ=             -0.0629   YZ=              0.0623

 Normal termination of Gaussian 09 at Wed Aug 26 11:35:54 2020.
