 Gaussian 09, Revision D.01,
 Gaussian 09:  ES64L-G09RevD.01 24-Apr-2013

 --------------------
 #p B2PLYPD3/Def2QZVP
 --------------------

 --------
 methanol
 --------
 Symbolic Z-matrix:
 Charge =  0 Multiplicity = 1

                         Standard orientation:
 ---------------------------------------------------------------------
 Center     Atomic      Atomic             Coordinates (Angstroms)
 Number     Number       Type             X           Y           Z
 ---------------------------------------------------------------------
      1          6           0        0.665834   -0.016231    0.013147
      2          8           0       -0.754675    0.103708   -0.019081
      3          1           0        1.033033   -0.790641   -0.772713
      4          1           0        0.968069   -0.353757    0.971882
      5          1           0        1.144974    1.025073   -0.199558
      6          1           0       -1.103679   -0.612958    0.074158
 ---------------------------------------------------------------------

 SCF Done:  E(RB2PLYPD3) =  -115.513605498     A.U. after   10 cycles
 E2(B2PLYPD3) =    -0.1451009204D+00 E(B2PLYPD3) =    -0.11565870641847D+03

 The electronic state is 1-A.
 Alpha  occ. eigenvalues --  -19.70955 -10.67259  -1.20196  -0.79762  -0.60774
 Alpha  occ. eigenvalues --   -0.51723  -0.49774  -0.41099  -0.35765
 Alpha virt. eigenvalues --    0.05325   0.08807   0.11869   0.12272   0.14707
 Alpha virt. eigenvalues --    0.17253   0.17713   0.29041   0.32667   0.32964
 Alpha virt. eigenvalues --    0.36572   0.37975   0.39309   0.41308   0.43390

 Mulliken charges:
               1
     1  C    0.068742
     2  O   -0.361697
     3  H    0.039281
     4  H    0.058385
     5  H    0.072314
     6  H    0.122975
 Sum of Mulliken charges =   0.00000

 Dipole moment (field-independent basis, Debye):
    X=              0.9368    Y=             -1.3613    Z=              0.2718  Tot=              1.6748
 Quadrupole moment (field-independent basis, Debye-Ang):
   XX=            -13.0912   YY=            -12.3907   ZZ=            -13.7084
   XY=              2.0929   XZ=             -0.2243   YZ=             -0.1737

 Normal termination of Gaussian 09 at Wed Aug 26 12:26:40 2020.
