 Gaussian 09, Revision D.01,
 Gaussian 09:  ES64L-G09RevD.01 24-Apr-2013

 --------------------
 #p B2PLYPD3/Def2QZVP
 --------------------

 --------
 methanol
 --------
 Symbolic Z-matrix:
 Charge =  0 Multiplicity = 1

                         Standard orientation:
 ---------------------------------------------------------------------
 Center     Atomic      Atomic             Coordinates (Angstroms)
 Number     Number       Type             X           Y           Z
 ---------------------------------------------------------------------
      1          6           0       -0.673506    0.015154   -0.008789
      2          8           0        0.754020   -0.138956   -0.000173
      3          1           0       -1.065966    0.521534   -0.852305
      4          1           0       -1.009729    0.532002    0.895551
      5          1           0       -1.077872   -0.906439    0.022932
      6          1           0        1.162437    0.873624   -0.012059
 ---------------------------------------------------------------------

 SCF Done:  E(RB2PLYPD3) =  -115.532106747     A.U. after   11 cycles
 E2(B2PLYPD3) =    -0.1496685032D+00 E(B2PLYPD3) =    -0.11568177524991D+03

 The electronic state is 1-A.
 Alpha  occ. eigenvalues --  -19.73605 -10.64302  -1.13462  -0.78987  -0.56730
 Alpha  occ. eigenvalues --   -0.51550  -0.49955  -0.41196  -0.35184
 Alpha virt. eigenvalues --    0.03890   0.07810   0.12451   0.12772   0.14769
 Alpha virt. eigenvalues --    0.17405   0.18333   0.28859   0.30505   0.33072
 Alpha virt. eigenvalues --    0.33778   0.38747   0.40714   0.41266   0.43666

 Mulliken charges:
               1
     1  C    0.078246
     2  O   -0.490392
     3  H    0.048158
     4  H    0.042970
     5  H    0.071059
     6  H    0.249959
 Sum of Mulliken charges =   0.00000

 Dipole moment (field-independent basis, Debye):
    X=             -0.9699    Y=              1.5713    Z=             -0.0422  Tot=              1.8470
 Quadrupole moment (field-independent basis, Debye-Ang):
   XX=            -12.9724   YY=            -12.0008   ZZ=            -13.8488
   XY=              2.4286   XZ=              0.0534   YZ=             -0.0669

 Normal termination of Gaussian 09 at Thu Aug 27 00:01:23 2020.
