 Gaussian 09, Revision D.01,
 Gaussian 09:  ES64L-G09RevD.01 24-Apr-2013

 --------------------
 #p B2PLYPD3/Def2QZVP
 --------------------

 --------
 methanol
 --------
 Symbolic Z-matrix:
 Charge =  0 Multiplicity = 1

                         Standard orientation:
 ---------------------------------------------------------------------
 Center     Atomic      Atomic             Coordinates (Angstroms)
 Number     Number       Type             X           Y           Z
 ---------------------------------------------------------------------
      1          6           0       -0.689775    0.049301   -0.016584
      2          8           0        0.755921   -0.198221    0.000231
      3          1           0       -1.133784    0.432555   -0.740393
      4          1           0       -0.931407    0.590320    0.779319
      5          1           0       -1.187116   -0.823544    0.103733
      6          1           0        1.343592    1.090634   -0.045007
 ---------------------------------------------------------------------

 SCF Done:  E(RB2PLYPD3) =  -115.423584732     A.U. after   12 cycles
 E2(B2PLYPD3) =    -0.1565655583D+00 E(B2PLYPD3) =    -0.11558015029009D+03

 The electronic state is 1-A.
 Alpha  occ. eigenvalues --  -19.75560 -10.61806  -1.09998  -0.81404  -0.53760
 Alpha  occ. eigenvalues --   -0.53031  -0.48300  -0.39321  -0.35568
 Alpha virt. eigenvalues --   -0.01573   0.07213   0.12610   0.13083   0.14437
 Alpha virt. eigenvalues --    0.17699   0.18695   0.22014   0.29085   0.31989
 Alpha virt. eigenvalues --    0.34446   0.38915   0.39450   0.42483   0.45182

 Mulliken charges:
               1
     1  C    0.106510
     2  O   -0.493616
     3  H    0.051096
     4  H    0.046046
     5  H    0.051799
     6  H    0.238165
 Sum of Mulliken charges =   0.00000

 Dipole moment (field-independent basis, Debye):
    X=             -1.0823    Y=              1.7741    Z=             -0.0691  Tot=              2.0793
 Quadrupole moment (field-independent basis, Debye-Ang):
   XX=            -12.2708   YY=            -11.7183   ZZ=            -14.0433
   XY=              2.6839   XZ=              0.0717   YZ=             -0.0712

 Normal termination of Gaussian 09 at Wed Aug 26 23:57:02 2020.
