 Gaussian 09, Revision D.01,
 Gaussian 09:  ES64L-G09RevD.01 24-Apr-2013

 --------------------
 #p B2PLYPD3/Def2QZVP
 --------------------

 --------
 methanol
 --------
 Symbolic Z-matrix:
 Charge =  0 Multiplicity = 1

                         Standard orientation:
 ---------------------------------------------------------------------
 Center     Atomic      Atomic             Coordinates (Angstroms)
 Number     Number       Type             X           Y           Z
 ---------------------------------------------------------------------
      1          6           0        0.640170   -0.029196   -0.003544
      2          8           0       -0.740262    0.131552    0.000133
      3          1           0        1.020154   -0.575436   -0.816683
      4          1           0        1.076427   -0.497083    0.843201
      5          1           0        1.082810    1.021395   -0.030738
      6          1           0       -1.098318   -0.826112    0.024419
 ---------------------------------------------------------------------

 SCF Done:  E(RB2PLYPD3) =  -115.542564092     A.U. after   10 cycles
 E2(B2PLYPD3) =    -0.1482367714D+00 E(B2PLYPD3) =    -0.11569080086381D+03

 The electronic state is 1-A.
 Alpha  occ. eigenvalues --  -19.73566 -10.64984  -1.16454  -0.78288  -0.59145
 Alpha  occ. eigenvalues --   -0.52169  -0.49520  -0.40842  -0.35383
 Alpha virt. eigenvalues --    0.04396   0.08047   0.12135   0.12766   0.15291
 Alpha virt. eigenvalues --    0.17439   0.18229   0.29097   0.32163   0.33561
 Alpha virt. eigenvalues --    0.35478   0.37260   0.40058   0.41832   0.44402

 Mulliken charges:
               1
     1  C    0.070035
     2  O   -0.451340
     3  H    0.044071
     4  H    0.043292
     5  H    0.054813
     6  H    0.239129
 Sum of Mulliken charges =   0.00000

 Dipole moment (field-independent basis, Debye):
    X=              0.8166    Y=             -1.6527    Z=              0.0358  Tot=              1.8438
 Quadrupole moment (field-independent basis, Debye-Ang):
   XX=            -13.1909   YY=            -12.0266   ZZ=            -13.9857
   XY=              2.0891   XZ=             -0.0123   YZ=             -0.0028

 Normal termination of Gaussian 09 at Wed Aug 26 11:40:51 2020.
