 Gaussian 09, Revision D.01,
 Gaussian 09:  ES64L-G09RevD.01 24-Apr-2013

 --------------------
 #p B2PLYPD3/Def2QZVP
 --------------------

 --------
 methanol
 --------
 Symbolic Z-matrix:
 Charge =  0 Multiplicity = 1

                         Standard orientation:
 ---------------------------------------------------------------------
 Center     Atomic      Atomic             Coordinates (Angstroms)
 Number     Number       Type             X           Y           Z
 ---------------------------------------------------------------------
      1          6           0        0.679131   -0.017619   -0.000560
      2          8           0       -0.761836    0.082113   -0.004792
      3          1           0        1.004494   -0.678861   -0.897302
      4          1           0        1.131571   -0.372314    1.012647
      5          1           0        0.998219    1.056820   -0.167349
      6          1           0       -1.114377   -0.556833    0.093699
 ---------------------------------------------------------------------

 SCF Done:  E(RB2PLYPD3) =  -115.462850658     A.U. after   11 cycles
 E2(B2PLYPD3) =    -0.1447572327D+00 E(B2PLYPD3) =    -0.11560760789076D+03

 The electronic state is 1-A.
 Alpha  occ. eigenvalues --  -19.70110 -10.68323  -1.21935  -0.80478  -0.60583
 Alpha  occ. eigenvalues --   -0.51203  -0.49516  -0.41004  -0.36126
 Alpha virt. eigenvalues --    0.05391   0.08855   0.11770   0.12024   0.14398
 Alpha virt. eigenvalues --    0.16666   0.18150   0.28723   0.31668   0.33361
 Alpha virt. eigenvalues --    0.36163   0.38702   0.38949   0.40505   0.42292

 Mulliken charges:
               1
     1  C    0.048623
     2  O   -0.291870
     3  H    0.055447
     4  H    0.056244
     5  H    0.081146
     6  H    0.050409
 Sum of Mulliken charges =   0.00000

 Dipole moment (field-independent basis, Debye):
    X=              0.9610    Y=             -1.2207    Z=              0.1799  Tot=              1.5640
 Quadrupole moment (field-independent basis, Debye-Ang):
   XX=            -13.0981   YY=            -12.5605   ZZ=            -13.5017
   XY=              1.9284   XZ=             -0.1754   YZ=             -0.1195

 Normal termination of Gaussian 09 at Wed Aug 26 16:31:16 2020.
