 Gaussian 09, Revision D.01,
 Gaussian 09:  ES64L-G09RevD.01 24-Apr-2013

 --------------------
 #p B2PLYPD3/Def2QZVP
 --------------------

 --------
 methanol
 --------
 Symbolic Z-matrix:
 Charge =  0 Multiplicity = 1

                         Standard orientation:
 ---------------------------------------------------------------------
 Center     Atomic      Atomic             Coordinates (Angstroms)
 Number     Number       Type             X           Y           Z
 ---------------------------------------------------------------------
      1          6           0       -0.668753   -0.023113   -0.010964
      2          8           0        0.745231    0.132410    0.004777
      3          1           0       -0.980720   -0.589604    0.869041
      4          1           0       -1.012593   -0.496749   -0.863447
      5          1           0       -1.093587    0.964496    0.053563
      6          1           0        1.137569   -0.798744   -0.031589
 ---------------------------------------------------------------------

 SCF Done:  E(RB2PLYPD3) =  -115.547481214     A.U. after   10 cycles
 E2(B2PLYPD3) =    -0.1479606537D+00 E(B2PLYPD3) =    -0.11569544186738D+03

 The electronic state is 1-A.
 Alpha  occ. eigenvalues --  -19.72803 -10.64754  -1.15074  -0.78777  -0.58095
 Alpha  occ. eigenvalues --   -0.52283  -0.49662  -0.41142  -0.35254
 Alpha virt. eigenvalues --    0.04619   0.08173   0.12462   0.12493   0.14840
 Alpha virt. eigenvalues --    0.17395   0.18011   0.29211   0.32820   0.33210
 Alpha virt. eigenvalues --    0.34144   0.39147   0.39823   0.41787   0.44543

 Mulliken charges:
               1
     1  C    0.078271
     2  O   -0.475954
     3  H    0.043153
     4  H    0.050254
     5  H    0.068458
     6  H    0.235819
 Sum of Mulliken charges =   0.00000

 Dipole moment (field-independent basis, Debye):
    X=             -0.9249    Y=             -1.5686    Z=             -0.1038  Tot=              1.8240
 Quadrupole moment (field-independent basis, Debye-Ang):
   XX=            -13.0822   YY=            -12.0810   ZZ=            -13.7706
   XY=             -2.3060   XZ=             -0.0024   YZ=              0.1024

 Normal termination of Gaussian 09 at Wed Aug 26 21:32:39 2020.
