 Gaussian 09, Revision D.01,
 Gaussian 09:  ES64L-G09RevD.01 24-Apr-2013

 --------------------
 #p B2PLYPD3/Def2QZVP
 --------------------

 --------
 methanol
 --------
 Symbolic Z-matrix:
 Charge =  0 Multiplicity = 1

                         Standard orientation:
 ---------------------------------------------------------------------
 Center     Atomic      Atomic             Coordinates (Angstroms)
 Number     Number       Type             X           Y           Z
 ---------------------------------------------------------------------
      1          6           0       -0.667485    0.022066    0.007598
      2          8           0        0.739890   -0.137435   -0.017100
      3          1           0       -1.063629    0.613513   -0.824097
      4          1           0       -0.975069    0.473872    0.867331
      5          1           0       -1.066777   -0.956484   -0.019337
      6          1           0        1.191263    0.836188    0.067315
 ---------------------------------------------------------------------

 SCF Done:  E(RB2PLYPD3) =  -115.536506848     A.U. after   11 cycles
 E2(B2PLYPD3) =    -0.1489981200D+00 E(B2PLYPD3) =    -0.11568550496753D+03

 The electronic state is 1-A.
 Alpha  occ. eigenvalues --  -19.73292 -10.64244  -1.14158  -0.78722  -0.57613
 Alpha  occ. eigenvalues --   -0.51918  -0.49687  -0.40895  -0.35073
 Alpha virt. eigenvalues --    0.04056   0.07921   0.12500   0.12688   0.15059
 Alpha virt. eigenvalues --    0.17207   0.18134   0.29137   0.31027   0.33367
 Alpha virt. eigenvalues --    0.34176   0.39236   0.39673   0.41358   0.44567

 Mulliken charges:
               1
     1  C    0.079478
     2  O   -0.486480
     3  H    0.042584
     4  H    0.047536
     5  H    0.069482
     6  H    0.247399
 Sum of Mulliken charges =   0.00000

 Dipole moment (field-independent basis, Debye):
    X=             -0.8457    Y=              1.5928    Z=              0.2160  Tot=              1.8163
 Quadrupole moment (field-independent basis, Debye-Ang):
   XX=            -12.8760   YY=            -12.0111   ZZ=            -13.8774
   XY=              2.3648   XZ=              0.1631   YZ=              0.1221

 Normal termination of Gaussian 09 at Wed Aug 26 10:22:06 2020.
