 Gaussian 09, Revision D.01,
 Gaussian 09:  ES64L-G09RevD.01 24-Apr-2013

 --------------------
 #p B2PLYPD3/Def2QZVP
 --------------------

 --------
 methanol
 --------
 Symbolic Z-matrix:
 Charge =  0 Multiplicity = 1

                         Standard orientation:
 ---------------------------------------------------------------------
 Center     Atomic      Atomic             Coordinates (Angstroms)
 Number     Number       Type             X           Y           Z
 ---------------------------------------------------------------------
      1          6           0        0.656577    0.035377    0.012590
      2          8           0       -0.737656   -0.154411   -0.016266
      3          1           0        1.026178    0.355908    0.888322
      4          1           0        1.065618    0.658822   -0.781507
      5          1           0        1.104941   -0.900730   -0.123456
      6          1           0       -1.234954    0.909029    0.071227
 ---------------------------------------------------------------------

 SCF Done:  E(RB2PLYPD3) =  -115.512594669     A.U. after   11 cycles
 E2(B2PLYPD3) =    -0.1508923267D+00 E(B2PLYPD3) =    -0.11566348699560D+03

 The electronic state is 1-A.
 Alpha  occ. eigenvalues --  -19.74255 -10.63691  -1.13432  -0.78770  -0.56176
 Alpha  occ. eigenvalues --   -0.52287  -0.49727  -0.40002  -0.35263
 Alpha virt. eigenvalues --    0.02735   0.07581   0.12623   0.12876   0.14988
 Alpha virt. eigenvalues --    0.17372   0.18651   0.26900   0.29441   0.33745
 Alpha virt. eigenvalues --    0.34725   0.38708   0.39803   0.42220   0.44082

 Mulliken charges:
               1
     1  C    0.078587
     2  O   -0.486840
     3  H    0.051350
     4  H    0.040639
     5  H    0.059949
     6  H    0.256315
 Sum of Mulliken charges =   0.00000

 Dipole moment (field-independent basis, Debye):
    X=              0.8025    Y=              1.6287    Z=              0.2020  Tot=              1.8269
 Quadrupole moment (field-independent basis, Debye-Ang):
   XX=            -12.6519   YY=            -12.0946   ZZ=            -13.9028
   XY=             -2.5175   XZ=             -0.1474   YZ=              0.1242

 Normal termination of Gaussian 09 at Wed Aug 26 11:24:24 2020.
