 Gaussian 09, Revision D.01,
 Gaussian 09:  ES64L-G09RevD.01 24-Apr-2013

 --------------------
 #p B2PLYPD3/Def2QZVP
 --------------------

 --------
 methanol
 --------
 Symbolic Z-matrix:
 Charge =  0 Multiplicity = 1

                         Standard orientation:
 ---------------------------------------------------------------------
 Center     Atomic      Atomic             Coordinates (Angstroms)
 Number     Number       Type             X           Y           Z
 ---------------------------------------------------------------------
      1          6           0       -0.663140   -0.028563    0.000887
      2          8           0        0.753732    0.103628   -0.012151
      3          1           0       -1.010817   -0.451394    0.969789
      4          1           0       -1.047530   -0.635427   -0.871810
      5          1           0       -1.127415    1.037689   -0.066637
      6          1           0        1.134745   -0.608515    0.060543
 ---------------------------------------------------------------------

 SCF Done:  E(RB2PLYPD3) =  -115.520019187     A.U. after   10 cycles
 E2(B2PLYPD3) =    -0.1452894422D+00 E(B2PLYPD3) =    -0.11566530862912D+03

 The electronic state is 1-A.
 Alpha  occ. eigenvalues --  -19.71145 -10.67450  -1.19905  -0.79605  -0.60559
 Alpha  occ. eigenvalues --   -0.51809  -0.49636  -0.40506  -0.35948
 Alpha virt. eigenvalues --    0.05380   0.08686   0.12053   0.12159   0.14547
 Alpha virt. eigenvalues --    0.17222   0.18077   0.28887   0.32958   0.33255
 Alpha virt. eigenvalues --    0.36488   0.38698   0.39621   0.40133   0.42909

 Mulliken charges:
               1
     1  C    0.060068
     2  O   -0.367037
     3  H    0.053876
     4  H    0.053237
     5  H    0.068319
     6  H    0.131538
 Sum of Mulliken charges =   0.00000

 Dipole moment (field-independent basis, Debye):
    X=             -0.8671    Y=             -1.3656    Z=              0.1604  Tot=              1.6255
 Quadrupole moment (field-independent basis, Debye-Ang):
   XX=            -12.9291   YY=            -12.5869   ZZ=            -13.6444
   XY=             -2.0936   XZ=              0.2100   YZ=             -0.0584

 Normal termination of Gaussian 09 at Thu Aug 27 00:07:18 2020.
