 Gaussian 09, Revision D.01,
 Gaussian 09:  ES64L-G09RevD.01 24-Apr-2013

 --------------------
 #p B2PLYPD3/Def2QZVP
 --------------------

 --------
 methanol
 --------
 Symbolic Z-matrix:
 Charge =  0 Multiplicity = 1

                         Standard orientation:
 ---------------------------------------------------------------------
 Center     Atomic      Atomic             Coordinates (Angstroms)
 Number     Number       Type             X           Y           Z
 ---------------------------------------------------------------------
      1          6           0        0.677494    0.051432    0.009899
      2          8           0       -0.708942   -0.206320    0.006101
      3          1           0        1.081042    0.387271    0.777093
      4          1           0        0.816968    0.666726   -0.728815
      5          1           0        1.064400   -0.806587   -0.191078
      6          1           0       -1.355838    1.094557    0.034597
 ---------------------------------------------------------------------

 SCF Done:  E(RB2PLYPD3) =  -115.407184020     A.U. after   12 cycles
 E2(B2PLYPD3) =    -0.1560837201D+00 E(B2PLYPD3) =    -0.11556326773962D+03

 The electronic state is 1-A.
 Alpha  occ. eigenvalues --  -19.74965 -10.60470  -1.11865  -0.80587  -0.55749
 Alpha  occ. eigenvalues --   -0.54744  -0.48656  -0.38599  -0.35018
 Alpha virt. eigenvalues --   -0.02201   0.07620   0.12693   0.13111   0.14728
 Alpha virt. eigenvalues --    0.17135   0.18269   0.21711   0.29523   0.32677
 Alpha virt. eigenvalues --    0.34998   0.39088   0.39933   0.44359   0.46087

 Mulliken charges:
               1
     1  C    0.103199
     2  O   -0.479515
     3  H    0.046324
     4  H    0.043281
     5  H    0.063469
     6  H    0.223242
 Sum of Mulliken charges =   0.00000

 Dipole moment (field-independent basis, Debye):
    X=              0.9780    Y=              1.7154    Z=              0.0193  Tot=              1.9747
 Quadrupole moment (field-independent basis, Debye-Ang):
   XX=            -12.5360   YY=            -11.5677   ZZ=            -13.8756
   XY=             -2.6527   XZ=              0.1369   YZ=              0.0683

 Normal termination of Gaussian 09 at Wed Aug 26 20:59:31 2020.
