 Gaussian 09, Revision D.01,
 Gaussian 09:  ES64L-G09RevD.01 24-Apr-2013

 --------------------
 #p B2PLYPD3/Def2QZVP
 --------------------

 --------
 methanol
 --------
 Symbolic Z-matrix:
 Charge =  0 Multiplicity = 1

                         Standard orientation:
 ---------------------------------------------------------------------
 Center     Atomic      Atomic             Coordinates (Angstroms)
 Number     Number       Type             X           Y           Z
 ---------------------------------------------------------------------
      1          6           0       -0.668338    0.015391    0.001102
      2          8           0        0.744403   -0.133154   -0.009478
      3          1           0       -1.066305    0.569773   -0.842950
      4          1           0       -1.012916    0.512765    0.865159
      5          1           0       -1.030864   -0.960650    0.007468
      6          1           0        1.164892    0.850999    0.039534
 ---------------------------------------------------------------------

 SCF Done:  E(RB2PLYPD3) =  -115.538885954     A.U. after   11 cycles
 E2(B2PLYPD3) =    -0.1491008345D+00 E(B2PLYPD3) =    -0.11568798678819D+03

 The electronic state is 1-A.
 Alpha  occ. eigenvalues --  -19.73377 -10.64421  -1.14206  -0.78626  -0.57696
 Alpha  occ. eigenvalues --   -0.51553  -0.49623  -0.41268  -0.35084
 Alpha virt. eigenvalues --    0.04089   0.07948   0.12481   0.12639   0.15092
 Alpha virt. eigenvalues --    0.17117   0.18148   0.29090   0.31239   0.33450
 Alpha virt. eigenvalues --    0.34093   0.38981   0.39839   0.41223   0.44136

 Mulliken charges:
               1
     1  C    0.076191
     2  O   -0.483015
     3  H    0.044385
     4  H    0.044742
     5  H    0.071842
     6  H    0.245855
 Sum of Mulliken charges =   0.00000

 Dipole moment (field-independent basis, Debye):
    X=             -0.8889    Y=              1.5840    Z=              0.1174  Tot=              1.8202
 Quadrupole moment (field-independent basis, Debye-Ang):
   XX=            -13.0157   YY=            -11.9315   ZZ=            -13.9134
   XY=              2.3021   XZ=              0.1008   YZ=              0.0540

 Normal termination of Gaussian 09 at Thu Aug 27 00:14:27 2020.
