 Gaussian 09, Revision D.01,
 Gaussian 09:  ES64L-G09RevD.01 24-Apr-2013

 --------------------
 #p B2PLYPD3/Def2QZVP
 --------------------

 --------
 methanol
 --------
 Symbolic Z-matrix:
 Charge =  0 Multiplicity = 1

                         Standard orientation:
 ---------------------------------------------------------------------
 Center     Atomic      Atomic             Coordinates (Angstroms)
 Number     Number       Type             X           Y           Z
 ---------------------------------------------------------------------
      1          6           0        0.661723   -0.009029   -0.014672
      2          8           0       -0.759454    0.097480    0.009449
      3          1           0        0.963558   -0.570703   -0.913232
      4          1           0        1.009859   -0.568413    0.958922
      5          1           0        1.125922    1.020305   -0.002742
      6          1           0       -0.994044   -0.606853   -0.030508
 ---------------------------------------------------------------------

 SCF Done:  E(RB2PLYPD3) =  -115.472870246     A.U. after   10 cycles
 E2(B2PLYPD3) =    -0.1444462665D+00 E(B2PLYPD3) =    -0.11561731651221D+03

 The electronic state is 1-A.
 Alpha  occ. eigenvalues --  -19.70456 -10.67539  -1.23038  -0.79857  -0.61109
 Alpha  occ. eigenvalues --   -0.51829  -0.50409  -0.42154  -0.35867
 Alpha virt. eigenvalues --    0.05348   0.09132   0.11782   0.12115   0.14472
 Alpha virt. eigenvalues --    0.17421   0.17621   0.28554   0.32347   0.32784
 Alpha virt. eigenvalues --    0.36928   0.38549   0.39572   0.40378   0.43931

 Mulliken charges:
               1
     1  C    0.062488
     2  O   -0.294701
     3  H    0.052217
     4  H    0.040363
     5  H    0.076891
     6  H    0.062742
 Sum of Mulliken charges =   0.00000

 Dipole moment (field-independent basis, Debye):
    X=              1.0988    Y=             -1.2915    Z=             -0.1498  Tot=              1.7023
 Quadrupole moment (field-independent basis, Debye-Ang):
   XX=            -13.5455   YY=            -12.3160   ZZ=            -13.5687
   XY=              1.9993   XZ=              0.0434   YZ=              0.1352

 Normal termination of Gaussian 09 at Wed Aug 26 19:12:13 2020.
