 Gaussian 09, Revision D.01,
 Gaussian 09:  ES64L-G09RevD.01 24-Apr-2013

 --------------------
 #p B2PLYPD3/Def2QZVP
 --------------------

 --------
 methanol
 --------
 Symbolic Z-matrix:
 Charge =  0 Multiplicity = 1

                         Standard orientation:
 ---------------------------------------------------------------------
 Center     Atomic      Atomic             Coordinates (Angstroms)
 Number     Number       Type             X           Y           Z
 ---------------------------------------------------------------------
      1          6           0       -0.662277    0.010621   -0.003105
      2          8           0        0.743448   -0.140806   -0.007538
      3          1           0       -1.067259    0.563112   -0.838301
      4          1           0       -1.030573    0.508410    0.867012
      5          1           0       -1.042593   -0.912074    0.012339
      6          1           0        1.166505    0.903274    0.037885
 ---------------------------------------------------------------------

 SCF Done:  E(RB2PLYPD3) =  -115.524371408     A.U. after   11 cycles
 E2(B2PLYPD3) =    -0.1500527194D+00 E(B2PLYPD3) =    -0.11567442412739D+03

 The electronic state is 1-A.
 Alpha  occ. eigenvalues --  -19.73897 -10.63902  -1.13807  -0.78797  -0.57088
 Alpha  occ. eigenvalues --   -0.51385  -0.50096  -0.41174  -0.34958
 Alpha virt. eigenvalues --    0.03396   0.07801   0.12621   0.12739   0.15066
 Alpha virt. eigenvalues --    0.17295   0.18288   0.28367   0.29857   0.33451
 Alpha virt. eigenvalues --    0.34418   0.38711   0.40495   0.41199   0.43786

 Mulliken charges:
               1
     1  C    0.078330
     2  O   -0.484602
     3  H    0.042112
     4  H    0.039830
     5  H    0.071518
     6  H    0.252812
 Sum of Mulliken charges =   0.00000

 Dipole moment (field-independent basis, Debye):
    X=             -0.8903    Y=              1.5947    Z=              0.0938  Tot=              1.8288
 Quadrupole moment (field-independent basis, Debye-Ang):
   XX=            -12.9922   YY=            -11.8618   ZZ=            -13.9608
   XY=              2.3970   XZ=              0.0928   YZ=              0.0290

 Normal termination of Gaussian 09 at Wed Aug 26 15:06:36 2020.
