 Gaussian 09, Revision D.01,
 Gaussian 09:  ES64L-G09RevD.01 24-Apr-2013

 --------------------
 #p B2PLYPD3/Def2QZVP
 --------------------

 --------
 methanol
 --------
 Symbolic Z-matrix:
 Charge =  0 Multiplicity = 1

                         Standard orientation:
 ---------------------------------------------------------------------
 Center     Atomic      Atomic             Coordinates (Angstroms)
 Number     Number       Type             X           Y           Z
 ---------------------------------------------------------------------
      1          6           0        0.669329    0.043641   -0.006283
      2          8           0       -0.739096   -0.168227    0.008732
      3          1           0        0.969304    0.546870    0.818582
      4          1           0        1.002210    0.484666   -0.782421
      5          1           0        1.117111   -0.919592   -0.006007
      6          1           0       -1.191827    0.972022   -0.062315
 ---------------------------------------------------------------------

 SCF Done:  E(RB2PLYPD3) =  -115.488374865     A.U. after   11 cycles
 E2(B2PLYPD3) =    -0.1518546256D+00 E(B2PLYPD3) =    -0.11564022949095D+03

 The electronic state is 1-A.
 Alpha  occ. eigenvalues --  -19.74296 -10.62488  -1.12454  -0.79677  -0.55787
 Alpha  occ. eigenvalues --   -0.53731  -0.48687  -0.40340  -0.35355
 Alpha virt. eigenvalues --    0.01989   0.07682   0.12548   0.12848   0.14895
 Alpha virt. eigenvalues --    0.17536   0.18259   0.25656   0.29526   0.33440
 Alpha virt. eigenvalues --    0.34286   0.38777   0.39921   0.43204   0.44919

 Mulliken charges:
               1
     1  C    0.098223
     2  O   -0.495171
     3  H    0.046307
     4  H    0.046377
     5  H    0.056639
     6  H    0.247625
 Sum of Mulliken charges =   0.00000

 Dipole moment (field-independent basis, Debye):
    X=              1.0042    Y=              1.7490    Z=             -0.1530  Tot=              2.0226
 Quadrupole moment (field-independent basis, Debye-Ang):
   XX=            -12.9646   YY=            -11.7426   ZZ=            -13.8329
   XY=             -2.3885   XZ=              0.0381   YZ=             -0.0931

 Normal termination of Gaussian 09 at Wed Aug 26 12:32:33 2020.
