 Gaussian 09, Revision D.01,
 Gaussian 09:  ES64L-G09RevD.01 24-Apr-2013

 --------------------
 #p B2PLYPD3/Def2QZVP
 --------------------

 --------
 methanol
 --------
 Symbolic Z-matrix:
 Charge =  0 Multiplicity = 1

                         Standard orientation:
 ---------------------------------------------------------------------
 Center     Atomic      Atomic             Coordinates (Angstroms)
 Number     Number       Type             X           Y           Z
 ---------------------------------------------------------------------
      1          6           0        0.661541   -0.026588    0.013134
      2          8           0       -0.739877    0.116568   -0.007439
      3          1           0        1.009449   -0.609078   -0.884107
      4          1           0        1.008853   -0.478495    0.904846
      5          1           0        1.081367    1.010537   -0.072871
      6          1           0       -1.149897   -0.695982    0.032838
 ---------------------------------------------------------------------

 SCF Done:  E(RB2PLYPD3) =  -115.549312839     A.U. after   10 cycles
 E2(B2PLYPD3) =    -0.1462960051D+00 E(B2PLYPD3) =    -0.11569560884414D+03

 The electronic state is 1-A.
 Alpha  occ. eigenvalues --  -19.71957 -10.65950  -1.17435  -0.78976  -0.59635
 Alpha  occ. eigenvalues --   -0.52188  -0.49796  -0.40653  -0.35445
 Alpha virt. eigenvalues --    0.05180   0.08472   0.12299   0.12343   0.14834
 Alpha virt. eigenvalues --    0.17170   0.18053   0.29094   0.33204   0.33896
 Alpha virt. eigenvalues --    0.36502   0.38382   0.39602   0.41405   0.43709

 Mulliken charges:
               1
     1  C    0.067943
     2  O   -0.438037
     3  H    0.043555
     4  H    0.054650
     5  H    0.068149
     6  H    0.203741
 Sum of Mulliken charges =   0.00000

 Dipole moment (field-independent basis, Debye):
    X=              0.7969    Y=             -1.4644    Z=              0.1283  Tot=              1.6721
 Quadrupole moment (field-independent basis, Debye-Ang):
   XX=            -12.9772   YY=            -12.3617   ZZ=            -13.7038
   XY=              2.2063   XZ=             -0.0379   YZ=             -0.1136

 Normal termination of Gaussian 09 at Wed Aug 26 23:58:34 2020.
