 Gaussian 09, Revision D.01,
 Gaussian 09:  ES64L-G09RevD.01 24-Apr-2013

 --------------------
 #p B2PLYPD3/Def2QZVP
 --------------------

 --------
 methanol
 --------
 Symbolic Z-matrix:
 Charge =  0 Multiplicity = 1

                         Standard orientation:
 ---------------------------------------------------------------------
 Center     Atomic      Atomic             Coordinates (Angstroms)
 Number     Number       Type             X           Y           Z
 ---------------------------------------------------------------------
      1          6           0        0.673412   -0.027012    0.001753
      2          8           0       -0.750659    0.112947   -0.003694
      3          1           0        1.011695   -0.619423   -0.859601
      4          1           0        1.060594   -0.477484    0.904681
      5          1           0        1.071938    1.039222   -0.066553
      6          1           0       -1.179427   -0.683823    0.040507
 ---------------------------------------------------------------------

 SCF Done:  E(RB2PLYPD3) =  -115.548263974     A.U. after   10 cycles
 E2(B2PLYPD3) =    -0.1465591080D+00 E(B2PLYPD3) =    -0.11569482308196D+03

 The electronic state is 1-A.
 Alpha  occ. eigenvalues --  -19.71890 -10.66356  -1.16760  -0.79024  -0.59464
 Alpha  occ. eigenvalues --   -0.51728  -0.49172  -0.40747  -0.35587
 Alpha virt. eigenvalues --    0.05221   0.08339   0.12092   0.12422   0.14907
 Alpha virt. eigenvalues --    0.17008   0.18037   0.29123   0.32949   0.33540
 Alpha virt. eigenvalues --    0.36783   0.37910   0.39651   0.40941   0.42909

 Mulliken charges:
               1
     1  C    0.068082
     2  O   -0.444755
     3  H    0.051535
     4  H    0.054826
     5  H    0.069917
     6  H    0.200394
 Sum of Mulliken charges =   0.00000

 Dipole moment (field-independent basis, Debye):
    X=              0.8441    Y=             -1.4764    Z=              0.0971  Tot=              1.7034
 Quadrupole moment (field-independent basis, Debye-Ang):
   XX=            -12.8306   YY=            -12.3439   ZZ=            -13.7816
   XY=              2.1566   XZ=             -0.0514   YZ=             -0.0533

 Normal termination of Gaussian 09 at Wed Aug 26 10:31:36 2020.
