 Gaussian 09, Revision D.01,
 Gaussian 09:  ES64L-G09RevD.01 24-Apr-2013

 --------------------
 #p B2PLYPD3/Def2QZVP
 --------------------

 --------
 methanol
 --------
 Symbolic Z-matrix:
 Charge =  0 Multiplicity = 1

                         Standard orientation:
 ---------------------------------------------------------------------
 Center     Atomic      Atomic             Coordinates (Angstroms)
 Number     Number       Type             X           Y           Z
 ---------------------------------------------------------------------
      1          6           0        0.680088    0.023405    0.003129
      2          8           0       -0.747779   -0.139563   -0.011014
      3          1           0        0.981455    0.446257    0.908730
      4          1           0        1.050518    0.619033   -0.818376
      5          1           0        1.074702   -0.932671   -0.059717
      6          1           0       -1.204977    0.843458    0.038701
 ---------------------------------------------------------------------

 SCF Done:  E(RB2PLYPD3) =  -115.535797878     A.U. after   11 cycles
 E2(B2PLYPD3) =    -0.1493917851D+00 E(B2PLYPD3) =    -0.11568518966291D+03

 The electronic state is 1-A.
 Alpha  occ. eigenvalues --  -19.73246 -10.64319  -1.13282  -0.78837  -0.56771
 Alpha  occ. eigenvalues --   -0.52032  -0.49580  -0.40825  -0.35156
 Alpha virt. eigenvalues --    0.04026   0.07851   0.12491   0.12683   0.14789
 Alpha virt. eigenvalues --    0.17204   0.18200   0.29032   0.30824   0.33143
 Alpha virt. eigenvalues --    0.33633   0.39138   0.40222   0.41616   0.43875

 Mulliken charges:
               1
     1  C    0.080282
     2  O   -0.497570
     3  H    0.051182
     4  H    0.046748
     5  H    0.071273
     6  H    0.248085
 Sum of Mulliken charges =   0.00000

 Dipole moment (field-independent basis, Debye):
    X=              0.9184    Y=              1.5826    Z=              0.1131  Tot=              1.8332
 Quadrupole moment (field-independent basis, Debye-Ang):
   XX=            -12.8348   YY=            -12.0512   ZZ=            -13.8109
   XY=             -2.4359   XZ=             -0.1414   YZ=              0.0595

 Normal termination of Gaussian 09 at Wed Aug 26 22:01:48 2020.
