 Gaussian 09, Revision D.01,
 Gaussian 09:  ES64L-G09RevD.01 24-Apr-2013

 --------------------
 #p B2PLYPD3/Def2QZVP
 --------------------

 --------
 methanol
 --------
 Symbolic Z-matrix:
 Charge =  0 Multiplicity = 1

                         Standard orientation:
 ---------------------------------------------------------------------
 Center     Atomic      Atomic             Coordinates (Angstroms)
 Number     Number       Type             X           Y           Z
 ---------------------------------------------------------------------
      1          6           0       -0.672395    0.028415   -0.001306
      2          8           0        0.747522   -0.143220   -0.003124
      3          1           0       -1.027637    0.535135   -0.840263
      4          1           0       -0.978163    0.518119    0.866335
      5          1           0       -1.091819   -0.943859    0.004652
      6          1           0        1.151816    0.865873    0.002106
 ---------------------------------------------------------------------

 SCF Done:  E(RB2PLYPD3) =  -115.535133415     A.U. after   11 cycles
 E2(B2PLYPD3) =    -0.1493756430D+00 E(B2PLYPD3) =    -0.11568450905779D+03

 The electronic state is 1-A.
 Alpha  occ. eigenvalues --  -19.73396 -10.64032  -1.13685  -0.78865  -0.56946
 Alpha  occ. eigenvalues --   -0.52633  -0.49259  -0.41022  -0.35309
 Alpha virt. eigenvalues --    0.03963   0.07937   0.12539   0.12598   0.14816
 Alpha virt. eigenvalues --    0.17415   0.18166   0.28972   0.30598   0.33371
 Alpha virt. eigenvalues --    0.33789   0.39255   0.40041   0.42263   0.44074

 Mulliken charges:
               1
     1  C    0.083165
     2  O   -0.490840
     3  H    0.047910
     4  H    0.047786
     5  H    0.065482
     6  H    0.246497
 Sum of Mulliken charges =   0.00000

 Dipole moment (field-independent basis, Debye):
    X=             -0.9773    Y=              1.6321    Z=              0.0135  Tot=              1.9024
 Quadrupole moment (field-independent basis, Debye-Ang):
   XX=            -13.0583   YY=            -11.9631   ZZ=            -13.7870
   XY=              2.3467   XZ=              0.0501   YZ=             -0.0064

 Normal termination of Gaussian 09 at Thu Aug 27 00:11:08 2020.
