 Gaussian 09, Revision D.01,
 Gaussian 09:  ES64L-G09RevD.01 24-Apr-2013

 --------------------
 #p B2PLYPD3/Def2QZVP
 --------------------

 --------
 methanol
 --------
 Symbolic Z-matrix:
 Charge =  0 Multiplicity = 1

                         Standard orientation:
 ---------------------------------------------------------------------
 Center     Atomic      Atomic             Coordinates (Angstroms)
 Number     Number       Type             X           Y           Z
 ---------------------------------------------------------------------
      1          6           0        0.686977    0.029143    0.034549
      2          8           0       -0.751059   -0.147600   -0.012428
      3          1           0        1.036512    0.365551    0.787391
      4          1           0        1.037580    0.696294   -0.767770
      5          1           0        0.992821   -1.000548   -0.178120
      6          1           0       -1.180302    0.944647    0.050631
 ---------------------------------------------------------------------

 SCF Done:  E(RB2PLYPD3) =  -115.483046634     A.U. after   11 cycles
 E2(B2PLYPD3) =    -0.1517363888D+00 E(B2PLYPD3) =    -0.11563478302275D+03

 The electronic state is 1-A.
 Alpha  occ. eigenvalues --  -19.74131 -10.63578  -1.12182  -0.79885  -0.57382
 Alpha  occ. eigenvalues --   -0.52220  -0.47529  -0.40917  -0.35407
 Alpha virt. eigenvalues --    0.02829   0.07717   0.11917   0.12866   0.15144
 Alpha virt. eigenvalues --    0.16894   0.18219   0.27078   0.29485   0.32806
 Alpha virt. eigenvalues --    0.34068   0.37609   0.38111   0.42120   0.45097

 Mulliken charges:
               1
     1  C    0.064680
     2  O   -0.492157
     3  H    0.074977
     4  H    0.038923
     5  H    0.068581
     6  H    0.244997
 Sum of Mulliken charges =   0.00000

 Dipole moment (field-independent basis, Debye):
    X=              1.0171    Y=              1.6913    Z=              0.2174  Tot=              1.9855
 Quadrupole moment (field-independent basis, Debye-Ang):
   XX=            -13.1414   YY=            -11.6558   ZZ=            -13.9514
   XY=             -2.1820   XZ=              0.0578   YZ=              0.2235

 Normal termination of Gaussian 09 at Wed Aug 26 21:28:06 2020.
