 Gaussian 09, Revision D.01,
 Gaussian 09:  ES64L-G09RevD.01 24-Apr-2013

 --------------------
 #p B2PLYPD3/Def2QZVP
 --------------------

 --------
 methanol
 --------
 Symbolic Z-matrix:
 Charge =  0 Multiplicity = 1

                         Standard orientation:
 ---------------------------------------------------------------------
 Center     Atomic      Atomic             Coordinates (Angstroms)
 Number     Number       Type             X           Y           Z
 ---------------------------------------------------------------------
      1          6           0        0.674198   -0.032626    0.003028
      2          8           0       -0.757632    0.104675   -0.002850
      3          1           0        1.003227   -0.671617   -0.841145
      4          1           0        1.093929   -0.443694    0.914706
      5          1           0        1.106307    1.084656   -0.116894
      6          1           0       -1.187598   -0.610993    0.047968
 ---------------------------------------------------------------------

 SCF Done:  E(RB2PLYPD3) =  -115.526126618     A.U. after   10 cycles
 E2(B2PLYPD3) =    -0.1458490882D+00 E(B2PLYPD3) =    -0.11567197570603D+03

 The electronic state is 1-A.
 Alpha  occ. eigenvalues --  -19.71276 -10.67444  -1.18414  -0.79527  -0.60494
 Alpha  occ. eigenvalues --   -0.51616  -0.48650  -0.40402  -0.35915
 Alpha virt. eigenvalues --    0.05318   0.08464   0.11704   0.12390   0.14849
 Alpha virt. eigenvalues --    0.16991   0.17993   0.29033   0.32322   0.33533
 Alpha virt. eigenvalues --    0.35644   0.38664   0.39661   0.40675   0.42060

 Mulliken charges:
               1
     1  C    0.063062
     2  O   -0.398329
     3  H    0.054532
     4  H    0.060513
     5  H    0.066464
     6  H    0.153759
 Sum of Mulliken charges =   0.00000

 Dipole moment (field-independent basis, Debye):
    X=              0.8472    Y=             -1.4405    Z=              0.1237  Tot=              1.6757
 Quadrupole moment (field-independent basis, Debye-Ang):
   XX=            -12.7110   YY=            -12.4943   ZZ=            -13.7943
   XY=              2.0381   XZ=             -0.0330   YZ=             -0.0546

 Normal termination of Gaussian 09 at Wed Aug 26 13:12:43 2020.
